      -----------------------------------------------------------      
     |                   =====================                   |     
     |                           x T B                           |     
     |                   =====================                   |     
     |                         S. Grimme                         |     
     |          Mulliken Center for Theoretical Chemistry        |     
     |                    University of Bonn                     |     
     |                 Version 6.0.1 (SAW181210)                 |     
      -----------------------------------------------------------      

   This program is distributed in the hope that it will be useful,
   but WITHOUT ANY WARRANTY; without even the implied warranty of
   MERCHANTABILITY or FITNESS FOR A PARTICULAR PURPOSE.
   
   FOR NON-COMMERCIAL, ACADEMIA USE ONLY.
   
   Cite this work as:
   S. Grimme, C. Bannwarth, P. Shushkov, J. Comput. Theory Chem., 2017,
   13, 1989-2009.
   C. Bannwarth, S. Ehlert and S. Grimme., ChemRxiv, 2018, preprint.
   http://doi.org/10.26434/chemrxiv.7246238.v1
   
   for sTDA-xTB:
   S. Grimme and C. Bannwarth, J. Chem. Phys., 2016, 145, 054103.
   
   in the mass-spec context:
   V. Asgeirsson, C. Bauer and S. Grimme, Chem. Sci., 2017, 8, 4879.
   
   if GBSA is used:
   P. Shushkov, F. März and S. Grimme, unpublished.
   
   for ANC optimizer:
   S. Grimme, unpublished.
   Rational Function algorithm used in ANCopt:
   F. Eckert, P. Pulay, H.-J. Werner, J. Comput. Chem., 1997, 18, 1473.
   
   with help from (in alphabetical order)
   C. Bannwarth, F. Bohle, G. Brandenburg, E. Caldeweyher, M. Checinski,
   S. Dohm, S. Ehlert, S. Ehrlich, F. März, H. Neugebauer, J. Pisarek,
   P. Pracht, P. Shushkov, and S. Spicher.
   
 * started run on 2019/09/03 at 06:41:05.218     
========================================================================
 # omp threads = 1
========================================================================
number of atoms            : 19
number of electrons        : 64
charge                     : 0
spin                       : .0
first test random number   : .2779

########################################################################
# WARNING! Please study the warnings concerning your input carefully
#  - XTBPATH is not set, using XTBHOME instead
#  - the use of '-opt' is discouraged, please use '--opt' next time
#  - the use of '-chrg' is discouraged, please use '--chrg' next time
#  - the use of '-uhf' is discouraged, please use '--uhf' next time
########################################################################

           ------------------------------------------------- 
          |                 G F N 2 - x T B                 |
          | Geometry, Frequencies, Noncovalent interactions |
          |            JCTC 2018 parametrisation            |
           ------------------------------------------------- 
      method parameters     
 k(s)        :  1.8500
 k(p)        :  2.2300
 k(d)        :  2.2300
 k(f)        :  2.0000
 kEN (H0ij)  : -2.0000
 D4 a1       :  0.5200
 D4 a2       :  5.0000
 D4 s6       :  1.0000
 D4 s8       :  2.7000
 D4 s9       :  5.0000
 alphaj      :  2.0000


            Z     q(EN)     CN     RAES       Cart. coordinates
     1  S   6.0    0.64    4.31    4.26     0.34460     3.31972     1.40245
     2  O   6.0   -0.31    1.19    1.80     0.73761     3.40413    -1.38439
     3  O   6.0   -0.31    1.16    1.80    -2.00701     1.88108     1.97552
     4  O   6.0   -0.29    1.19    1.80     2.54215     2.05042     2.62220
     5  O   6.0   -0.24    2.08    1.84     0.10890     5.90733     2.38289
     6  H   1.0    0.15    1.21    1.47    -1.30680     6.72589     1.59750
     7  O   6.0   -0.29    2.04    1.83     0.91926    -1.48462    -3.27553
     8  H   1.0    0.17    1.01    1.43     1.59962     0.16629    -2.92022
     9  H   1.0    0.16    1.00    1.43    -0.78725    -1.19123    -3.83798
    10  O   6.0   -0.29    2.07    1.83     1.62302    -5.36265    -0.26276
    11  H   1.0    0.15    0.97    1.43     2.20437    -6.87887    -1.08601
    12  H   1.0    0.17    1.05    1.44     1.49851    -4.11537    -1.58314
    13  O   6.0   -0.27    1.98    1.82    -3.53701     1.11252    -3.24132
    14  H   1.0    0.16    0.98    1.43    -4.08826     1.03175    -1.50805
    15  H   1.0    0.16    1.02    1.43    -2.11826     2.25347    -3.24264
    16  O   6.0   -0.21    2.91    2.56     0.56122    -2.38355     3.45442
    17  H   1.0    0.14    0.99    1.43    -1.13818    -1.65602     3.18500
    18  H   1.0    0.14    1.07    1.44     0.95921    -3.71474     2.20560
    19  H   1.0    0.15    1.04    1.43     1.88430    -1.06556     3.51648

  Z AO/shell   Hii/eV     exponent
  1     Wed Apr 25 08:07:45 CEST 2018   EN: 2.200 GM2: 0.406  GM3: 0.0800  RAES: 1.40
     1s    -10.707211    1.230000
  8     Wed Apr 25 08:07:45 CEST 2018   EN: 3.440 GM2: 0.452  GM3:-0.0517  RAES: 1.80
     2s    -20.229985    2.439742
     2p    -15.503117    2.137023
 16     Tue Apr 24 11:44:34 CEST 2018   EN: 2.580 GM2: 0.340  GM3:-0.0502  RAES: 3.10
     3s    -20.029654    1.981333
     3p    -11.377694    2.025643
     3d     -0.420282    1.702555
 no old-style atom pair restraining (fixing) potential

molecular fragmentation (1/2 indicates fragments):
1111112222222222222
# atoms in fragment 1/2:     6    13
 fragment masses (1/2) :       97.07       73.07
CMA distance (Bohr)    :   5.788
constraining FC (au)   :  0.0500
           ------------------------------------------------- 
          |        Self-Consistent Charge Iterations        |
           ------------------------------------------------- 

 Ncao       : 52
 Nao        : 51
 Nshell     : 29
 Nel        : 64
 T(el)      :   300.0
 intcut     :    25.0
 scfconv/Eh :  0.100E-05
   qconv/e  :  0.100E-03
 intneglect :  0.100E-07
 broydamp   :      0.250
 iter      E             dE          RMSdq      gap      omega  full diag
   1    -41.0147157 -0.410147E+02  0.771E+00   10.61       0.0  T
   2    -41.0533463 -0.386305E-01  0.559E+00   10.10       1.0  T
   3    -41.0841514 -0.308051E-01  0.146E+00    8.77       1.0  T
   4    -41.0882030 -0.405165E-02  0.633E-01    8.81       1.0  T
   5    -41.0889121 -0.709026E-03  0.343E-01    8.76       1.0  T
   6    -41.0892847 -0.372634E-03  0.147E-01    8.77       1.0  T
   7    -41.0893727 -0.879713E-04  0.497E-02    8.81       1.0  T
   8    -41.0893814 -0.876479E-05  0.306E-02    8.81       1.0  T
   9    -41.0893860 -0.452673E-05  0.680E-03    8.80       3.4  T
  10    -41.0893861 -0.143255E-06  0.221E-03    8.80      10.4  T
  11    -41.0893861 -0.114828E-07  0.866E-04    8.80      26.5  T
  12    -41.0893861 -0.221898E-08  0.459E-04    8.80      50.0  T
speedup  1.04
cpu  time for SCC    0.01 s
wall time for SCC    0.01 s

   *** convergence criteria satisfied after 12 iterations ***

          eigenvalues
 #    :          20         21         22         23         24         25         26         27
 occ. :        2.000      2.000      2.000      2.000      2.000      2.000      2.000      2.000
 eps  :       -13.498    -13.408    -13.080    -12.979    -12.720    -12.115    -11.778    -11.740
 #    :          28         29         30         31         32         33         34         35
 occ. :        2.000      2.000      2.000      2.000      2.000      0.000      0.000      0.000
 eps  :       -11.629    -11.350    -11.309    -11.144    -10.979     -2.177     -1.152     -0.177
 #    :          36         37         38         39         40         41         42         43
 occ. :        0.000      0.000      0.000      0.000      0.000      0.000      0.000      0.000
 eps  :         0.967      1.373      1.687      2.912      3.708      4.908      5.543      7.328


   #   Z            q   n(s)   n(p)   n(d)      C6AA      α(0)
   1  16 S      1.588  1.586  1.849  0.977    91.352    16.087
   2   8 O     -0.757  1.781  4.977  0.000    30.324     7.383
   3   8 O     -0.779  1.775  5.004  0.000    30.958     7.460
   4   8 O     -0.738  1.770  4.968  0.000    29.757     7.314
   5   8 O     -0.543  1.720  4.823  0.000    23.828     6.590
   6   1 H      0.361  0.639  0.000  0.000     0.556     1.166
   7   8 O     -0.630  1.736  4.895  0.000    25.923     6.872
   8   1 H      0.316  0.684  0.000  0.000     0.675     1.291
   9   1 H      0.319  0.681  0.000  0.000     0.667     1.283
  10   8 O     -0.627  1.726  4.901  0.000    25.848     6.862
  11   1 H      0.298  0.702  0.000  0.000     0.727     1.339
  12   1 H      0.345  0.655  0.000  0.000     0.601     1.218
  13   8 O     -0.609  1.739  4.870  0.000    25.412     6.804
  14   1 H      0.291  0.709  0.000  0.000     0.749     1.359
  15   1 H      0.310  0.690  0.000  0.000     0.692     1.306
  16   8 O     -0.399  1.633  4.766  0.000    20.774     6.156
  17   1 H      0.410  0.590  0.000  0.000     0.467     1.074
  18   1 H      0.428  0.572  0.000  0.000     0.437     1.039
  19   1 H      0.419  0.581  0.000  0.000     0.452     1.056

 Mol. C6AA /au·bohr⁶  :       3384.264706
 Mol. C8AA /au·bohr⁸  :      76832.880693
 Mol. α(0) /au        :         83.656521

 
 Wiberg/Mayer (AO) data. WBOs > 0.1 written file <wbo>
 largest (>0.05) Wiberg bond orders for each atom
           total WBO             WBO to atom ...
     1  S   4.921    O    4 1.316    O    2 1.297    O    3 1.287    O    5 0.995
     2  O   1.678    S    1 1.297    O    3 0.115    O    4 0.111    O    5 0.076
     3  O   1.649    S    1 1.287    O    2 0.115    O    4 0.114    O    5 0.074
     4  O   1.710    S    1 1.316    O    3 0.114    O    2 0.111    H   19 0.074    O    5 0.054
     5  O   2.047    S    1 0.995    H    6 0.846    O    2 0.076    O    3 0.074    O    4 0.054
     6  H   0.870    O    5 0.846
     7  O   1.854    H    8 0.868    H    9 0.862    H   12 0.063
     8  H   0.900    O    7 0.868
     9  H   0.898    O    7 0.862
    10  O   1.859    H   11 0.896    H   12 0.816    H   18 0.087
    11  H   0.911    O   10 0.896
    12  H   0.881    O   10 0.816    O    7 0.063
    13  O   1.844    H   14 0.903    H   15 0.870
    14  H   0.915    O   13 0.903
    15  H   0.904    O   13 0.870
    16  O   2.345    H   17 0.797    H   19 0.744    H   18 0.724
    17  H   0.832    O   16 0.797
    18  H   0.817    O   16 0.724    O   10 0.087
    19  H   0.825    O   16 0.744    O    4 0.074
 MOs/occ written to file <molden.input>
 
molecular dipole:
                 x           y           z       tot (Debye)
 q only:       -0.205      -2.003       1.173
   full:       -0.285      -1.068       1.096       3.957
molecular quadrupole (traceless):
                xx          xy          yy          xz          yz          zz
 q only:       -8.032      -8.724      11.667      -4.053      -3.459      -3.636
  q+dip:       -9.484      -9.845      16.966      -6.184      -0.051      -7.482
   full:       -9.619      -9.940      17.406      -6.078       0.114      -7.787

SCC energy    :     -41.0893861
rep           :       0.2164513
ES            :       0.2436849
AES           :      -0.0558693
AXC           :      -0.0109888
disp          :      -0.0127858
XB            :       0.0000000
fix           :       0.0000000
total E       :     -40.8728319
atomizationE  :       3.6670191     2301.09
(atE without considering molecular charge,
 total energy contains solvation terms)
H-L gap (eV)  :          8.8022
           ------------------------------------------------- 
          |                 ===============                 |
          |                   A N C O P T                   |
          |                 ===============                 |
          |          Approximate Normal Coordinate          |
          |           Rational Function Optimizer           |
           ------------------------------------------------- 
dumping coords to <xtbopt.coord> and <xtbopt.log>
 optlevel               2
 Maxcycle             380
 Maxmicro              25
 Econv         1.000000000000000E-007
 Gconv         2.000000000000000E-004
 Maxdispl       1.00000000000000     
 Hlow          5.000000000000000E-003
 S6             20.0000000000000     
 Nvar               51

generating ANC from model Hessian ...
 Shifting diagonal of input Hessian by   4.957772085196294E-003
 Lowest  eigenvalues of input Hessian
   -0.000000   -0.000000   -0.000000    0.000000    0.000000    0.000000
    0.005000    0.005180    0.005541    0.005952    0.006296    0.006596
    0.007728    0.007934    0.009357    0.010432    0.011426    0.011945
 Highest eigenvalues
    1.451380    1.545562    1.563567    3.134657    3.205563    3.309793
 
cpu  time for ANC gen    0.01 s
wall time for ANC gen    0.01 s
................................................................................
.............................. CYCLE    1 ......................................
................................................................................
   1    -41.0893861 -0.410894E+02  0.103E-04    8.80       0.0  T
   2    -41.0893861 -0.179625E-10  0.741E-05    8.80     309.7  T
   3    -41.0893861 -0.905942E-11  0.261E-05    8.80     880.4  T
speedup  1.00
cpu  time for SCC    0.00 s
wall time for SCC    0.00 s
speedup  1.08
cpu  time for grad    0.01 s
wall time for grad    0.01 s
 E :    -40.87283185  G :  0.157744    pred/act E change:  0.000D+00  0.267D-07
Maxdispl :   0.1937   ||displ|| :   0.4623   Lambda : -0.210D-01
Largest |displ|/coords:  0.1937 (  12)  0.1894 (  15)  0.1820 (  21)
................................................................................
.............................. CYCLE    2 ......................................
................................................................................
   1    -41.0978440 -0.410978E+02  0.430E-01    9.01       0.0  T
   2    -41.0979793 -0.135293E-03  0.326E-01    9.06       1.0  T
   3    -41.0980448 -0.655595E-04  0.103E-01    9.15       1.0  T
   4    -41.0980588 -0.140130E-04  0.258E-02    9.14       1.0  T
   5    -41.0980601 -0.128719E-05  0.767E-03    9.14       3.0  T
   6    -41.0980602 -0.795656E-07  0.424E-03    9.14       5.4  T
   7    -41.0980602 -0.497963E-07  0.216E-03    9.14      10.6  T
speedup  0.95
cpu  time for SCC    0.00 s
wall time for SCC    0.00 s
speedup  0.97
cpu  time for grad    0.01 s
wall time for grad    0.01 s
 E :    -40.89050107  G :  0.104274    pred/act E change:  0.000D+00 -0.177D-01
Maxdispl :   0.2621   ||displ|| :   0.4740   Lambda : -0.138D-01
Largest |displ|/coords:  0.2621 (  12)  0.2058 (  21)  0.1746 (  15)
................................................................................
.............................. CYCLE    3 ......................................
................................................................................
   1    -41.1046133 -0.411046E+02  0.336E-01    9.14       0.0  T
   2    -41.1048393 -0.226027E-03  0.245E-01    9.14       1.0  T
   3    -41.1049426 -0.103296E-03  0.110E-01    9.11       1.0  T
   4    -41.1049495 -0.688720E-05  0.257E-02    9.10       1.0  T
   5    -41.1049508 -0.128499E-05  0.813E-03    9.10       2.8  T
   6    -41.1049509 -0.112270E-06  0.466E-03    9.10       4.9  T
   7    -41.1049510 -0.743955E-07  0.243E-03    9.10       9.5  T
speedup  0.91
cpu  time for SCC    0.00 s
wall time for SCC    0.00 s
speedup  1.04
cpu  time for grad    0.01 s
wall time for grad    0.01 s
 E :    -40.90124373  G :  0.065745    pred/act E change: -0.127D-01 -0.107D-01
Maxdispl :   0.2083   ||displ|| :   0.3827   Lambda : -0.594D-02
Largest |displ|/coords:  0.2083 (  12)  0.1345 (   5)  0.1275 (   6)
................................................................................
.............................. CYCLE    4 ......................................
................................................................................
   1    -41.1048969 -0.411049E+02  0.326E-01    8.96       0.0  T
   2    -41.1050377 -0.140769E-03  0.239E-01    8.95       1.0  T
   3    -41.1050962 -0.585252E-04  0.938E-02    8.93       1.0  T
   4    -41.1051028 -0.658051E-05  0.208E-02    8.92       1.1  T
   5    -41.1051038 -0.949354E-06  0.615E-03    8.92       3.7  T
   6    -41.1051038 -0.532684E-07  0.333E-03    8.92       6.9  T
   7    -41.1051038 -0.353833E-07  0.182E-03    8.92      12.6  T
speedup  1.16
cpu  time for SCC    0.00 s
wall time for SCC    0.00 s
speedup  1.05
cpu  time for grad    0.01 s
wall time for grad    0.01 s
 E :    -40.90553760  G :  0.039606    pred/act E change: -0.847D-02 -0.429D-02
Maxdispl :   0.2211   ||displ|| :   0.4515   Lambda : -0.420D-02
Largest |displ|/coords:  0.2211 (   6)  0.2132 (   5)  0.1398 (   9)
................................................................................
.............................. CYCLE    5 ......................................
................................................................................
   1    -41.1056331 -0.411056E+02  0.356E-01    8.72       0.0  T
   2    -41.1057395 -0.106449E-03  0.266E-01    8.72       1.0  T
   3    -41.1057734 -0.338514E-04  0.988E-02    8.72       1.0  T
   4    -41.1057822 -0.880765E-05  0.213E-02    8.72       1.1  T
   5    -41.1057827 -0.562143E-06  0.576E-03    8.72       4.0  T
   6    -41.1057828 -0.338664E-07  0.231E-03    8.72       9.9  T
speedup  1.08
cpu  time for SCC    0.00 s
wall time for SCC    0.00 s
speedup  1.00
cpu  time for grad    0.01 s
wall time for grad    0.01 s
 E :    -40.90769134  G :  0.024864    pred/act E change: -0.340D-02 -0.215D-02
Maxdispl :   0.2453   ||displ|| :   0.4227   Lambda : -0.213D-02
Largest |displ|/coords:  0.2453 (   6)  0.1738 (   3)  0.1418 (   1)
................................................................................
.............................. CYCLE    6 ......................................
................................................................................
   1    -41.1089279 -0.411089E+02  0.287E-01    8.67       0.0  T
   2    -41.1089829 -0.549928E-04  0.212E-01    8.69       1.0  T
   3    -41.1090047 -0.217354E-04  0.680E-02    8.73       1.0  T
   4    -41.1090098 -0.516411E-05  0.152E-02    8.74       1.5  T
   5    -41.1090103 -0.430398E-06  0.420E-03    8.73       5.5  T
   6    -41.1090103 -0.112981E-07  0.194E-03    8.73      11.8  T
speedup  1.08
cpu  time for SCC    0.00 s
wall time for SCC    0.00 s
speedup  1.11
cpu  time for grad    0.01 s
wall time for grad    0.01 s
 E :    -40.90807740  G :  0.022187    pred/act E change: -0.253D-02 -0.386D-03
Maxdispl :   0.3126   ||displ|| :   0.4029   Lambda : -0.242D-02
Largest |displ|/coords:  0.3126 (   5)  0.1707 (   3)  0.1130 (   4)
................................................................................
.............................. CYCLE    7 ......................................
................................................................................
   1    -41.0974805 -0.410975E+02  0.663E-01    8.66       0.0  T
   2    -41.0976476 -0.167069E-03  0.497E-01    8.67       1.0  T
   3    -41.0977399 -0.922920E-04  0.867E-02    8.70       1.0  T
   4    -41.0977648 -0.249073E-04  0.168E-02    8.69       1.4  T
   5    -41.0977651 -0.352073E-06  0.700E-03    8.69       3.3  T
   6    -41.0977652 -0.742773E-07  0.381E-03    8.69       6.0  T
   7    -41.0977652 -0.187466E-07  0.733E-04    8.69      31.3  T
speedup  0.93
cpu  time for SCC    0.00 s
wall time for SCC    0.00 s
speedup  1.04
cpu  time for grad    0.01 s
wall time for grad    0.01 s
 E :    -40.90609271  G :  0.063518    pred/act E change: -0.126D-02  0.198D-02
Maxdispl :   0.2260   ||displ|| :   0.5213   Lambda : -0.149D-01
Largest |displ|/coords:  0.2260 (   4)  0.2167 (  14)  0.2109 (   5)
................................................................................
.............................. CYCLE    8 ......................................
................................................................................
   1    -41.1139875 -0.411140E+02  0.854E-01    8.69       0.0  T
   2    -41.1143066 -0.319152E-03  0.643E-01    8.67       1.0  T
   3    -41.1145218 -0.215122E-03  0.118E-01    8.63       1.0  T
   4    -41.1145653 -0.435848E-04  0.198E-02    8.64       1.2  T
   5    -41.1145659 -0.518539E-06  0.121E-02    8.64       1.9  T
   6    -41.1145659 -0.633757E-07  0.454E-03    8.64       5.1  T
   7    -41.1145660 -0.353900E-07  0.899E-04    8.64      25.5  T
speedup  0.93
cpu  time for SCC    0.00 s
wall time for SCC    0.00 s
speedup  0.94
cpu  time for grad    0.01 s
wall time for grad    0.01 s
 E :    -40.90650248  G :  0.060804    pred/act E change: -0.140D-02 -0.410D-03
Maxdispl :   0.2194   ||displ|| :   0.3098   Lambda : -0.588D-02
Largest |displ|/coords:  0.2194 (  14)  0.0974 (  21)  0.0809 (   3)
................................................................................
.............................. CYCLE    9 ......................................
................................................................................
   1    -41.1093023 -0.411093E+02  0.349E-01    8.76       0.0  T
   2    -41.1093648 -0.625025E-04  0.263E-01    8.78       1.0  T
   3    -41.1093987 -0.338974E-04  0.514E-02    8.83       1.0  T
   4    -41.1094078 -0.912642E-05  0.119E-02    8.82       1.9  T
   5    -41.1094080 -0.184797E-06  0.423E-03    8.81       5.4  T
   6    -41.1094080 -0.207153E-07  0.233E-03    8.81       9.8  T
speedup  1.05
cpu  time for SCC    0.00 s
wall time for SCC    0.00 s
speedup  1.00
cpu  time for grad    0.01 s
wall time for grad    0.01 s
 E :    -40.90896065  G :  0.014062    pred/act E change: -0.944D-02 -0.246D-02
Maxdispl :   0.0899   ||displ|| :   0.1647   Lambda : -0.102D-02
Largest |displ|/coords:  0.0899 (  14)  0.0590 (  21)  0.0554 (  16)
................................................................................
.............................. CYCLE   10 ......................................
................................................................................
   1    -41.1082934 -0.411083E+02  0.164E-01    8.81       0.0  T
   2    -41.1083168 -0.234196E-04  0.120E-01    8.81       1.0  T
   3    -41.1083268 -0.999766E-05  0.307E-02    8.81       1.0  T
   4    -41.1083294 -0.253019E-05  0.579E-03    8.81       4.0  T
   5    -41.1083294 -0.557769E-07  0.244E-03    8.81       9.4  T
   6    -41.1083294 -0.383966E-08  0.118E-03    8.81      19.5  T
speedup  1.08
cpu  time for SCC    0.00 s
wall time for SCC    0.00 s
speedup  0.99
cpu  time for grad    0.01 s
wall time for grad    0.01 s
 E :    -40.90934276  G :  0.017934    pred/act E change: -0.322D-02 -0.382D-03
Maxdispl :   0.0584   ||displ|| :   0.1158   Lambda : -0.450D-03
Largest |displ|/coords:  0.0584 (   2)  0.0461 (   9)  0.0441 (  10)
................................................................................
.............................. CYCLE   11 ......................................
................................................................................
   1    -41.1092293 -0.411092E+02  0.108E-01    8.78       0.0  T
   2    -41.1092317 -0.242273E-05  0.809E-02    8.78       1.0  T
   3    -41.1092336 -0.185714E-05  0.108E-02    8.79       2.1  T
   4    -41.1092338 -0.293724E-06  0.348E-03    8.79       6.6  T
   5    -41.1092339 -0.103779E-07  0.114E-03    8.79      20.1  T
   6    -41.1092339 -0.979355E-09  0.600E-04    8.79      38.2  T
speedup  1.08
cpu  time for SCC    0.00 s
wall time for SCC    0.00 s
speedup  1.00
cpu  time for grad    0.01 s
wall time for grad    0.01 s
 E :    -40.90959805  G :  0.010620    pred/act E change: -0.526D-03 -0.255D-03
Maxdispl :   0.0586   ||displ|| :   0.1443   Lambda : -0.373D-03
Largest |displ|/coords:  0.0586 (  10)  0.0534 (   3)  0.0513 (   7)
................................................................................
.............................. CYCLE   12 ......................................
................................................................................
   1    -41.1100053 -0.411100E+02  0.141E-01    8.79       0.0  T
   2    -41.1100096 -0.429771E-05  0.107E-01    8.79       1.0  T
   3    -41.1100125 -0.288923E-05  0.137E-02    8.79       1.7  T
   4    -41.1100132 -0.679878E-06  0.428E-03    8.80       5.4  T
   5    -41.1100132 -0.211492E-07  0.155E-03    8.80      14.8  T
   6    -41.1100132 -0.220067E-08  0.787E-04    8.80      29.1  T
speedup  1.08
cpu  time for SCC    0.00 s
wall time for SCC    0.00 s
speedup  0.99
cpu  time for grad    0.01 s
wall time for grad    0.01 s
 E :    -40.90980463  G :  0.012419    pred/act E change: -0.228D-03 -0.207D-03
Maxdispl :   0.1140   ||displ|| :   0.2762   Lambda : -0.569D-03
Largest |displ|/coords:  0.1140 (   3)  0.1124 (  10)  0.1057 (   4)
................................................................................
.............................. CYCLE   13 ......................................
................................................................................
   1    -41.1080885 -0.411081E+02  0.263E-01    8.78       0.0  T
   2    -41.1081012 -0.126415E-04  0.197E-01    8.79       1.0  T
   3    -41.1081098 -0.859672E-05  0.311E-02    8.82       1.0  T
   4    -41.1081115 -0.172791E-05  0.869E-03    8.81       2.6  T
   5    -41.1081116 -0.110283E-06  0.286E-03    8.81       8.0  T
   6    -41.1081116 -0.346731E-08  0.168E-03    8.81      13.7  T
speedup  1.08
cpu  time for SCC    0.00 s
wall time for SCC    0.00 s
speedup  0.99
cpu  time for grad    0.01 s
wall time for grad    0.01 s
 E :    -40.91013454  G :  0.016954    pred/act E change: -0.190D-03 -0.330D-03
Maxdispl :   0.1150   ||displ|| :   0.2695   Lambda : -0.646D-03
Largest |displ|/coords:  0.1150 (   7)  0.0964 (  10)  0.0954 (   3)
................................................................................
.............................. CYCLE   14 ......................................
................................................................................
   1    -41.1090291 -0.411090E+02  0.219E-01    8.79       0.0  T
   2    -41.1090370 -0.792316E-05  0.163E-01    8.80       1.0  T
   3    -41.1090419 -0.494053E-05  0.270E-02    8.82       1.0  T
   4    -41.1090431 -0.116583E-05  0.618E-03    8.82       3.7  T
   5    -41.1090432 -0.492064E-07  0.228E-03    8.81      10.1  T
   6    -41.1090432 -0.272782E-08  0.117E-03    8.81      19.6  T
speedup  1.05
cpu  time for SCC    0.00 s
wall time for SCC    0.00 s
speedup  0.99
cpu  time for grad    0.01 s
wall time for grad    0.01 s
 E :    -40.91055838  G :  0.010817    pred/act E change: -0.306D-03 -0.424D-03
Maxdispl :   0.1695   ||displ|| :   0.2883   Lambda : -0.583D-03
Largest |displ|/coords:  0.1695 (   7)  0.1291 (  10)  0.0827 (   5)
................................................................................
.............................. CYCLE   15 ......................................
................................................................................
   1    -41.1112130 -0.411112E+02  0.212E-01    8.82       0.0  T
   2    -41.1112203 -0.736420E-05  0.158E-01    8.83       1.0  T
   3    -41.1112268 -0.647047E-05  0.265E-02    8.84       1.0  T
   4    -41.1112278 -0.957023E-06  0.776E-03    8.84       3.0  T
   5    -41.1112278 -0.530031E-07  0.258E-03    8.84       8.9  T
   6    -41.1112278 -0.576158E-08  0.134E-03    8.84      17.2  T
speedup  1.08
cpu  time for SCC    0.00 s
wall time for SCC    0.00 s
speedup  0.98
cpu  time for grad    0.01 s
wall time for grad    0.01 s
 E :    -40.91083975  G :  0.011618    pred/act E change: -0.347D-03 -0.281D-03
Maxdispl :   0.1914   ||displ|| :   0.3782   Lambda : -0.667D-03
Largest |displ|/coords:  0.1914 (   7)  0.1623 (   8)  0.1225 (   5)
................................................................................
.............................. CYCLE   16 ......................................
................................................................................
   1    -41.1043481 -0.411043E+02  0.378E-01    8.72       0.0  T
   2    -41.1043718 -0.237237E-04  0.283E-01    8.74       1.0  T
   3    -41.1043880 -0.162264E-04  0.374E-02    8.79       1.0  T
   4    -41.1043913 -0.333098E-05  0.110E-02    8.78       2.1  T
   5    -41.1043915 -0.178219E-06  0.391E-03    8.77       5.9  T
   6    -41.1043915 -0.876947E-08  0.237E-03    8.77       9.7  T
   7    -41.1043915 -0.752181E-08  0.545E-04    8.77      42.1  T
speedup  0.93
cpu  time for SCC    0.00 s
wall time for SCC    0.00 s
speedup  1.04
cpu  time for grad    0.01 s
wall time for grad    0.01 s
 E :    -40.91093340  G :  0.024425    pred/act E change: -0.316D-03 -0.937D-04
Maxdispl :   0.1052   ||displ|| :   0.1666   Lambda : -0.980D-03
Largest |displ|/coords:  0.1052 (   6)  0.0860 (   4)  0.0445 (   3)
................................................................................
.............................. CYCLE   17 ......................................
................................................................................
   1    -41.1100952 -0.411101E+02  0.129E-01    8.94       0.0  T
   2    -41.1101009 -0.570724E-05  0.966E-02    8.94       1.0  T
   3    -41.1101064 -0.555571E-05  0.169E-02    8.94       1.4  T
   4    -41.1101070 -0.550994E-06  0.661E-03    8.94       3.5  T
   5    -41.1101070 -0.417358E-07  0.193E-03    8.94      11.9  T
   6    -41.1101070 -0.394844E-08  0.109E-03    8.94      21.1  T
speedup  0.81
cpu  time for SCC    0.00 s
wall time for SCC    0.00 s
speedup  0.99
cpu  time for grad    0.01 s
wall time for grad    0.01 s
 E :    -40.91138568  G :  0.013532    pred/act E change: -0.381D-03 -0.452D-03
Maxdispl :   0.1121   ||displ|| :   0.2204   Lambda : -0.633D-03
Largest |displ|/coords:  0.1121 (   2)  0.0883 (   7)  0.0765 (  10)
................................................................................
.............................. CYCLE   18 ......................................
................................................................................
   1    -41.1106678 -0.411107E+02  0.223E-01    8.98       0.0  T
   2    -41.1106842 -0.163877E-04  0.167E-01    8.98       1.0  T
   3    -41.1106970 -0.127546E-04  0.285E-02    8.99       1.0  T
   4    -41.1106991 -0.215942E-05  0.822E-03    8.99       2.8  T
   5    -41.1106992 -0.600028E-07  0.329E-03    9.00       7.0  T
   6    -41.1106992 -0.116217E-07  0.167E-03    8.99      13.8  T
   7    -41.1106992 -0.361472E-08  0.470E-04    8.99      48.8  T
speedup  0.93
cpu  time for SCC    0.00 s
wall time for SCC    0.00 s
speedup  0.93
cpu  time for grad    0.01 s
wall time for grad    0.01 s
 E :    -40.91145712  G :  0.017189    pred/act E change: -0.503D-03 -0.714D-04
Maxdispl :   0.1058   ||displ|| :   0.2157   Lambda : -0.741D-03
Largest |displ|/coords:  0.1058 (   7)  0.0988 (   8)  0.0891 (   2)
................................................................................
.............................. CYCLE   19 ......................................
................................................................................
   1    -41.1096149 -0.411096E+02  0.158E-01    8.92       0.0  T
   2    -41.1096210 -0.610028E-05  0.117E-01    8.93       1.0  T
   3    -41.1096255 -0.451742E-05  0.183E-02    8.94       1.3  T
   4    -41.1096263 -0.775374E-06  0.667E-03    8.93       3.4  T
   5    -41.1096263 -0.334199E-07  0.215E-03    8.93      10.7  T
   6    -41.1096263 -0.453677E-08  0.121E-03    8.93      19.0  T
speedup  1.08
cpu  time for SCC    0.00 s
wall time for SCC    0.00 s
speedup  1.00
cpu  time for grad    0.01 s
wall time for grad    0.01 s
 E :    -40.91179591  G :  0.011571    pred/act E change: -0.332D-03 -0.339D-03
Maxdispl :   0.0918   ||displ|| :   0.1656   Lambda : -0.425D-03
Largest |displ|/coords:  0.0918 (   6)  0.0711 (   2)  0.0562 (   7)
................................................................................
.............................. CYCLE   20 ......................................
................................................................................
   1    -41.1100020 -0.411100E+02  0.163E-01    9.05       0.0  T
   2    -41.1100091 -0.711644E-05  0.122E-01    9.06       1.0  T
   3    -41.1100138 -0.471773E-05  0.213E-02    9.09       1.1  T
   4    -41.1100147 -0.914932E-06  0.490E-03    9.09       4.7  T
   5    -41.1100148 -0.536535E-07  0.175E-03    9.09      13.1  T
   6    -41.1100148 -0.152359E-08  0.991E-04    9.08      23.1  T
speedup  1.08
cpu  time for SCC    0.00 s
wall time for SCC    0.00 s
speedup  1.00
cpu  time for grad    0.01 s
wall time for grad    0.01 s
 E :    -40.91194083  G :  0.012088    pred/act E change: -0.388D-03 -0.145D-03
Maxdispl :   0.0583   ||displ|| :   0.1243   Lambda : -0.236D-03
Largest |displ|/coords:  0.0583 (   6)  0.0570 (   7)  0.0516 (  10)
................................................................................
.............................. CYCLE   21 ......................................
................................................................................
   1    -41.1088120 -0.411088E+02  0.111E-01    8.97       0.0  T
   2    -41.1088153 -0.325660E-05  0.815E-02    8.97       1.0  T
   3    -41.1088176 -0.236213E-05  0.157E-02    8.97       1.5  T
   4    -41.1088180 -0.344861E-06  0.608E-03    8.98       3.8  T
   5    -41.1088180 -0.303849E-07  0.129E-03    8.98      17.8  T
   6    -41.1088180 -0.158806E-08  0.792E-04    8.98      28.9  T
speedup  1.08
cpu  time for SCC    0.00 s
wall time for SCC    0.00 s
speedup  0.99
cpu  time for grad    0.01 s
wall time for grad    0.01 s
 E :    -40.91207723  G :  0.009156    pred/act E change: -0.219D-03 -0.136D-03
Maxdispl :   0.0869   ||displ|| :   0.1662   Lambda : -0.277D-03
Largest |displ|/coords:  0.0869 (   6)  0.0751 (   2)  0.0485 (   3)
................................................................................
.............................. CYCLE   22 ......................................
................................................................................
   1    -41.1124103 -0.411124E+02  0.110E-01    9.07       0.0  T
   2    -41.1124154 -0.508657E-05  0.805E-02    9.07       1.0  T
   3    -41.1124192 -0.375960E-05  0.179E-02    9.06       1.3  T
   4    -41.1124197 -0.544988E-06  0.491E-03    9.06       4.7  T
   5    -41.1124197 -0.303515E-07  0.169E-03    9.06      13.6  T
   6    -41.1124197 -0.290717E-08  0.899E-04    9.06      25.5  T
speedup  1.05
cpu  time for SCC    0.00 s
wall time for SCC    0.00 s
speedup  0.98
cpu  time for grad    0.01 s
wall time for grad    0.01 s
 E :    -40.91217578  G :  0.006626    pred/act E change: -0.120D-03 -0.985D-04
Maxdispl :   0.1168   ||displ|| :   0.2322   Lambda : -0.214D-03
Largest |displ|/coords:  0.1168 (   7)  0.0994 (   6)  0.0861 (  10)
................................................................................
.............................. CYCLE   23 ......................................
................................................................................
   1    -41.1088699 -0.411089E+02  0.197E-01    8.99       0.0  T
   2    -41.1088806 -0.106368E-04  0.146E-01    9.00       1.0  T
   3    -41.1088876 -0.702455E-05  0.284E-02    9.02       1.0  T
   4    -41.1088890 -0.137779E-05  0.827E-03    9.01       2.8  T
   5    -41.1088891 -0.935130E-07  0.265E-03    9.01       8.6  T
   6    -41.1088891 -0.526413E-08  0.161E-03    9.01      14.2  T
speedup  1.05
cpu  time for SCC    0.00 s
wall time for SCC    0.00 s
speedup  0.99
cpu  time for grad    0.01 s
wall time for grad    0.01 s
 E :    -40.91222821  G :  0.010351    pred/act E change: -0.142D-03 -0.524D-04
Maxdispl :   0.0401   ||displ|| :   0.0921   Lambda : -0.263D-03
Largest |displ|/coords:  0.0401 (  16)  0.0380 (   6)  0.0326 (   5)
................................................................................
.............................. CYCLE   24 ......................................
................................................................................
   1    -41.1110239 -0.411110E+02  0.926E-02    9.00       0.0  T
   2    -41.1110267 -0.282511E-05  0.696E-02    9.00       1.0  T
   3    -41.1110292 -0.245364E-05  0.125E-02    9.01       1.8  T
   4    -41.1110295 -0.338577E-06  0.408E-03    9.01       5.6  T
   5    -41.1110295 -0.141278E-07  0.142E-03    9.01      16.1  T
   6    -41.1110295 -0.247228E-08  0.720E-04    9.01      31.9  T
speedup  1.08
cpu  time for SCC    0.00 s
wall time for SCC    0.00 s
speedup  1.00
cpu  time for grad    0.01 s
wall time for grad    0.01 s
 E :    -40.91233237  G :  0.008043    pred/act E change: -0.113D-03 -0.104D-03
Maxdispl :   0.0415   ||displ|| :   0.0805   Lambda : -0.128D-03
Largest |displ|/coords:  0.0415 (   1)  0.0348 (  10)  0.0348 (   9)
................................................................................
.............................. CYCLE   25 ......................................
................................................................................
   1    -41.1114408 -0.411114E+02  0.485E-02    9.05       0.0  T
   2    -41.1114418 -0.996405E-06  0.357E-02    9.05       1.0  T
   3    -41.1114422 -0.419892E-06  0.113E-02    9.05       2.0  T
   4    -41.1114424 -0.119468E-06  0.204E-03    9.05      11.3  T
   5    -41.1114424 -0.462961E-08  0.751E-04    9.05      30.5  T
speedup  0.97
cpu  time for SCC    0.00 s
wall time for SCC    0.00 s
speedup  1.07
cpu  time for grad    0.01 s
wall time for grad    0.01 s
 E :    -40.91240077  G :  0.005581    pred/act E change: -0.133D-03 -0.684D-04
Maxdispl :   0.0656   ||displ|| :   0.1233   Lambda : -0.110D-03
Largest |displ|/coords:  0.0656 (   6)  0.0408 (   1)  0.0365 (   7)

generating ANC from model Hessian ...
 Shifting diagonal of input Hessian by   4.992668607697376E-003
 Lowest  eigenvalues of input Hessian
   -0.000000   -0.000000   -0.000000    0.000000    0.000000    0.000000
    0.005000    0.005303    0.005697    0.006398    0.006416    0.007049
    0.009356    0.009707    0.011171    0.013788    0.015785    0.018245
 Highest eigenvalues
    1.381770    1.402370    1.408844    2.528222    3.426408    3.698246
 
cpu  time for ANC gen    0.01 s
wall time for ANC gen    0.01 s
................................................................................
.............................. CYCLE   26 ......................................
................................................................................
   1    -41.1115497 -0.411115E+02  0.975E-02    9.04       0.0  T
   2    -41.1115517 -0.205477E-05  0.714E-02    9.05       1.0  T
   3    -41.1115530 -0.129356E-05  0.155E-02    9.05       1.5  T
   4    -41.1115533 -0.279053E-06  0.425E-03    9.05       5.4  T
   5    -41.1115533 -0.181192E-07  0.122E-03    9.05      18.8  T
   6    -41.1115533 -0.116028E-08  0.744E-04    9.05      30.8  T
   7    -41.1115533 -0.588877E-09  0.219E-04    9.05     104.9  T
speedup  1.14
cpu  time for SCC    0.00 s
wall time for SCC    0.00 s
speedup  1.00
cpu  time for grad    0.01 s
wall time for grad    0.01 s
 E :    -40.91248386  G :  0.004604    pred/act E change:  0.000D+00 -0.831D-04
Maxdispl :   0.0672   ||displ|| :   0.0969   Lambda : -0.978D-04
Largest |displ|/coords:  0.0672 (   3)  0.0373 (   6)  0.0336 (  10)
................................................................................
.............................. CYCLE   27 ......................................
................................................................................
   1    -41.1117547 -0.411118E+02  0.954E-02    9.05       0.0  T
   2    -41.1117551 -0.430518E-06  0.720E-02    9.05       1.0  T
   3    -41.1117556 -0.547145E-06  0.369E-03    9.06       6.2  T
   4    -41.1117557 -0.209341E-07  0.160E-03    9.06      14.3  T
   5    -41.1117557 -0.175336E-08  0.642E-04    9.06      35.7  T
speedup  0.97
cpu  time for SCC    0.00 s
wall time for SCC    0.00 s
speedup  1.02
cpu  time for grad    0.01 s
wall time for grad    0.01 s
 E :    -40.91254403  G :  0.002601    pred/act E change:  0.000D+00 -0.602D-04
Maxdispl :   0.0639   ||displ|| :   0.0996   Lambda : -0.596D-04
Largest |displ|/coords:  0.0639 (   2)  0.0411 (   4)  0.0392 (   6)
................................................................................
.............................. CYCLE   28 ......................................
................................................................................
   1    -41.1119476 -0.411119E+02  0.796E-02    9.06       0.0  T
   2    -41.1119483 -0.695244E-06  0.600E-02    9.06       1.0  T
   3    -41.1119490 -0.695859E-06  0.618E-03    9.07       3.7  T
   4    -41.1119490 -0.816201E-07  0.217E-03    9.07      10.6  T
   5    -41.1119491 -0.445984E-08  0.727E-04    9.07      31.5  T
   6    -41.1119491 -0.553342E-09  0.375E-04    9.07      61.3  T
speedup  0.81
cpu  time for SCC    0.00 s
wall time for SCC    0.00 s
speedup  0.97
cpu  time for grad    0.01 s
wall time for grad    0.01 s
 E :    -40.91258678  G :  0.001993    pred/act E change: -0.494D-04 -0.428D-04
Maxdispl :   0.0872   ||displ|| :   0.1448   Lambda : -0.553D-04
Largest |displ|/coords:  0.0872 (   6)  0.0860 (   2)  0.0395 (   4)
................................................................................
.............................. CYCLE   29 ......................................
................................................................................
   1    -41.1115724 -0.411116E+02  0.114E-01    9.06       0.0  T
   2    -41.1115742 -0.182098E-05  0.860E-02    9.06       1.0  T
   3    -41.1115759 -0.165980E-05  0.112E-02    9.07       2.1  T
   4    -41.1115761 -0.244577E-06  0.343E-03    9.06       6.7  T
   5    -41.1115761 -0.103317E-07  0.117E-03    9.06      19.6  T
   6    -41.1115761 -0.122779E-08  0.571E-04    9.06      40.2  T
   7    -41.1115761 -0.500663E-09  0.188E-04    9.06     122.2  T
speedup  0.93
cpu  time for SCC    0.00 s
wall time for SCC    0.00 s
speedup  1.01
cpu  time for grad    0.01 s
wall time for grad    0.01 s
 E :    -40.91262342  G :  0.002878    pred/act E change: -0.301D-04 -0.366D-04
Maxdispl :   0.0670   ||displ|| :   0.1042   Lambda : -0.299D-04
Largest |displ|/coords:  0.0670 (   6)  0.0525 (   2)  0.0326 (   4)
................................................................................
.............................. CYCLE   30 ......................................
................................................................................
   1    -41.1113482 -0.411113E+02  0.800E-02    9.06       0.0  T
   2    -41.1113496 -0.137870E-05  0.596E-02    9.06       1.0  T
   3    -41.1113505 -0.986227E-06  0.119E-02    9.06       1.9  T
   4    -41.1113507 -0.206228E-06  0.263E-03    9.06       8.7  T
   5    -41.1113508 -0.647614E-08  0.932E-04    9.06      24.6  T
   6    -41.1113508 -0.721258E-09  0.459E-04    9.06      50.0  T
speedup  0.73
cpu  time for SCC    0.00 s
wall time for SCC    0.00 s
speedup  0.93
cpu  time for grad    0.01 s
wall time for grad    0.01 s
 E :    -40.91264378  G :  0.002918    pred/act E change: -0.282D-04 -0.204D-04
Maxdispl :   0.0935   ||displ|| :   0.1248   Lambda : -0.312D-04
Largest |displ|/coords:  0.0935 (   6)  0.0485 (   2)  0.0379 (   4)
................................................................................
.............................. CYCLE   31 ......................................
................................................................................
   1    -41.1110774 -0.411111E+02  0.918E-02    9.06       0.0  T
   2    -41.1110793 -0.188101E-05  0.675E-02    9.06       1.0  T
   3    -41.1110805 -0.123013E-05  0.152E-02    9.06       1.5  T
   4    -41.1110808 -0.274995E-06  0.342E-03    9.06       6.7  T
   5    -41.1110808 -0.108313E-07  0.109E-03    9.06      21.1  T
   6    -41.1110808 -0.107553E-08  0.610E-04    9.06      37.6  T
   7    -41.1110808 -0.469804E-09  0.226E-04    9.06     101.7  T
speedup  0.95
cpu  time for SCC    0.00 s
wall time for SCC    0.00 s
speedup  1.02
cpu  time for grad    0.01 s
wall time for grad    0.01 s
 E :    -40.91266734  G :  0.002652    pred/act E change: -0.151D-04 -0.236D-04
Maxdispl :   0.1840   ||displ|| :   0.2381   Lambda : -0.607D-04
Largest |displ|/coords:  0.1840 (   6)  0.0683 (   4)  0.0589 (   2)
................................................................................
.............................. CYCLE   32 ......................................
................................................................................
   1    -41.1105742 -0.411106E+02  0.172E-01    9.05       0.0  T
   2    -41.1105816 -0.733445E-05  0.125E-01    9.05       1.0  T
   3    -41.1105857 -0.419059E-05  0.312E-02    9.05       1.0  T
   4    -41.1105868 -0.102144E-05  0.653E-03    9.04       3.5  T
   5    -41.1105868 -0.397333E-07  0.204E-03    9.05      11.3  T
   6    -41.1105868 -0.351415E-08  0.113E-03    9.05      20.2  T
   7    -41.1105868 -0.157622E-08  0.433E-04    9.05      53.0  T
   8    -41.1105868 -0.219842E-09  0.858E-05    9.05     267.4  T
speedup  1.02
cpu  time for SCC    0.00 s
wall time for SCC    0.00 s
speedup  1.05
cpu  time for grad    0.01 s
wall time for grad    0.01 s
 E :    -40.91271409  G :  0.004390    pred/act E change: -0.158D-04 -0.467D-04
Maxdispl :   0.3193   ||displ|| :   0.4236   Lambda : -0.113D-03
Largest |displ|/coords:  0.3193 (   6)  0.1373 (   3)  0.1092 (   4)
................................................................................
.............................. CYCLE   33 ......................................
................................................................................
   1    -41.1078075 -0.411078E+02  0.311E-01    8.98       0.0  T
   2    -41.1078284 -0.208988E-04  0.227E-01    8.98       1.0  T
   3    -41.1078413 -0.129587E-04  0.519E-02    8.97       1.0  T
   4    -41.1078442 -0.287885E-05  0.117E-02    8.97       2.0  T
   5    -41.1078443 -0.119777E-06  0.334E-03    8.97       6.9  T
   6    -41.1078443 -0.901346E-08  0.190E-03    8.97      12.1  T
   7    -41.1078443 -0.407280E-08  0.689E-04    8.97      33.3  T
speedup  0.91
cpu  time for SCC    0.00 s
wall time for SCC    0.00 s
speedup  0.91
cpu  time for grad    0.01 s
wall time for grad    0.01 s
 E :    -40.91276802  G :  0.011138    pred/act E change: -0.321D-04 -0.539D-04
Maxdispl :   0.1158   ||displ|| :   0.1985   Lambda : -0.199D-03
Largest |displ|/coords:  0.1158 (   3)  0.0919 (   2)  0.0846 (   1)
................................................................................
.............................. CYCLE   34 ......................................
................................................................................
   1    -41.1104362 -0.411104E+02  0.146E-01    9.02       0.0  T
   2    -41.1104403 -0.413807E-05  0.107E-01    9.01       1.0  T
   3    -41.1104431 -0.282367E-05  0.209E-02    9.01       1.1  T
   4    -41.1104436 -0.460613E-06  0.625E-03    9.01       3.7  T
   5    -41.1104436 -0.390738E-07  0.149E-03    9.01      15.4  T
   6    -41.1104436 -0.149903E-08  0.934E-04    9.01      24.6  T
speedup  1.08
cpu  time for SCC    0.00 s
wall time for SCC    0.00 s
speedup  1.00
cpu  time for grad    0.01 s
wall time for grad    0.01 s
 E :    -40.91288042  G :  0.011322    pred/act E change: -0.669D-04 -0.112D-03
Maxdispl :   0.1318   ||displ|| :   0.2324   Lambda : -0.274D-03
Largest |displ|/coords:  0.1318 (   1)  0.1186 (   3)  0.0968 (   6)
................................................................................
.............................. CYCLE   35 ......................................
................................................................................
   1    -41.1103671 -0.411104E+02  0.190E-01    9.04       0.0  T
   2    -41.1103719 -0.479100E-05  0.141E-01    9.04       1.0  T
   3    -41.1103768 -0.494626E-05  0.229E-02    9.06       1.0  T
   4    -41.1103772 -0.393815E-06  0.588E-03    9.05       3.9  T
   5    -41.1103773 -0.391771E-07  0.192E-03    9.05      11.9  T
   6    -41.1103773 -0.318650E-08  0.121E-03    9.05      19.0  T
speedup  1.08
cpu  time for SCC    0.00 s
wall time for SCC    0.00 s
speedup  1.00
cpu  time for grad    0.01 s
wall time for grad    0.01 s
 E :    -40.91306572  G :  0.007133    pred/act E change: -0.104D-03 -0.185D-03
Maxdispl :   0.3268   ||displ|| :   0.5255   Lambda : -0.341D-03
Largest |displ|/coords:  0.3268 (   6)  0.2625 (   1)  0.2059 (   3)
................................................................................
.............................. CYCLE   36 ......................................
................................................................................
   1    -41.1044541 -0.411045E+02  0.402E-01    8.90       0.0  T
   2    -41.1044764 -0.223640E-04  0.296E-01    8.90       1.0  T
   3    -41.1044962 -0.197460E-04  0.495E-02    8.90       1.0  T
   4    -41.1044986 -0.241577E-05  0.151E-02    8.90       1.5  T
   5    -41.1044988 -0.209182E-06  0.390E-03    8.90       5.9  T
   6    -41.1044988 -0.106363E-07  0.243E-03    8.90       9.4  T
   7    -41.1044988 -0.581561E-08  0.561E-04    8.90      40.9  T
speedup  0.91
cpu  time for SCC    0.00 s
wall time for SCC    0.00 s
speedup  1.03
cpu  time for grad    0.01 s
wall time for grad    0.01 s
 E :    -40.91305712  G :  0.015234    pred/act E change: -0.145D-03  0.859D-05
Maxdispl :   0.1996   ||displ|| :   0.2812   Lambda : -0.588D-03
Largest |displ|/coords:  0.1996 (   6)  0.1365 (   3)  0.0583 (   8)
................................................................................
.............................. CYCLE   37 ......................................
................................................................................
   1    -41.1101638 -0.411102E+02  0.210E-01    9.06       0.0  T
   2    -41.1101740 -0.101517E-04  0.152E-01    9.06       1.0  T
   3    -41.1101807 -0.666588E-05  0.351E-02    9.07       1.0  T
   4    -41.1101818 -0.112185E-05  0.841E-03    9.07       2.7  T
   5    -41.1101819 -0.777949E-07  0.222E-03    9.07      10.3  T
   6    -41.1101819 -0.362351E-08  0.125E-03    9.07      18.3  T
speedup  0.79
cpu  time for SCC    0.00 s
wall time for SCC    0.00 s
speedup  0.99
cpu  time for grad    0.01 s
wall time for grad    0.01 s
 E :    -40.91325713  G :  0.007339    pred/act E change: -0.218D-03 -0.200D-03
Maxdispl :   0.0882   ||displ|| :   0.1463   Lambda : -0.211D-03
Largest |displ|/coords:  0.0882 (   6)  0.0568 (   7)  0.0555 (   4)
................................................................................
.............................. CYCLE   38 ......................................
................................................................................
   1    -41.1096444 -0.411096E+02  0.110E-01    9.00       0.0  T
   2    -41.1096471 -0.265805E-05  0.822E-02    9.00       1.0  T
   3    -41.1096490 -0.187287E-05  0.142E-02    9.00       1.6  T
   4    -41.1096493 -0.351433E-06  0.397E-03    9.00       5.8  T
   5    -41.1096493 -0.210024E-07  0.114E-03    9.00      20.1  T
   6    -41.1096493 -0.801627E-09  0.686E-04    9.00      33.5  T
speedup  0.83
cpu  time for SCC    0.00 s
wall time for SCC    0.00 s
speedup  1.00
cpu  time for grad    0.01 s
wall time for grad    0.01 s
 E :    -40.91332189  G :  0.008232    pred/act E change: -0.317D-03 -0.648D-04
Maxdispl :   0.0679   ||displ|| :   0.1147   Lambda : -0.148D-03
Largest |displ|/coords:  0.0679 (   1)  0.0452 (   2)  0.0348 (  13)
................................................................................
.............................. CYCLE   39 ......................................
................................................................................
   1    -41.1096779 -0.411097E+02  0.982E-02    9.03       0.0  T
   2    -41.1096797 -0.179333E-05  0.725E-02    9.03       1.0  T
   3    -41.1096812 -0.149495E-05  0.122E-02    9.03       1.9  T
   4    -41.1096813 -0.184764E-06  0.318E-03    9.03       7.2  T
   5    -41.1096814 -0.107008E-07  0.111E-03    9.03      20.7  T
   6    -41.1096814 -0.123595E-08  0.639E-04    9.03      35.9  T
speedup  0.81
cpu  time for SCC    0.00 s
wall time for SCC    0.00 s
speedup  1.00
cpu  time for grad    0.01 s
wall time for grad    0.01 s
 E :    -40.91340728  G :  0.003354    pred/act E change: -0.108D-03 -0.854D-04
Maxdispl :   0.1521   ||displ|| :   0.2658   Lambda : -0.150D-03
Largest |displ|/coords:  0.1521 (   1)  0.1010 (   6)  0.0948 (   4)
................................................................................
.............................. CYCLE   40 ......................................
................................................................................
   1    -41.1080682 -0.411081E+02  0.196E-01    8.99       0.0  T
   2    -41.1080736 -0.537311E-05  0.144E-01    8.98       1.0  T
   3    -41.1080782 -0.462707E-05  0.237E-02    8.98       1.0  T
   4    -41.1080788 -0.588956E-06  0.827E-03    8.98       2.8  T
   5    -41.1080788 -0.590415E-07  0.193E-03    8.98      11.9  T
   6    -41.1080788 -0.235170E-08  0.128E-03    8.98      18.0  T
   7    -41.1080788 -0.145652E-08  0.206E-04    8.98     111.4  T
   8    -41.1080788 -0.116245E-09  0.539E-05    8.98     425.2  T
speedup  0.82
cpu  time for SCC    0.00 s
wall time for SCC    0.00 s
speedup  0.96
cpu  time for grad    0.01 s
wall time for grad    0.01 s
 E :    -40.91348689  G :  0.006429    pred/act E change: -0.748D-04 -0.796D-04
Maxdispl :   0.0671   ||displ|| :   0.1353   Lambda : -0.107D-03
Largest |displ|/coords:  0.0671 (   4)  0.0646 (   5)  0.0480 (   2)
................................................................................
.............................. CYCLE   41 ......................................
................................................................................
   1    -41.1086136 -0.411086E+02  0.974E-02    8.99       0.0  T
   2    -41.1086151 -0.153653E-05  0.718E-02    8.99       1.0  T
   3    -41.1086165 -0.136184E-05  0.122E-02    8.99       1.9  T
   4    -41.1086166 -0.167256E-06  0.456E-03    8.99       5.0  T
   5    -41.1086167 -0.189716E-07  0.110E-03    8.99      20.9  T
   6    -41.1086167 -0.798799E-09  0.733E-04    8.99      31.3  T
speedup  1.05
cpu  time for SCC    0.00 s
wall time for SCC    0.00 s
speedup  0.99
cpu  time for grad    0.01 s
wall time for grad    0.01 s
 E :    -40.91357430  G :  0.005116    pred/act E change: -0.804D-04 -0.874D-04
Maxdispl :   0.1759   ||displ|| :   0.3355   Lambda : -0.228D-03
Largest |displ|/coords:  0.1759 (   4)  0.1607 (   5)  0.1408 (   2)
................................................................................
.............................. CYCLE   42 ......................................
................................................................................
   1    -41.1082298 -0.411082E+02  0.261E-01    9.00       0.0  T
   2    -41.1082385 -0.865460E-05  0.194E-01    9.00       1.0  T
   3    -41.1082473 -0.884022E-05  0.298E-02    8.99       1.0  T
   4    -41.1082482 -0.824714E-06  0.107E-02    8.99       2.2  T
   5    -41.1082483 -0.109140E-06  0.298E-03    8.99       7.7  T
   6    -41.1082483 -0.545855E-08  0.197E-03    8.99      11.6  T
speedup  1.08
cpu  time for SCC    0.00 s
wall time for SCC    0.00 s
speedup  1.00
cpu  time for grad    0.01 s
wall time for grad    0.01 s
 E :    -40.91367059  G :  0.011029    pred/act E change: -0.542D-04 -0.963D-04
Maxdispl :   0.0677   ||displ|| :   0.1217   Lambda : -0.185D-03
Largest |displ|/coords:  0.0677 (   1)  0.0539 (   4)  0.0468 (   6)
................................................................................
.............................. CYCLE   43 ......................................
................................................................................
   1    -41.1109113 -0.411109E+02  0.887E-02    9.04       0.0  T
   2    -41.1109136 -0.229382E-05  0.660E-02    9.04       1.0  T
   3    -41.1109147 -0.112253E-05  0.137E-02    9.04       1.7  T
   4    -41.1109150 -0.328852E-06  0.360E-03    9.04       6.4  T
   5    -41.1109150 -0.184580E-07  0.111E-03    9.05      20.6  T
   6    -41.1109151 -0.768523E-09  0.645E-04    9.05      35.6  T
speedup  1.05
cpu  time for SCC    0.00 s
wall time for SCC    0.00 s
speedup  0.99
cpu  time for grad    0.01 s
wall time for grad    0.01 s
 E :    -40.91372185  G :  0.007917    pred/act E change: -0.127D-03 -0.513D-04
Maxdispl :   0.0447   ||displ|| :   0.1040   Lambda : -0.102D-03
Largest |displ|/coords:  0.0447 (   6)  0.0408 (   1)  0.0401 (   3)
................................................................................
.............................. CYCLE   44 ......................................
................................................................................
   1    -41.1089615 -0.411090E+02  0.827E-02    9.00       0.0  T
   2    -41.1089625 -0.100216E-05  0.618E-02    9.00       1.0  T
   3    -41.1089636 -0.108313E-05  0.900E-03    9.00       2.6  T
   4    -41.1089637 -0.860678E-07  0.237E-03    9.00       9.7  T
   5    -41.1089637 -0.654020E-08  0.888E-04    9.00      25.8  T
speedup  0.97
cpu  time for SCC    0.00 s
wall time for SCC    0.00 s
speedup  1.06
cpu  time for grad    0.01 s
wall time for grad    0.01 s
 E :    -40.91379294  G :  0.005781    pred/act E change: -0.940D-04 -0.711D-04
Maxdispl :   0.0609   ||displ|| :   0.1165   Lambda : -0.114D-03
Largest |displ|/coords:  0.0609 (   5)  0.0527 (   4)  0.0371 (  15)
................................................................................
.............................. CYCLE   45 ......................................
................................................................................
   1    -41.1085832 -0.411086E+02  0.931E-02    9.04       0.0  T
   2    -41.1085846 -0.141495E-05  0.705E-02    9.04       1.0  T
   3    -41.1085863 -0.164725E-05  0.870E-03    9.03       2.6  T
   4    -41.1085864 -0.123241E-06  0.343E-03    9.03       6.7  T
   5    -41.1085864 -0.113179E-07  0.112E-03    9.03      20.4  T
   6    -41.1085864 -0.749807E-09  0.580E-04    9.03      39.5  T
speedup  0.81
cpu  time for SCC    0.00 s
wall time for SCC    0.00 s
speedup  0.99
cpu  time for grad    0.01 s
wall time for grad    0.01 s
 E :    -40.91384259  G :  0.006631    pred/act E change: -0.517D-04 -0.497D-04
Maxdispl :   0.1065   ||displ|| :   0.1792   Lambda : -0.729D-04
Largest |displ|/coords:  0.1065 (   4)  0.0986 (   6)  0.0453 (   5)
................................................................................
.............................. CYCLE   46 ......................................
................................................................................
   1    -41.1072100 -0.411072E+02  0.124E-01    8.98       0.0  T
   2    -41.1072131 -0.310404E-05  0.910E-02    8.98       1.0  T
   3    -41.1072150 -0.185685E-05  0.184E-02    8.99       1.2  T
   4    -41.1072154 -0.433365E-06  0.571E-03    8.99       4.0  T
   5    -41.1072154 -0.256533E-07  0.121E-03    8.99      18.9  T
   6    -41.1072154 -0.113830E-08  0.829E-04    8.99      27.7  T
speedup  1.08
cpu  time for SCC    0.00 s
wall time for SCC    0.00 s
speedup  1.00
cpu  time for grad    0.01 s
wall time for grad    0.01 s
 E :    -40.91388138  G :  0.007690    pred/act E change: -0.577D-04 -0.388D-04
Maxdispl :   0.0471   ||displ|| :   0.0750   Lambda : -0.933D-04
Largest |displ|/coords:  0.0471 (   1)  0.0339 (   6)  0.0265 (   2)
................................................................................
.............................. CYCLE   47 ......................................
................................................................................
   1    -41.1092989 -0.411093E+02  0.583E-02    9.02       0.0  T
   2    -41.1092999 -0.929273E-06  0.434E-02    9.02       1.0  T
   3    -41.1093006 -0.689453E-06  0.760E-03    9.01       3.0  T
   4    -41.1093007 -0.112208E-06  0.204E-03    9.02      11.2  T
   5    -41.1093007 -0.466868E-08  0.849E-04    9.02      27.0  T
speedup  1.21
cpu  time for SCC    0.00 s
wall time for SCC    0.00 s
speedup  1.05
cpu  time for grad    0.01 s
wall time for grad    0.01 s
 E :    -40.91391473  G :  0.004259    pred/act E change: -0.376D-04 -0.333D-04
Maxdispl :   0.0534   ||displ|| :   0.0976   Lambda : -0.631D-04
Largest |displ|/coords:  0.0534 (   5)  0.0450 (   4)  0.0255 (   6)
................................................................................
.............................. CYCLE   48 ......................................
................................................................................
   1    -41.1094632 -0.411095E+02  0.781E-02    9.03       0.0  T
   2    -41.1094643 -0.109232E-05  0.588E-02    9.03       1.0  T
   3    -41.1094655 -0.123807E-05  0.815E-03    9.03       2.8  T
   4    -41.1094656 -0.102591E-06  0.357E-03    9.03       6.4  T
   5    -41.1094657 -0.104963E-07  0.102E-03    9.03      22.5  T
   6    -41.1094657 -0.599151E-09  0.625E-04    9.03      36.7  T
speedup  1.08
cpu  time for SCC    0.00 s
wall time for SCC    0.00 s
speedup  1.00
cpu  time for grad    0.01 s
wall time for grad    0.01 s
 E :    -40.91395691  G :  0.003958    pred/act E change: -0.469D-04 -0.422D-04
Maxdispl :   0.0702   ||displ|| :   0.1393   Lambda : -0.509D-04
Largest |displ|/coords:  0.0702 (   4)  0.0531 (   5)  0.0435 (   6)
................................................................................
.............................. CYCLE   49 ......................................
................................................................................
   1    -41.1090619 -0.411091E+02  0.109E-01    9.04       0.0  T
   2    -41.1090640 -0.210862E-05  0.817E-02    9.04       1.0  T
   3    -41.1090658 -0.182610E-05  0.129E-02    9.04       1.8  T
   4    -41.1090661 -0.269985E-06  0.541E-03    9.04       4.2  T
   5    -41.1090661 -0.201515E-07  0.125E-03    9.03      18.3  T
   6    -41.1090661 -0.805350E-09  0.842E-04    9.03      27.3  T
   7    -41.1090661 -0.505459E-09  0.948E-05    9.04     242.1  T
speedup  0.93
cpu  time for SCC    0.00 s
wall time for SCC    0.00 s
speedup  1.02
cpu  time for grad    0.01 s
wall time for grad    0.01 s
 E :    -40.91398365  G :  0.004974    pred/act E change: -0.319D-04 -0.267D-04
Maxdispl :   0.0231   ||displ|| :   0.0487   Lambda : -0.323D-04
Largest |displ|/coords:  0.0231 (   1)  0.0224 (   6)  0.0171 (   9)
................................................................................
.............................. CYCLE   50 ......................................
................................................................................
   1    -41.1099218 -0.411099E+02  0.420E-02    9.05       0.0  T
   2    -41.1099223 -0.511300E-06  0.315E-02    9.05       1.0  T
   3    -41.1099226 -0.292056E-06  0.548E-03    9.04       4.2  T
   4    -41.1099227 -0.834305E-07  0.201E-03    9.04      11.4  T
   5    -41.1099227 -0.443963E-08  0.519E-04    9.04      44.2  T
speedup  0.97
cpu  time for SCC    0.00 s
wall time for SCC    0.00 s
speedup  0.95
cpu  time for grad    0.01 s
wall time for grad    0.01 s
 E :    -40.91400654  G :  0.003074    pred/act E change: -0.259D-04 -0.229D-04
Maxdispl :   0.0439   ||displ|| :   0.0987   Lambda : -0.281D-04
Largest |displ|/coords:  0.0439 (   6)  0.0364 (   5)  0.0302 (   9)
................................................................................
.............................. CYCLE   51 ......................................
................................................................................
   1    -41.1100451 -0.411100E+02  0.834E-02    9.04       0.0  T
   2    -41.1100467 -0.166462E-05  0.624E-02    9.04       1.0  T
   3    -41.1100475 -0.821888E-06  0.112E-02    9.03       2.0  T
   4    -41.1100478 -0.290640E-06  0.357E-03    9.03       6.4  T
   5    -41.1100478 -0.933309E-08  0.829E-04    9.03      27.7  T
   6    -41.1100478 -0.413955E-09  0.548E-04    9.03      41.8  T
speedup  1.05
cpu  time for SCC    0.00 s
wall time for SCC    0.00 s
speedup  1.08
cpu  time for grad    0.01 s
wall time for grad    0.01 s
 E :    -40.91402183  G :  0.002154    pred/act E change: -0.162D-04 -0.153D-04
Maxdispl :   0.0181   ||displ|| :   0.0424   Lambda : -0.153D-04
Largest |displ|/coords:  0.0181 (   9)  0.0168 (   1)  0.0165 (   2)
................................................................................
.............................. CYCLE   52 ......................................
................................................................................
   1    -41.1106587 -0.411107E+02  0.369E-02    9.06       0.0  T
   2    -41.1106591 -0.320321E-06  0.276E-02    9.06       1.0  T
   3    -41.1106593 -0.267962E-06  0.491E-03    9.06       4.7  T
   4    -41.1106594 -0.404143E-07  0.210E-03    9.06      10.9  T
   5    -41.1106594 -0.322056E-08  0.448E-04    9.06      51.2  T
   6    -41.1106594 -0.169557E-09  0.291E-04    9.06      79.0  T
speedup  1.05
cpu  time for SCC    0.00 s
wall time for SCC    0.00 s
speedup  0.94
cpu  time for grad    0.01 s
wall time for grad    0.01 s
 E :    -40.91403061  G :  0.001893    pred/act E change: -0.142D-04 -0.878D-05
Maxdispl :   0.0264   ||displ|| :   0.0708   Lambda : -0.153D-04
Largest |displ|/coords:  0.0264 (   5)  0.0250 (   9)  0.0234 (  11)

generating ANC from model Hessian ...
 Shifting diagonal of input Hessian by   4.968286524301787E-003
 Lowest  eigenvalues of input Hessian
   -0.000000   -0.000000   -0.000000   -0.000000   -0.000000    0.000000
    0.005000    0.005962    0.006210    0.007811    0.009014    0.010291
    0.011715    0.012293    0.014691    0.015383    0.018793    0.022421
 Highest eigenvalues
    1.378712    1.387578    1.412297    2.528136    3.374385    3.731768
 
cpu  time for ANC gen    0.01 s
wall time for ANC gen    0.01 s
................................................................................
.............................. CYCLE   53 ......................................
................................................................................
   1    -41.1105401 -0.411105E+02  0.631E-02    9.06       0.0  T
   2    -41.1105410 -0.890706E-06  0.474E-02    9.05       1.0  T
   3    -41.1105416 -0.604447E-06  0.782E-03    9.05       2.9  T
   4    -41.1105417 -0.144824E-06  0.280E-03    9.05       8.2  T
   5    -41.1105417 -0.596117E-08  0.719E-04    9.05      31.9  T
   6    -41.1105417 -0.323126E-09  0.454E-04    9.05      50.5  T
speedup  0.79
cpu  time for SCC    0.00 s
wall time for SCC    0.00 s
speedup  0.96
cpu  time for grad    0.01 s
wall time for grad    0.01 s
 E :    -40.91404081  G :  0.002107    pred/act E change:  0.000D+00 -0.102D-04
Maxdispl :   0.0250   ||displ|| :   0.0379   Lambda : -0.198D-04
Largest |displ|/coords:  0.0250 (   4)  0.0150 (   7)  0.0100 (   8)
................................................................................
.............................. CYCLE   54 ......................................
................................................................................
   1    -41.1105152 -0.411105E+02  0.321E-02    9.04       0.0  T
   2    -41.1105154 -0.123734E-06  0.240E-02    9.04       1.0  T
   3    -41.1105155 -0.161049E-06  0.309E-03    9.04       7.4  T
   4    -41.1105155 -0.784969E-08  0.857E-04    9.04      26.8  T
   5    -41.1105155 -0.992863E-09  0.359E-04    9.04      63.9  T
speedup  1.00
cpu  time for SCC    0.00 s
wall time for SCC    0.00 s
speedup  1.05
cpu  time for grad    0.01 s
wall time for grad    0.01 s
 E :    -40.91405557  G :  0.001236    pred/act E change:  0.000D+00 -0.148D-04
Maxdispl :   0.0635   ||displ|| :   0.1047   Lambda : -0.394D-04
Largest |displ|/coords:  0.0635 (   4)  0.0376 (   7)  0.0343 (   6)
................................................................................
.............................. CYCLE   55 ......................................
................................................................................
   1    -41.1101843 -0.411102E+02  0.835E-02    9.01       0.0  T
   2    -41.1101850 -0.709293E-06  0.619E-02    9.01       1.0  T
   3    -41.1101859 -0.852774E-06  0.887E-03    9.01       2.6  T
   4    -41.1101859 -0.536231E-07  0.198E-03    9.01      11.6  T
   5    -41.1101859 -0.501036E-08  0.933E-04    9.01      24.6  T
   6    -41.1101859 -0.755037E-09  0.491E-04    9.01      46.7  T
speedup  0.83
cpu  time for SCC    0.00 s
wall time for SCC    0.00 s
speedup  0.98
cpu  time for grad    0.01 s
wall time for grad    0.01 s
 E :    -40.91408160  G :  0.001860    pred/act E change: -0.989D-05 -0.260D-04
Maxdispl :   0.0770   ||displ|| :   0.1229   Lambda : -0.323D-04
Largest |displ|/coords:  0.0770 (   4)  0.0534 (   7)  0.0489 (  12)
................................................................................
.............................. CYCLE   56 ......................................
................................................................................
   1    -41.1095567 -0.411096E+02  0.100E-01    8.98       0.0  T
   2    -41.1095577 -0.985175E-06  0.739E-02    8.98       1.0  T
   3    -41.1095589 -0.118114E-05  0.113E-02    8.98       2.0  T
   4    -41.1095589 -0.796694E-07  0.250E-03    8.98       9.2  T
   5    -41.1095590 -0.749222E-08  0.117E-03    8.98      19.5  T
   6    -41.1095590 -0.114635E-08  0.609E-04    8.98      37.7  T
   7    -41.1095590 -0.347463E-09  0.763E-05    8.98     300.7  T
speedup  1.14
cpu  time for SCC    0.00 s
wall time for SCC    0.00 s
speedup  1.00
cpu  time for grad    0.01 s
wall time for grad    0.01 s
 E :    -40.91410508  G :  0.002966    pred/act E change: -0.199D-04 -0.235D-04
Maxdispl :   0.0865   ||displ|| :   0.1497   Lambda : -0.349D-04
Largest |displ|/coords:  0.0865 (   4)  0.0694 (  12)  0.0580 (   7)
................................................................................
.............................. CYCLE   57 ......................................
................................................................................
   1    -41.1088471 -0.411088E+02  0.122E-01    8.96       0.0  T
   2    -41.1088486 -0.148275E-05  0.904E-02    8.96       1.0  T
   3    -41.1088504 -0.178470E-05  0.138E-02    8.96       1.7  T
   4    -41.1088505 -0.122435E-06  0.328E-03    8.95       7.0  T
   5    -41.1088505 -0.120561E-07  0.147E-03    8.95      15.6  T
   6    -41.1088505 -0.167801E-08  0.739E-04    8.95      31.1  T
   7    -41.1088505 -0.569308E-09  0.134E-04    8.95     170.6  T
speedup  1.14
cpu  time for SCC    0.00 s
wall time for SCC    0.00 s
speedup  1.01
cpu  time for grad    0.01 s
wall time for grad    0.01 s
 E :    -40.91412328  G :  0.004810    pred/act E change: -0.164D-04 -0.182D-04
Maxdispl :   0.0186   ||displ|| :   0.0392   Lambda : -0.291D-04
Largest |displ|/coords:  0.0186 (  12)  0.0168 (  10)  0.0167 (   2)
................................................................................
.............................. CYCLE   58 ......................................
................................................................................
   1    -41.1096209 -0.411096E+02  0.314E-02    8.98       0.0  T
   2    -41.1096211 -0.217877E-06  0.233E-02    8.98       1.0  T
   3    -41.1096213 -0.164732E-06  0.392E-03    8.98       5.9  T
   4    -41.1096213 -0.262477E-07  0.142E-03    8.98      16.1  T
   5    -41.1096213 -0.212537E-08  0.347E-04    8.98      66.1  T
speedup  0.97
cpu  time for SCC    0.00 s
wall time for SCC    0.00 s
speedup  1.07
cpu  time for grad    0.01 s
wall time for grad    0.01 s
 E :    -40.91414309  G :  0.002848    pred/act E change: -0.178D-04 -0.198D-04
Maxdispl :   0.0377   ||displ|| :   0.0728   Lambda : -0.226D-04
Largest |displ|/coords:  0.0377 (  10)  0.0344 (  12)  0.0326 (   4)
................................................................................
.............................. CYCLE   59 ......................................
................................................................................
   1    -41.1101128 -0.411101E+02  0.582E-02    9.02       0.0  T
   2    -41.1101132 -0.460103E-06  0.433E-02    9.02       1.0  T
   3    -41.1101137 -0.404257E-06  0.596E-03    9.01       3.9  T
   4    -41.1101137 -0.584041E-07  0.246E-03    9.01       9.3  T
   5    -41.1101137 -0.528782E-08  0.687E-04    9.01      33.4  T
   6    -41.1101137 -0.392099E-09  0.419E-04    9.01      54.8  T
speedup  0.83
cpu  time for SCC    0.00 s
wall time for SCC    0.00 s
speedup  0.98
cpu  time for grad    0.01 s
wall time for grad    0.01 s
 E :    -40.91415872  G :  0.002130    pred/act E change: -0.146D-04 -0.156D-04
Maxdispl :   0.0411   ||displ|| :   0.0856   Lambda : -0.161D-04
Largest |displ|/coords:  0.0411 (  10)  0.0375 (   7)  0.0368 (   4)
................................................................................
.............................. CYCLE   60 ......................................
................................................................................
   1    -41.1102046 -0.411102E+02  0.712E-02    9.04       0.0  T
   2    -41.1102051 -0.533789E-06  0.533E-02    9.04       1.0  T
   3    -41.1102057 -0.541299E-06  0.628E-03    9.04       3.7  T
   4    -41.1102057 -0.607807E-07  0.280E-03    9.04       8.2  T
   5    -41.1102057 -0.622195E-08  0.784E-04    9.04      29.3  T
   6    -41.1102057 -0.418176E-09  0.481E-04    9.04      47.6  T
speedup  1.08
cpu  time for SCC    0.00 s
wall time for SCC    0.00 s
speedup  0.97
cpu  time for grad    0.01 s
wall time for grad    0.01 s
 E :    -40.91416866  G :  0.002300    pred/act E change: -0.113D-04 -0.994D-05
Maxdispl :   0.0206   ||displ|| :   0.0305   Lambda : -0.121D-04
Largest |displ|/coords:  0.0206 (  10)  0.0091 (   5)  0.0083 (   4)
................................................................................
.............................. CYCLE   61 ......................................
................................................................................
   1    -41.1107722 -0.411108E+02  0.272E-02    9.07       0.0  T
   2    -41.1107724 -0.244118E-06  0.204E-02    9.07       1.1  T
   3    -41.1107725 -0.100568E-06  0.340E-03    9.06       6.7  T
   4    -41.1107725 -0.431917E-07  0.146E-03    9.07      15.7  T
   5    -41.1107726 -0.268086E-08  0.357E-04    9.07      64.3  T
   6    -41.1107726 -0.133404E-09  0.202E-04    9.07     113.6  T
speedup  1.03
cpu  time for SCC    0.00 s
wall time for SCC    0.00 s
speedup  1.06
cpu  time for grad    0.01 s
wall time for grad    0.01 s
 E :    -40.91417301  G :  0.001700    pred/act E change: -0.813D-05 -0.435D-05
Maxdispl :   0.0254   ||displ|| :   0.0537   Lambda : -0.765D-05
Largest |displ|/coords:  0.0254 (   4)  0.0245 (   7)  0.0228 (  12)
................................................................................
.............................. CYCLE   62 ......................................
................................................................................
   1    -41.1102936 -0.411103E+02  0.469E-02    9.05       0.0  T
   2    -41.1102938 -0.193821E-06  0.349E-02    9.05       1.0  T
   3    -41.1102941 -0.231417E-06  0.436E-03    9.05       5.3  T
   4    -41.1102941 -0.159665E-07  0.149E-03    9.05      15.4  T
   5    -41.1102941 -0.236201E-08  0.507E-04    9.05      45.3  T
   6    -41.1102941 -0.165855E-09  0.287E-04    9.05      80.0  T
speedup  1.05
cpu  time for SCC    0.00 s
wall time for SCC    0.00 s
speedup  0.96
cpu  time for grad    0.01 s
wall time for grad    0.01 s
 E :    -40.91417751  G :  0.001550    pred/act E change: -0.606D-05 -0.450D-05
Maxdispl :   0.0064   ||displ|| :   0.0129   Lambda : -0.489D-05
Largest |displ|/coords:  0.0064 (   1)  0.0058 (   4)  0.0053 (   7)
................................................................................
.............................. CYCLE   63 ......................................
................................................................................
   1    -41.1102024 -0.411102E+02  0.944E-03    9.04       0.0  T
   2    -41.1102025 -0.459933E-07  0.704E-03    9.04       3.3  T
   3    -41.1102025 -0.194351E-07  0.153E-03    9.04      15.0  T
   4    -41.1102025 -0.603571E-08  0.560E-04    9.04      41.0  T
   5    -41.1102025 -0.495049E-09  0.132E-04    9.04     174.3  T
speedup  0.97
cpu  time for SCC    0.00 s
wall time for SCC    0.00 s
speedup  1.03
cpu  time for grad    0.01 s
wall time for grad    0.01 s
 E :    -40.91418084  G :  0.000991    pred/act E change: -0.384D-05 -0.334D-05
Maxdispl :   0.0125   ||displ|| :   0.0267   Lambda : -0.464D-05
Largest |displ|/coords:  0.0125 (   7)  0.0122 (  10)  0.0086 (   8)
................................................................................
.............................. CYCLE   64 ......................................
................................................................................
   1    -41.1101713 -0.411102E+02  0.252E-02    9.03       0.0  T
   2    -41.1101713 -0.916678E-07  0.189E-02    9.03       1.2  T
   3    -41.1101714 -0.578202E-07  0.230E-03    9.03      10.0  T
   4    -41.1101714 -0.158139E-07  0.818E-04    9.03      28.0  T
   5    -41.1101714 -0.723865E-09  0.244E-04    9.03      94.0  T
speedup  0.97
cpu  time for SCC    0.00 s
wall time for SCC    0.00 s
speedup  0.92
cpu  time for grad    0.01 s
wall time for grad    0.01 s
 E :    -40.91418422  G :  0.001037    pred/act E change: -0.244D-05 -0.338D-05
Maxdispl :   0.0203   ||displ|| :   0.0416   Lambda : -0.538D-05
Largest |displ|/coords:  0.0203 (  10)  0.0191 (   7)  0.0182 (   4)
................................................................................
.............................. CYCLE   65 ......................................
................................................................................
   1    -41.1102620 -0.411103E+02  0.356E-02    9.03       0.0  T
   2    -41.1102622 -0.199734E-06  0.267E-02    9.03       1.0  T
   3    -41.1102623 -0.125718E-06  0.391E-03    9.03       5.9  T
   4    -41.1102624 -0.342917E-07  0.123E-03    9.03      18.6  T
   5    -41.1102624 -0.134686E-08  0.375E-04    9.03      61.2  T
   6    -41.1102624 -0.109097E-09  0.220E-04    9.03     104.5  T
speedup  1.08
cpu  time for SCC    0.00 s
wall time for SCC    0.00 s
speedup  1.08
cpu  time for grad    0.01 s
wall time for grad    0.01 s
 E :    -40.91418790  G :  0.001098    pred/act E change: -0.232D-05 -0.368D-05
Maxdispl :   0.0228   ||displ|| :   0.0468   Lambda : -0.487D-05
Largest |displ|/coords:  0.0228 (  10)  0.0211 (   7)  0.0192 (   4)
................................................................................
.............................. CYCLE   66 ......................................
................................................................................
   1    -41.1103346 -0.411103E+02  0.431E-02    9.04       0.0  T
   2    -41.1103349 -0.253663E-06  0.324E-02    9.04       1.0  T
   3    -41.1103350 -0.174893E-06  0.428E-03    9.04       5.4  T
   4    -41.1103351 -0.415576E-07  0.141E-03    9.04      16.2  T
   5    -41.1103351 -0.124410E-08  0.370E-04    9.04      62.0  T
   6    -41.1103351 -0.787708E-10  0.235E-04    9.04      97.6  T
speedup  1.08
cpu  time for SCC    0.00 s
wall time for SCC    0.00 s
speedup  0.97
cpu  time for grad    0.01 s
wall time for grad    0.01 s
 E :    -40.91419102  G :  0.001408    pred/act E change: -0.270D-05 -0.312D-05
Maxdispl :   0.0218   ||displ|| :   0.0368   Lambda : -0.409D-05
Largest |displ|/coords:  0.0218 (   4)  0.0154 (   8)  0.0129 (   5)
[...]
   2    -41.1107046 -0.219191E-07  0.800E-03    9.04       2.9  T
   3    -41.1107046 -0.166999E-07  0.118E-03    9.04      19.4  T
   4    -41.1107047 -0.267096E-08  0.497E-04    9.04      46.2  T
   5    -41.1107047 -0.157286E-09  0.620E-05    9.04     370.2  T
speedup  0.94
cpu  time for SCC    0.00 s
wall time for SCC    0.00 s
speedup  1.02
cpu  time for grad    0.01 s
wall time for grad    0.01 s
 E :    -40.91439460  G :  0.000447    pred/act E change: -0.345D-06 -0.496D-06
Maxdispl :   0.0113   ||displ|| :   0.0194   Lambda : -0.798D-06
Largest |displ|/coords:  0.0113 (   5)  0.0077 (   3)  0.0066 (   1)
................................................................................
.............................. CYCLE  121 ......................................
................................................................................
   1    -41.1107264 -0.411107E+02  0.139E-02    9.04       0.0  T
   2    -41.1107265 -0.295981E-07  0.104E-02    9.04       2.2  T
   3    -41.1107265 -0.287984E-07  0.138E-03    9.04      16.6  T
   4    -41.1107265 -0.275676E-08  0.518E-04    9.04      44.3  T
   5    -41.1107265 -0.196010E-09  0.859E-05    9.04     267.1  T
speedup  0.97
cpu  time for SCC    0.00 s
wall time for SCC    0.00 s
speedup  1.03
cpu  time for grad    0.01 s
wall time for grad    0.01 s
 E :    -40.91439513  G :  0.000474    pred/act E change: -0.365D-06 -0.532D-06
Maxdispl :   0.0072   ||displ|| :   0.0130   Lambda : -0.667D-06
Largest |displ|/coords:  0.0072 (   5)  0.0046 (   2)  0.0046 (   3)
................................................................................
.............................. CYCLE  122 ......................................
................................................................................
   1    -41.1107371 -0.411107E+02  0.105E-02    9.04       0.0  T
   2    -41.1107371 -0.157852E-07  0.790E-03    9.04       2.9  T
   3    -41.1107371 -0.143558E-07  0.949E-04    9.04      24.2  T
   4    -41.1107371 -0.175832E-08  0.331E-04    9.04      69.4  T
speedup  0.80
cpu  time for SCC    0.00 s
wall time for SCC    0.00 s
speedup  0.99
cpu  time for grad    0.01 s
wall time for grad    0.01 s
 E :    -40.91439564  G :  0.000416    pred/act E change: -0.399D-06 -0.507D-06
Maxdispl :   0.0058   ||displ|| :   0.0119   Lambda : -0.852D-06
Largest |displ|/coords:  0.0058 (  24)  0.0048 (  22)  0.0045 (   3)
................................................................................
.............................. CYCLE  123 ......................................
................................................................................
   1    -41.1107293 -0.411107E+02  0.125E-02    9.04       0.0  T
   2    -41.1107293 -0.209922E-07  0.948E-03    9.04       2.4  T
   3    -41.1107293 -0.159996E-07  0.106E-03    9.04      21.7  T
   4    -41.1107293 -0.309076E-08  0.341E-04    9.04      67.3  T
   5    -41.1107293 -0.102993E-09  0.763E-05    9.04     300.7  T
speedup  0.94
cpu  time for SCC    0.00 s
wall time for SCC    0.00 s
speedup  1.02
cpu  time for grad    0.01 s
wall time for grad    0.01 s
 E :    -40.91439627  G :  0.000366    pred/act E change: -0.333D-06 -0.636D-06
Maxdispl :   0.0073   ||displ|| :   0.0133   Lambda : -0.807D-06
Largest |displ|/coords:  0.0073 (  24)  0.0057 (  22)  0.0045 (   1)
................................................................................
.............................. CYCLE  124 ......................................
................................................................................
   1    -41.1107000 -0.411107E+02  0.153E-02    9.03       0.0  T
   2    -41.1107001 -0.282677E-07  0.116E-02    9.03       2.0  T
   3    -41.1107001 -0.207884E-07  0.133E-03    9.03      17.3  T
   4    -41.1107001 -0.429207E-08  0.414E-04    9.03      55.4  T
   5    -41.1107001 -0.112081E-09  0.872E-05    9.03     263.0  T
speedup  0.97
cpu  time for SCC    0.00 s
wall time for SCC    0.00 s
speedup  1.03
cpu  time for grad    0.01 s
wall time for grad    0.01 s
 E :    -40.91439686  G :  0.000402    pred/act E change: -0.426D-06 -0.592D-06
Maxdispl :   0.0080   ||displ|| :   0.0145   Lambda : -0.875D-06
Largest |displ|/coords:  0.0080 (  24)  0.0061 (  22)  0.0045 (   4)
................................................................................
.............................. CYCLE  125 ......................................
................................................................................
   1    -41.1106827 -0.411107E+02  0.165E-02    9.03       0.0  T
   2    -41.1106827 -0.292038E-07  0.124E-02    9.03       1.8  T
   3    -41.1106828 -0.185922E-07  0.147E-03    9.03      15.6  T
   4    -41.1106828 -0.494806E-08  0.414E-04    9.03      55.4  T
   5    -41.1106828 -0.847891E-10  0.883E-05    9.03     259.9  T
speedup  0.97
cpu  time for SCC    0.00 s
wall time for SCC    0.00 s
speedup  0.92
cpu  time for grad    0.01 s
wall time for grad    0.01 s
 E :    -40.91439752  G :  0.000510    pred/act E change: -0.404D-06 -0.660D-06
Maxdispl :   0.0092   ||displ|| :   0.0195   Lambda : -0.108D-05
Largest |displ|/coords:  0.0092 (  24)  0.0070 (  22)  0.0068 (   4)
................................................................................
.............................. CYCLE  126 ......................................
................................................................................
   1    -41.1106920 -0.411107E+02  0.193E-02    9.03       0.0  T
   2    -41.1106920 -0.397059E-07  0.144E-02    9.03       1.6  T
   3    -41.1106920 -0.211732E-07  0.185E-03    9.03      12.4  T
   4    -41.1106920 -0.717284E-08  0.485E-04    9.03      47.3  T
   5    -41.1106920 -0.125681E-09  0.104E-04    9.03     221.1  T
speedup  0.94
cpu  time for SCC    0.00 s
wall time for SCC    0.00 s
speedup  0.90
cpu  time for grad    0.01 s
wall time for grad    0.01 s
 E :    -40.91439831  G :  0.000630    pred/act E change: -0.438D-06 -0.786D-06
Maxdispl :   0.0088   ||displ|| :   0.0197   Lambda : -0.101D-05
Largest |displ|/coords:  0.0088 (   5)  0.0080 (  24)  0.0073 (   2)
................................................................................
.............................. CYCLE  127 ......................................
................................................................................
   1    -41.1107309 -0.411107E+02  0.175E-02    9.04       0.0  T
   2    -41.1107309 -0.411781E-07  0.130E-02    9.04       1.8  T
   3    -41.1107310 -0.169541E-07  0.204E-03    9.03      11.3  T
   4    -41.1107310 -0.741657E-08  0.517E-04    9.03      44.4  T
   5    -41.1107310 -0.194518E-09  0.994E-05    9.03     230.8  T
speedup  1.29
cpu  time for SCC    0.00 s
wall time for SCC    0.00 s
speedup  1.03
cpu  time for grad    0.01 s
wall time for grad    0.01 s
 E :    -40.91439904  G :  0.000614    pred/act E change: -0.542D-06 -0.733D-06
Maxdispl :   0.0068   ||displ|| :   0.0160   Lambda : -0.829D-06
Largest |displ|/coords:  0.0068 (   5)  0.0066 (  24)  0.0051 (   2)
................................................................................
.............................. CYCLE  128 ......................................
................................................................................
   1    -41.1107774 -0.411108E+02  0.150E-02    9.04       0.0  T
   2    -41.1107774 -0.405244E-07  0.111E-02    9.04       2.1  T
   3    -41.1107775 -0.149788E-07  0.212E-03    9.04      10.8  T
   4    -41.1107775 -0.646023E-08  0.593E-04    9.04      38.7  T
   5    -41.1107775 -0.233435E-09  0.915E-05    9.04     250.8  T
speedup  0.94
cpu  time for SCC    0.00 s
wall time for SCC    0.00 s
speedup  1.02
cpu  time for grad    0.01 s
wall time for grad    0.01 s
 E :    -40.91439962  G :  0.000451    pred/act E change: -0.507D-06 -0.576D-06
Maxdispl :   0.0043   ||displ|| :   0.0091   Lambda : -0.450D-06
Largest |displ|/coords:  0.0043 (  24)  0.0040 (  14)  0.0033 (  22)
................................................................................
.............................. CYCLE  129 ......................................
................................................................................
   1    -41.1107979 -0.411108E+02  0.102E-02    9.04       0.0  T
   2    -41.1107979 -0.208498E-07  0.742E-03    9.04       3.1  T
   3    -41.1107979 -0.850731E-08  0.160E-03    9.04      14.3  T
   4    -41.1107979 -0.277181E-08  0.504E-04    9.04      45.5  T
   5    -41.1107979 -0.143579E-09  0.638E-05    9.04     359.3  T
speedup  0.94
cpu  time for SCC    0.00 s
wall time for SCC    0.00 s
speedup  1.03
cpu  time for grad    0.01 s
wall time for grad    0.01 s
 E :    -40.91439992  G :  0.000270    pred/act E change: -0.415D-06 -0.306D-06
Maxdispl :   0.0025   ||displ|| :   0.0050   Lambda : -0.199D-06
Largest |displ|/coords:  0.0025 (  14)  0.0024 (  24)  0.0018 (  22)
................................................................................
.............................. CYCLE  130 ......................................
................................................................................
   1    -41.1107932 -0.411108E+02  0.597E-03    9.04       0.0  T
   2    -41.1107932 -0.705183E-08  0.433E-03    9.04       5.3  T
   3    -41.1107932 -0.357242E-08  0.951E-04    9.04      24.1  T
   4    -41.1107932 -0.826347E-09  0.319E-04    9.04      71.9  T
speedup  1.20
cpu  time for SCC    0.00 s
wall time for SCC    0.00 s
speedup  0.99
cpu  time for grad    0.01 s
wall time for grad    0.01 s
 E :    -40.91440006  G :  0.000163    pred/act E change: -0.225D-06 -0.133D-06
Maxdispl :   0.0013   ||displ|| :   0.0025   Lambda : -0.792D-07
Largest |displ|/coords:  0.0013 (   2)  0.0010 (  14)  0.0008 (   1)
................................................................................
.............................. CYCLE  131 ......................................
................................................................................
   1    -41.1107811 -0.411108E+02  0.234E-03    9.04       0.0  T
   2    -41.1107811 -0.153094E-08  0.167E-03    9.04      13.7  T
   3    -41.1107811 -0.850612E-09  0.398E-04    9.04      57.7  T
   4    -41.1107811 -0.145384E-09  0.138E-04    9.04     166.0  T
speedup  1.20
cpu  time for SCC    0.00 s
wall time for SCC    0.00 s
speedup  0.99
cpu  time for grad    0.01 s
wall time for grad    0.01 s
 E :    -40.91440011  G :  0.000124    pred/act E change: -0.993D-07 -0.555D-07
Maxdispl :   0.0014   ||displ|| :   0.0029   Lambda : -0.510D-07
Largest |displ|/coords:  0.0014 (  24)  0.0012 (   9)  0.0010 (  14)

   *** GEOMETRY OPTIMIZATION CONVERGED AFTER 131 ITERATIONS ***

------------------------------------------------------------------------
 total energy gain (kcal):     -0.0085
------------------------------------------------------------------------
================
 final structure:
================
$coord
       -0.27937417218136        3.01307135646842        0.98596984159035      S 
       -0.81680710082946        4.54859264293351       -1.17937950135390      O 
       -2.24763599456223        1.22390318481164        1.69510780874668      O 
        2.17399395728708        1.69700125466501        0.82431276128279      O 
       -0.02419327369412        4.86893737056697        3.33226693214214      O 
        0.57583362528695        6.43531291082992        2.67386141657416      H 
        1.48012210516928       -1.54790610870925       -3.15437151396297      O 
        2.11288049461309       -0.22226846987191       -2.05400077806087      H 
       -0.17245782531756       -0.93530268988654       -3.73876389341662      H 
        0.82610155978087       -5.18173498907170       -0.01079705289299      O 
        2.27269588453829       -6.27186663526280       -0.08128123254586      H 
        1.02089862946871       -3.92028528600930       -1.43756642849817      H 
       -3.03680725382218        0.67651677470911       -3.61194402460707      O 
       -3.99330971084714        0.15797250700523       -2.15656282285673      H 
       -2.40571298236685        2.34864377535927       -3.18594417763174      H 
        0.77319289854534       -1.91550160860480        3.39284446815459      O 
       -0.89298847555820       -0.97572207861965        3.09152728595403      H 
        0.76840767410183       -3.46626298523816        2.10240780519769      H 
        1.86515994145840       -0.53310088829948        2.51231310619356      H 
$end
 
 Bond Distances (Angstroems)
 ---------------------------
S1-O2=1.4332         S1-O3=1.4567         S1-O4=1.4757         S1-O5=1.5888         O2-S1=1.4332         O3-S1=1.4567         
O4-S1=1.4757         O5-S1=1.5888         O5-H6=0.9536         H6-O5=0.9536         O7-H8=0.9712         O7-H9=0.9826         
H8-O7=0.9712         H9-O7=0.9826         O10-H11=0.9593       O10-H12=1.0130       H11-O10=0.9593       H12-O10=1.0130       
O13-H14=0.9616       O13-H15=0.9723       H14-O13=0.9616       H15-O13=0.9723       O16-H17=1.0248       O16-H18=1.0676       
O16-H19=1.0422       H17-O16=1.0248       H18-O16=1.0676       H19-O16=1.0422       
 O  H  Rav=0.9948 sigma=0.0375  Rmin=0.9536  Rmax=1.0676    10
 S  O  Rav=1.4886 sigma=0.0598  Rmin=1.4332  Rmax=1.5888     4
 
 selected bond angles (degree)
 --------------------
O3-S1-O2=115.63                O4-S1-O2=113.31                O4-S1-O3=109.71                O5-S1-O2=106.93                
O5-S1-O3=105.14                O5-S1-O4=105.20                H6-O5-S1=106.26                H9-O7-H8=104.91                
H12-O10-H11=106.62             
 
 selected dihedral angles (degree)
 ---------------------------------
H6-O5-S1-O2=330.64            H6-O5-S1-O3=207.22            H6-O5-S1-O4= 91.40            
 
 CMA Distance (Angstroems)
 ---------------------------
R(CMA):  2.8553

========================================================================
 FINAL SINGLEPOINT CALCULATION ON OPTIMIZED GEOMETRY
========================================================================

 Ncao       : 52
 Nao        : 51
 Nshell     : 29
 Nel        : 64
 T(el)      :   300.0
 intcut     :    25.0
 scfconv/Eh :  0.100E-05
   qconv/e  :  0.100E-03
 intneglect :  0.100E-07
 broydamp   :      0.250
 iter      E             dE          RMSdq      gap      omega  full diag
   1    -41.1107811 -0.411108E+02  0.515E-05    9.04       0.0  T
   2    -41.1107811 -0.119371E-11  0.330E-05    9.04     695.2  T
   3    -41.1107811 -0.490274E-12  0.574E-06    9.04    4000.0  T
speedup  1.11
cpu  time for SCC    0.00 s
wall time for SCC    0.00 s

   *** convergence criteria satisfied after 3 iterations ***

          eigenvalues
 #    :          20         21         22         23         24         25         26         27
 occ. :        2.000      2.000      2.000      2.000      2.000      2.000      2.000      2.000
 eps  :       -14.389    -14.229    -13.975    -13.735    -13.086    -13.062    -12.860    -12.717
 #    :          28         29         30         31         32         33         34         35
 occ. :        2.000      2.000      2.000      2.000      2.000      0.000      0.000      0.000
 eps  :       -12.595    -12.510    -12.386    -12.207    -11.961     -2.923     -0.948     -0.591
 #    :          36         37         38         39         40         41         42         43
 occ. :        0.000      0.000      0.000      0.000      0.000      0.000      0.000      0.000
 eps  :         0.425      0.640      1.883      2.824      3.983      4.143      5.068      6.396


   #   Z            q   n(s)   n(p)   n(d)      C6AA      α(0)
   1  16 S      1.692  1.585  1.778  0.945    88.951    15.874
   2   8 O     -0.708  1.765  4.943  0.000    28.934     7.212
   3   8 O     -0.730  1.767  4.963  0.000    29.530     7.286
   4   8 O     -0.754  1.779  4.976  0.000    30.218     7.371
   5   8 O     -0.593  1.749  4.843  0.000    24.985     6.748
   6   1 H      0.350  0.650  0.000  0.000     0.583     1.197
   7   8 O     -0.621  1.751  4.871  0.000    25.696     6.842
   8   1 H      0.308  0.692  0.000  0.000     0.698     1.313
   9   1 H      0.330  0.670  0.000  0.000     0.639     1.256
  10   8 O     -0.600  1.751  4.848  0.000    25.147     6.770
  11   1 H      0.301  0.699  0.000  0.000     0.719     1.332
  12   1 H      0.355  0.645  0.000  0.000     0.577     1.194
  13   8 O     -0.602  1.738  4.863  0.000    25.225     6.779
  14   1 H      0.298  0.702  0.000  0.000     0.727     1.339
  15   1 H      0.313  0.687  0.000  0.000     0.683     1.298
  16   8 O     -0.496  1.722  4.773  0.000    22.736     6.440
  17   1 H      0.381  0.619  0.000  0.000     0.521     1.134
  18   1 H      0.396  0.604  0.000  0.000     0.488     1.096
  19   1 H      0.380  0.620  0.000  0.000     0.521     1.134

 Mol. C6AA /au·bohr⁶  :       3381.941424
 Mol. C8AA /au·bohr⁸  :      76551.875105
 Mol. α(0) /au        :         83.613646

 
 Wiberg/Mayer (AO) data. WBOs > 0.1 written file <wbo>
 largest (>0.05) Wiberg bond orders for each atom
           total WBO             WBO to atom ...
     1  S   4.840    O    2 1.396    O    3 1.305    O    4 1.218    O    5 0.890
     2  O   1.755    S    1 1.396    O    3 0.108    O    4 0.104    O    5 0.082
     3  O   1.752    S    1 1.305    H   17 0.112    O    2 0.108    O    4 0.108    O    5 0.063
     4  O   1.746    S    1 1.218    H   19 0.144    O    3 0.108    O    2 0.104    O    5 0.070
     5  O   1.969    S    1 0.890    H    6 0.861    O    2 0.082    O    4 0.070    O    3 0.063
     6  H   0.878    O    5 0.861
     7  O   1.916    H    8 0.867    H    9 0.828    H   12 0.120
     8  H   0.905    O    7 0.867
     9  H   0.891    O    7 0.828    O   13 0.060
    10  O   1.979    H   11 0.905    H   12 0.753    H   18 0.200    O   16 0.066
    11  H   0.910    O   10 0.905
    12  H   0.874    O   10 0.753    O    7 0.120
    13  O   1.879    H   14 0.903    H   15 0.860    H    9 0.060
    14  H   0.911    O   13 0.903
    15  H   0.902    O   13 0.860
    16  O   2.246    H   17 0.734    H   19 0.701    H   18 0.640    O   10 0.066
    17  H   0.855    O   16 0.734    O    3 0.112
    18  H   0.843    O   16 0.640    O   10 0.200
    19  H   0.855    O   16 0.701    O    4 0.144
 MOs/occ written to file <molden.input>
 
molecular dipole:
                 x           y           z       tot (Debye)
 q only:        0.720      -1.142       0.990
   full:        0.791      -0.395       1.089       3.566
molecular quadrupole (traceless):
                xx          xy          yy          xz          yz          zz
 q only:       -1.347      -1.646       7.802       0.764       1.103      -6.455
  q+dip:       -0.282      -2.322      11.228      -0.034       2.756     -10.946
   full:       -0.627      -2.238      11.714       0.003       2.885     -11.087

SCC energy    :     -41.1107811
rep           :       0.1963026
ES            :       0.1994192
AES           :      -0.0537363
AXC           :      -0.0105226
disp          :      -0.0137512
XB            :       0.0000000
fix           :       0.0000000
total E       :     -40.9144001
atomizationE  :       3.7085873     2327.17
(atE without considering molecular charge,
 total energy contains solvation terms)
H-L gap (eV)  :          9.0377
optimized geometry written to: xtbopt.xyz


------------------------------------------------------------------------
 * finished run on 2019/09/03 at 06:41:07.194     
------------------------------------------------------------------------
 total:
 * wall-time:     0 d,  0 h,  0 min,  1.975 sec
 *  cpu-time:     0 d,  0 h,  0 min,  1.952 sec
 * ratio c/w:     0.988 speedup
 SCF:
 * wall-time:     0 d,  0 h,  0 min,  0.093 sec
 *  cpu-time:     0 d,  0 h,  0 min,  0.090 sec
 * ratio c/w:     0.971 speedup
 ANC optimizer:
 * wall-time:     0 d,  0 h,  0 min,  1.860 sec
 *  cpu-time:     0 d,  0 h,  0 min,  1.842 sec
 * ratio c/w:     0.990 speedup

