      -----------------------------------------------------------      
     |                   =====================                   |     
     |                           x T B                           |     
     |                   =====================                   |     
     |                         S. Grimme                         |     
     |          Mulliken Center for Theoretical Chemistry        |     
     |                    University of Bonn                     |     
     |                 Version 6.0.1 (SAW181210)                 |     
      -----------------------------------------------------------      

   This program is distributed in the hope that it will be useful,
   but WITHOUT ANY WARRANTY; without even the implied warranty of
   MERCHANTABILITY or FITNESS FOR A PARTICULAR PURPOSE.
   
   FOR NON-COMMERCIAL, ACADEMIA USE ONLY.
   
   Cite this work as:
   S. Grimme, C. Bannwarth, P. Shushkov, J. Comput. Theory Chem., 2017,
   13, 1989-2009.
   C. Bannwarth, S. Ehlert and S. Grimme., ChemRxiv, 2018, preprint.
   http://doi.org/10.26434/chemrxiv.7246238.v1
   
   for sTDA-xTB:
   S. Grimme and C. Bannwarth, J. Chem. Phys., 2016, 145, 054103.
   
   in the mass-spec context:
   V. Asgeirsson, C. Bauer and S. Grimme, Chem. Sci., 2017, 8, 4879.
   
   if GBSA is used:
   P. Shushkov, F. März and S. Grimme, unpublished.
   
   for ANC optimizer:
   S. Grimme, unpublished.
   Rational Function algorithm used in ANCopt:
   F. Eckert, P. Pulay, H.-J. Werner, J. Comput. Chem., 1997, 18, 1473.
   
   with help from (in alphabetical order)
   C. Bannwarth, F. Bohle, G. Brandenburg, E. Caldeweyher, M. Checinski,
   S. Dohm, S. Ehlert, S. Ehrlich, F. März, H. Neugebauer, J. Pisarek,
   P. Pracht, P. Shushkov, and S. Spicher.
   
 * started run on 2019/09/03 at 06:41:57.544     
========================================================================
 # omp threads = 1
========================================================================
number of atoms            : 19
number of electrons        : 64
charge                     : 0
spin                       : .0
first test random number   : .4103

########################################################################
# WARNING! Please study the warnings concerning your input carefully
#  - XTBPATH is not set, using XTBHOME instead
#  - the use of '-opt' is discouraged, please use '--opt' next time
#  - the use of '-chrg' is discouraged, please use '--chrg' next time
#  - the use of '-uhf' is discouraged, please use '--uhf' next time
########################################################################

           ------------------------------------------------- 
          |                 G F N 2 - x T B                 |
          | Geometry, Frequencies, Noncovalent interactions |
          |            JCTC 2018 parametrisation            |
           ------------------------------------------------- 
      method parameters     
 k(s)        :  1.8500
 k(p)        :  2.2300
 k(d)        :  2.2300
 k(f)        :  2.0000
 kEN (H0ij)  : -2.0000
 D4 a1       :  0.5200
 D4 a2       :  5.0000
 D4 s6       :  1.0000
 D4 s8       :  2.7000
 D4 s9       :  5.0000
 alphaj      :  2.0000


            Z     q(EN)     CN     RAES       Cart. coordinates
     1  S   6.0    0.65    4.25    4.14     2.28027     1.15309    -2.82968
     2  O   6.0   -0.31    1.20    1.80     1.63263     3.35251    -1.19529
     3  O   6.0   -0.30    1.14    1.80     3.60231    -0.80110    -1.29297
     4  O   6.0   -0.30    1.22    1.80    -0.07883     0.05979    -3.91017
     5  O   6.0   -0.24    2.08    1.84     3.94191     1.98954    -4.89167
     6  H   1.0    0.15    1.21    1.47     5.46218     2.69412    -4.19636
     7  O   6.0   -0.29    2.04    1.83    -3.39054     0.18085     3.42322
     8  H   1.0    0.17    1.05    1.44    -2.62110     1.83062     3.45246
     9  H   1.0    0.15    0.97    1.43    -4.50548     0.14405     4.86203
    10  O   6.0   -0.28    2.01    1.83     1.04881    -5.37927     0.60185
    11  H   1.0    0.17    0.99    1.43     2.13023    -3.92397     0.43673
    12  H   1.0    0.15    0.97    1.43     2.17440    -6.80687     0.69982
    13  O   6.0   -0.28    2.03    1.83    -1.16054     4.59241     2.81917
    14  H   1.0    0.18    1.04    1.43    -0.33939     4.17937     1.24764
    15  H   1.0    0.15    0.97    1.43    -0.52939     6.23841     3.27411
    16  O   6.0   -0.21    2.89    2.52    -2.77647    -2.52677    -0.71878
    17  H   1.0    0.15    1.06    1.44    -2.17227    -1.60243    -2.22555
    18  H   1.0    0.14    1.03    1.43    -1.68033    -3.98136    -0.30324
    19  H   1.0    0.15    1.05    1.44    -3.01840    -1.39299     0.74667

  Z AO/shell   Hii/eV     exponent
  1     Wed Apr 25 08:07:45 CEST 2018   EN: 2.200 GM2: 0.406  GM3: 0.0800  RAES: 1.40
     1s    -10.707211    1.230000
  8     Wed Apr 25 08:07:45 CEST 2018   EN: 3.440 GM2: 0.452  GM3:-0.0517  RAES: 1.80
     2s    -20.229985    2.439742
     2p    -15.503117    2.137023
 16     Tue Apr 24 11:44:34 CEST 2018   EN: 2.580 GM2: 0.340  GM3:-0.0502  RAES: 3.10
     3s    -20.029654    1.981333
     3p    -11.377694    2.025643
     3d     -0.420282    1.702555
 no old-style atom pair restraining (fixing) potential

molecular fragmentation (1/2 indicates fragments):
1111112222222222222
# atoms in fragment 1/2:     6    13
 fragment masses (1/2) :       97.07       73.07
CMA distance (Bohr)    :   6.107
constraining FC (au)   :  0.0500
           ------------------------------------------------- 
          |        Self-Consistent Charge Iterations        |
           ------------------------------------------------- 

 Ncao       : 52
 Nao        : 51
 Nshell     : 29
 Nel        : 64
 T(el)      :   300.0
 intcut     :    25.0
 scfconv/Eh :  0.100E-05
   qconv/e  :  0.100E-03
 intneglect :  0.100E-07
 broydamp   :      0.250
 iter      E             dE          RMSdq      gap      omega  full diag
   1    -41.0165431 -0.410165E+02  0.767E+00   10.49       0.0  T
   2    -41.0556926 -0.391495E-01  0.555E+00    9.94       1.0  T
   3    -41.0858060 -0.301134E-01  0.146E+00    8.57       1.0  T
   4    -41.0900346 -0.422857E-02  0.593E-01    8.61       1.0  T
   5    -41.0906445 -0.609867E-03  0.328E-01    8.55       1.0  T
   6    -41.0909819 -0.337459E-03  0.143E-01    8.56       1.0  T
   7    -41.0910604 -0.784999E-04  0.527E-02    8.61       1.0  T
   8    -41.0910710 -0.106011E-04  0.287E-02    8.61       1.0  T
   9    -41.0910742 -0.313519E-05  0.139E-02    8.60       1.7  T
  10    -41.0910751 -0.931744E-06  0.271E-03    8.60       8.5  T
  11    -41.0910751 -0.184787E-07  0.997E-04    8.60      23.0  T
  12    -41.0910751 -0.346267E-08  0.495E-04    8.60      46.3  T
speedup  1.03
cpu  time for SCC    0.01 s
wall time for SCC    0.01 s

   *** convergence criteria satisfied after 12 iterations ***

          eigenvalues
 #    :          20         21         22         23         24         25         26         27
 occ. :        2.000      2.000      2.000      2.000      2.000      2.000      2.000      2.000
 eps  :       -14.203    -13.289    -12.718    -12.515    -12.405    -12.363    -11.633    -11.544
 #    :          28         29         30         31         32         33         34         35
 occ. :        2.000      2.000      2.000      2.000      2.000      0.000      0.000      0.000
 eps  :       -11.149    -11.084    -10.666    -10.591    -10.328     -1.729     -0.615      0.270
 #    :          36         37         38         39         40         41         42         43
 occ. :        0.000      0.000      0.000      0.000      0.000      0.000      0.000      0.000
 eps  :         1.268      1.354      1.959      3.112      4.104      4.322      6.895      7.699


   #   Z            q   n(s)   n(p)   n(d)      C6AA      α(0)
   1  16 S      1.555  1.586  1.865  0.994    92.138    16.156
   2   8 O     -0.757  1.776  4.981  0.000    30.320     7.383
   3   8 O     -0.761  1.775  4.985  0.000    30.414     7.394
   4   8 O     -0.736  1.762  4.974  0.000    29.721     7.309
   5   8 O     -0.538  1.716  4.823  0.000    23.729     6.576
   6   1 H      0.357  0.643  0.000  0.000     0.564     1.175
   7   8 O     -0.615  1.726  4.888  0.000    25.538     6.821
   8   1 H      0.347  0.653  0.000  0.000     0.594     1.211
   9   1 H      0.291  0.709  0.000  0.000     0.749     1.359
  10   8 O     -0.602  1.724  4.878  0.000    25.228     6.779
  11   1 H      0.333  0.667  0.000  0.000     0.629     1.246
  12   1 H      0.297  0.703  0.000  0.000     0.731     1.343
  13   8 O     -0.619  1.733  4.886  0.000    25.653     6.836
  14   1 H      0.335  0.665  0.000  0.000     0.625     1.241
  15   1 H      0.283  0.717  0.000  0.000     0.776     1.383
  16   8 O     -0.419  1.640  4.778  0.000    21.159     6.212
  17   1 H      0.416  0.584  0.000  0.000     0.456     1.061
  18   1 H      0.415  0.585  0.000  0.000     0.459     1.064
  19   1 H      0.419  0.581  0.000  0.000     0.452     1.056

 Mol. C6AA /au·bohr⁶  :       3378.468303
 Mol. C8AA /au·bohr⁸  :      76762.188836
 Mol. α(0) /au        :         83.605324

 
 Wiberg/Mayer (AO) data. WBOs > 0.1 written file <wbo>
 largest (>0.05) Wiberg bond orders for each atom
           total WBO             WBO to atom ...
     1  S   4.960    O    3 1.320    O    4 1.306    O    2 1.305    O    5 0.997
     2  O   1.673    S    1 1.305    O    3 0.116    O    4 0.111    O    5 0.073
     3  O   1.658    S    1 1.320    O    2 0.116    O    4 0.115    O    5 0.075
     4  O   1.715    S    1 1.306    O    3 0.115    O    2 0.111    H   17 0.088    O    5 0.051
     5  O   2.050    S    1 0.997    H    6 0.849    O    3 0.075    O    2 0.073    O    4 0.051
     6  H   0.872    O    5 0.849
     7  O   1.867    H    9 0.907    H    8 0.826    H   19 0.080
     8  H   0.879    O    7 0.826
     9  H   0.915    O    7 0.907
    10  O   1.863    H   12 0.900    H   11 0.866    H   18 0.064
    11  H   0.889    O   10 0.866
    12  H   0.912    O   10 0.900
    13  O   1.836    H   15 0.907    H   14 0.835
    14  H   0.888    O   13 0.835
    15  H   0.920    O   13 0.907
    16  O   2.328    H   18 0.759    H   19 0.739    H   17 0.732
    17  H   0.827    O   16 0.732    O    4 0.088
    18  H   0.828    O   16 0.759    O   10 0.064
    19  H   0.825    O   16 0.739    O    7 0.080
 MOs/occ written to file <molden.input>
 
molecular dipole:
                 x           y           z       tot (Debye)
 q only:       -1.206      -1.338       1.164
   full:       -0.268      -0.734       0.895       3.020
molecular quadrupole (traceless):
                xx          xy          yy          xz          yz          zz
 q only:        3.710       4.272       4.834      -4.799       1.235      -8.544
  q+dip:        3.250       3.209       5.103      -8.623       0.337      -8.353
   full:        3.278       3.626       5.194      -9.105       0.330      -8.471

SCC energy    :     -41.0910751
rep           :       0.2163949
ES            :       0.2418799
AES           :      -0.0546147
AXC           :      -0.0109892
disp          :      -0.0115136
XB            :       0.0000000
fix           :       0.0000000
total E       :     -40.8745600
atomizationE  :       3.6687472     2302.17
(atE without considering molecular charge,
 total energy contains solvation terms)
H-L gap (eV)  :          8.5988
           ------------------------------------------------- 
          |                 ===============                 |
          |                   A N C O P T                   |
          |                 ===============                 |
          |          Approximate Normal Coordinate          |
          |           Rational Function Optimizer           |
           ------------------------------------------------- 
dumping coords to <xtbopt.coord> and <xtbopt.log>
 optlevel               2
 Maxcycle             380
 Maxmicro              25
 Econv         1.000000000000000E-007
 Gconv         2.000000000000000E-004
 Maxdispl       1.00000000000000     
 Hlow          5.000000000000000E-003
 S6             20.0000000000000     
 Nvar               51

generating ANC from model Hessian ...
 Shifting diagonal of input Hessian by   5.153879193051278E-003
 Lowest  eigenvalues of input Hessian
    0.005000   -0.000000   -0.000000   -0.000000   -0.000000    0.000000
    0.000000    0.005251    0.005622    0.005871    0.006105    0.007064
    0.007277    0.009527    0.009846    0.010246    0.010536    0.012520
 Highest eigenvalues
    1.453348    1.557813    1.562488    3.137979    3.210286    3.314616
 
cpu  time for ANC gen    0.00 s
wall time for ANC gen    0.01 s
................................................................................
.............................. CYCLE    1 ......................................
................................................................................
   1    -41.0910751 -0.410911E+02  0.101E-04    8.60       0.0  T
   2    -41.0910751 -0.138058E-10  0.752E-05    8.60     305.0  T
   3    -41.0910751 -0.753175E-11  0.274E-05    8.60     837.0  T
speedup  1.00
cpu  time for SCC    0.00 s
wall time for SCC    0.00 s
speedup  0.96
cpu  time for grad    0.01 s
wall time for grad    0.01 s
 E :    -40.87455992  G :  0.163309    pred/act E change:  0.000D+00  0.337D-07
Maxdispl :   0.2219   ||displ|| :   0.4524   Lambda : -0.204D-01
Largest |displ|/coords:  0.2219 (  20)  0.1967 (  12)  0.1494 (   8)
................................................................................
.............................. CYCLE    2 ......................................
................................................................................
   1    -41.0988563 -0.410989E+02  0.478E-01    8.75       0.0  T
   2    -41.0989796 -0.123232E-03  0.368E-01    8.80       1.0  T
   3    -41.0990344 -0.547925E-04  0.866E-02    8.90       1.0  T
   4    -41.0990559 -0.215125E-04  0.221E-02    8.89       1.0  T
   5    -41.0990567 -0.823284E-06  0.619E-03    8.88       3.7  T
   6    -41.0990567 -0.363107E-07  0.362E-03    8.88       6.3  T
   7    -41.0990568 -0.334872E-07  0.150E-03    8.88      15.3  T
speedup  0.89
cpu  time for SCC    0.00 s
wall time for SCC    0.00 s
speedup  0.95
cpu  time for grad    0.01 s
wall time for grad    0.01 s
 E :    -40.89197348  G :  0.109401    pred/act E change:  0.000D+00 -0.174D-01
Maxdispl :   0.2406   ||displ|| :   0.4668   Lambda : -0.144D-01
Largest |displ|/coords:  0.2406 (  20)  0.2250 (   8)  0.1479 (  22)
................................................................................
.............................. CYCLE    3 ......................................
................................................................................
   1    -41.1050981 -0.411051E+02  0.353E-01    8.96       0.0  T
   2    -41.1052845 -0.186470E-03  0.270E-01    9.01       1.0  T
   3    -41.1053659 -0.813860E-04  0.102E-01    9.09       1.0  T
   4    -41.1053814 -0.154827E-04  0.252E-02    9.08       1.0  T
   5    -41.1053823 -0.852595E-06  0.665E-03    9.08       3.4  T
   6    -41.1053823 -0.488109E-07  0.389E-03    9.08       5.9  T
   7    -41.1053823 -0.371752E-07  0.155E-03    9.08      14.8  T
speedup  0.93
cpu  time for SCC    0.00 s
wall time for SCC    0.00 s
speedup  0.97
cpu  time for grad    0.01 s
wall time for grad    0.01 s
 E :    -40.90317821  G :  0.065357    pred/act E change: -0.123D-01 -0.112D-01
Maxdispl :   0.1928   ||displ|| :   0.4033   Lambda : -0.643D-02
Largest |displ|/coords:  0.1928 (   8)  0.1521 (  20)  0.1503 (  10)
................................................................................
.............................. CYCLE    4 ......................................
................................................................................
   1    -41.1068236 -0.411068E+02  0.317E-01    9.09       0.0  T
   2    -41.1069589 -0.135289E-03  0.241E-01    9.13       1.0  T
   3    -41.1070166 -0.576915E-04  0.846E-02    9.18       1.0  T
   4    -41.1070283 -0.117233E-04  0.229E-02    9.17       1.0  T
   5    -41.1070290 -0.683220E-06  0.558E-03    9.17       4.1  T
   6    -41.1070290 -0.393025E-07  0.304E-03    9.17       7.5  T
speedup  0.81
cpu  time for SCC    0.00 s
wall time for SCC    0.00 s
speedup  0.98
cpu  time for grad    0.01 s
wall time for grad    0.01 s
 E :    -40.90758329  G :  0.037820    pred/act E change: -0.874D-02 -0.441D-02
Maxdispl :   0.1986   ||displ|| :   0.3660   Lambda : -0.319D-02
Largest |displ|/coords:  0.1986 (   5)  0.1657 (   4)  0.0975 (   8)
................................................................................
.............................. CYCLE    5 ......................................
................................................................................
   1    -41.1110957 -0.411111E+02  0.309E-01    9.12       0.0  T
   2    -41.1111643 -0.686269E-04  0.235E-01    9.15       1.0  T
   3    -41.1111914 -0.270441E-04  0.586E-02    9.19       1.0  T
   4    -41.1112012 -0.982838E-05  0.208E-02    9.18       1.1  T
   5    -41.1112017 -0.527598E-06  0.462E-03    9.18       5.0  T
   6    -41.1112017 -0.246501E-07  0.247E-03    9.18       9.3  T
speedup  0.81
cpu  time for SCC    0.00 s
wall time for SCC    0.00 s
speedup  0.91
cpu  time for grad    0.01 s
wall time for grad    0.01 s
 E :    -40.90902149  G :  0.021674    pred/act E change: -0.374D-02 -0.144D-02
Maxdispl :   0.2472   ||displ|| :   0.4353   Lambda : -0.346D-02
Largest |displ|/coords:  0.2472 (  12)  0.1921 (  16)  0.1595 (  11)
................................................................................
.............................. CYCLE    6 ......................................
................................................................................
   1    -41.0992635 -0.410993E+02  0.631E-01    8.99       0.0  T
   2    -41.0994435 -0.180015E-03  0.474E-01    9.02       1.0  T
   3    -41.0995263 -0.828278E-04  0.104E-01    9.08       1.0  T
   4    -41.0995512 -0.248473E-04  0.333E-02    9.06       1.0  T
   5    -41.0995527 -0.155732E-05  0.724E-03    9.06       3.2  T
   6    -41.0995528 -0.683182E-07  0.398E-03    9.06       5.8  T
   7    -41.0995528 -0.237787E-07  0.149E-03    9.06      15.4  T
speedup  1.16
cpu  time for SCC    0.00 s
wall time for SCC    0.00 s
speedup  1.06
cpu  time for grad    0.01 s
wall time for grad    0.01 s
 E :    -40.90770036  G :  0.056653    pred/act E change: -0.181D-02  0.132D-02
Maxdispl :   0.2059   ||displ|| :   0.4070   Lambda : -0.106D-01
Largest |displ|/coords:  0.2059 (  12)  0.1559 (  15)  0.1441 (   8)
................................................................................
.............................. CYCLE    7 ......................................
................................................................................
   1    -41.1109688 -0.411110E+02  0.647E-01    9.12       0.0  T
   2    -41.1112063 -0.237472E-03  0.485E-01    9.09       1.0  T
   3    -41.1113357 -0.129405E-03  0.111E-01    9.04       1.0  T
   4    -41.1113641 -0.284416E-04  0.342E-02    9.06       1.0  T
   5    -41.1113664 -0.231141E-05  0.913E-03    9.06       2.5  T
   6    -41.1113664 -0.295801E-07  0.446E-03    9.06       5.1  T
   7    -41.1113665 -0.285787E-07  0.147E-03    9.06      15.6  T
speedup  1.14
cpu  time for SCC    0.00 s
wall time for SCC    0.00 s
speedup  1.06
cpu  time for grad    0.01 s
wall time for grad    0.01 s
 E :    -40.90900425  G :  0.038108    pred/act E change: -0.206D-02 -0.130D-02
Maxdispl :   0.1077   ||displ|| :   0.2030   Lambda : -0.243D-02
Largest |displ|/coords:  0.1077 (   8)  0.0964 (  13)  0.0779 (   4)
................................................................................
.............................. CYCLE    8 ......................................
................................................................................
   1    -41.1163218 -0.411163E+02  0.307E-01    9.07       0.0  T
   2    -41.1163672 -0.453354E-04  0.229E-01    9.07       1.0  T
   3    -41.1163930 -0.258384E-04  0.470E-02    9.08       1.0  T
   4    -41.1163984 -0.538461E-05  0.112E-02    9.08       2.1  T
   5    -41.1163987 -0.274636E-06  0.336E-03    9.08       6.8  T
   6    -41.1163987 -0.391001E-08  0.205E-03    9.08      11.2  T
speedup  0.81
cpu  time for SCC    0.00 s
wall time for SCC    0.00 s
speedup  0.91
cpu  time for grad    0.01 s
wall time for grad    0.01 s
 E :    -40.90998247  G :  0.021558    pred/act E change: -0.619D-02 -0.978D-03
Maxdispl :   0.2470   ||displ|| :   0.4427   Lambda : -0.346D-02
Largest |displ|/coords:  0.2470 (  11)  0.2325 (   6)  0.1213 (   9)
................................................................................
.............................. CYCLE    9 ......................................
................................................................................
   1    -41.0931370 -0.410931E+02  0.724E-01    9.03       0.0  T
   2    -41.0933687 -0.231666E-03  0.540E-01    9.04       1.0  T
   3    -41.0934889 -0.120260E-03  0.105E-01    9.05       1.0  T
   4    -41.0935208 -0.318483E-04  0.221E-02    9.05       1.0  T
   5    -41.0935215 -0.750515E-06  0.804E-03    9.05       2.9  T
   6    -41.0935216 -0.635447E-07  0.464E-03    9.05       4.9  T
   7    -41.0935216 -0.237661E-07  0.121E-03    9.05      18.9  T
speedup  1.14
cpu  time for SCC    0.00 s
wall time for SCC    0.00 s
speedup  1.06
cpu  time for grad    0.01 s
wall time for grad    0.01 s
 E :    -40.90781745  G :  0.067934    pred/act E change: -0.127D-02  0.217D-02
Maxdispl :   0.2049   ||displ|| :   0.4978   Lambda : -0.141D-01
Largest |displ|/coords:  0.2049 (   6)  0.1742 (   3)  0.1700 (  11)
................................................................................
.............................. CYCLE   10 ......................................
................................................................................
   1    -41.1170306 -0.411170E+02  0.865E-01    9.07       0.0  T
   2    -41.1174387 -0.408082E-03  0.645E-01    9.05       1.0  T
   3    -41.1176798 -0.241104E-03  0.137E-01    9.03       1.0  T
   4    -41.1177295 -0.496670E-04  0.301E-02    9.04       1.0  T
   5    -41.1177310 -0.156224E-05  0.124E-02    9.04       1.9  T
   6    -41.1177311 -0.517102E-07  0.610E-03    9.04       3.8  T
   7    -41.1177311 -0.570710E-07  0.140E-03    9.04      16.4  T
   8    -41.1177311 -0.196371E-08  0.386E-04    9.04      59.4  T
speedup  1.00
cpu  time for SCC    0.00 s
wall time for SCC    0.00 s
speedup  1.00
cpu  time for grad    0.01 s
wall time for grad    0.01 s
 E :    -40.90811510  G :  0.063571    pred/act E change: -0.207D-02 -0.298D-03
Maxdispl :   0.1978   ||displ|| :   0.3698   Lambda : -0.725D-02
Largest |displ|/coords:  0.1978 (   4)  0.1425 (  14)  0.1054 (   5)
................................................................................
.............................. CYCLE   11 ......................................
................................................................................
   1    -41.1119193 -0.411119E+02  0.680E-01    9.08       0.0  T
   2    -41.1121080 -0.188657E-03  0.510E-01    9.08       1.0  T
   3    -41.1122192 -0.111196E-03  0.924E-02    9.08       1.0  T
   4    -41.1122456 -0.264345E-04  0.175E-02    9.08       1.3  T
   5    -41.1122462 -0.532002E-06  0.774E-03    9.08       3.0  T
   6    -41.1122462 -0.311222E-07  0.442E-03    9.08       5.2  T
   7    -41.1122462 -0.226314E-07  0.853E-04    9.08      26.9  T
speedup  0.93
cpu  time for SCC    0.00 s
wall time for SCC    0.00 s
speedup  0.96
cpu  time for grad    0.01 s
wall time for grad    0.01 s
 E :    -40.90931166  G :  0.044906    pred/act E change: -0.878D-02 -0.120D-02
Maxdispl :   0.1083   ||displ|| :   0.2527   Lambda : -0.312D-02
Largest |displ|/coords:  0.1083 (   4)  0.1004 (  14)  0.0862 (   3)
................................................................................
.............................. CYCLE   12 ......................................
................................................................................
   1    -41.1063278 -0.411063E+02  0.434E-01    9.08       0.0  T
   2    -41.1063747 -0.468955E-04  0.328E-01    9.09       1.0  T
   3    -41.1064053 -0.305516E-04  0.438E-02    9.09       1.0  T
   4    -41.1064125 -0.725991E-05  0.789E-03    9.09       2.9  T
   5    -41.1064126 -0.390888E-07  0.386E-03    9.09       5.9  T
   6    -41.1064126 -0.890260E-08  0.166E-03    9.09      13.8  T
speedup  0.79
cpu  time for SCC    0.00 s
wall time for SCC    0.00 s
speedup  1.02
cpu  time for grad    0.01 s
wall time for grad    0.01 s
 E :    -40.91068568  G :  0.026200    pred/act E change: -0.412D-02 -0.137D-02
Maxdispl :   0.1011   ||displ|| :   0.1682   Lambda : -0.131D-02
Largest |displ|/coords:  0.1011 (   8)  0.0673 (   3)  0.0441 (  19)
................................................................................
.............................. CYCLE   13 ......................................
................................................................................
   1    -41.1107210 -0.411107E+02  0.202E-01    9.06       0.0  T
   2    -41.1107475 -0.264928E-04  0.150E-01    9.06       1.0  T
   3    -41.1107630 -0.154743E-04  0.334E-02    9.07       1.0  T
   4    -41.1107661 -0.313163E-05  0.794E-03    9.07       2.9  T
   5    -41.1107662 -0.767499E-07  0.344E-03    9.07       6.7  T
   6    -41.1107662 -0.683537E-08  0.171E-03    9.07      13.4  T
speedup  1.08
cpu  time for SCC    0.00 s
wall time for SCC    0.00 s
speedup  1.02
cpu  time for grad    0.01 s
wall time for grad    0.01 s
 E :    -40.91098535  G :  0.019452    pred/act E change: -0.166D-02 -0.300D-03
Maxdispl :   0.0651   ||displ|| :   0.1412   Lambda : -0.677D-03
Largest |displ|/coords:  0.0651 (   2)  0.0623 (   4)  0.0526 (   5)
................................................................................
.............................. CYCLE   14 ......................................
................................................................................
   1    -41.1102343 -0.411102E+02  0.148E-01    9.08       0.0  T
   2    -41.1102406 -0.635927E-05  0.111E-01    9.08       1.0  T
   3    -41.1102456 -0.498801E-05  0.165E-02    9.08       1.4  T
   4    -41.1102464 -0.829231E-06  0.406E-03    9.08       5.7  T
   5    -41.1102465 -0.131891E-07  0.208E-03    9.08      11.0  T
   6    -41.1102465 -0.481036E-08  0.800E-04    9.08      28.7  T
speedup  1.08
cpu  time for SCC    0.00 s
wall time for SCC    0.00 s
speedup  1.03
cpu  time for grad    0.01 s
wall time for grad    0.01 s
 E :    -40.91139878  G :  0.012437    pred/act E change: -0.674D-03 -0.413D-03
Maxdispl :   0.0842   ||displ|| :   0.1689   Lambda : -0.485D-03
Largest |displ|/coords:  0.0842 (  11)  0.0685 (   6)  0.0524 (   3)
................................................................................
.............................. CYCLE   15 ......................................
................................................................................
   1    -41.1067363 -0.411067E+02  0.228E-01    9.09       0.0  T
   2    -41.1067473 -0.110306E-04  0.172E-01    9.09       1.0  T
   3    -41.1067548 -0.751642E-05  0.248E-02    9.09       1.0  T
   4    -41.1067564 -0.157311E-05  0.580E-03    9.09       4.0  T
   5    -41.1067565 -0.672499E-07  0.208E-03    9.09      11.0  T
   6    -41.1067565 -0.132692E-08  0.125E-03    9.09      18.3  T
speedup  0.81
cpu  time for SCC    0.00 s
wall time for SCC    0.00 s
speedup  0.91
cpu  time for grad    0.01 s
wall time for grad    0.01 s
 E :    -40.91162580  G :  0.023120    pred/act E change: -0.345D-03 -0.227D-03
Maxdispl :   0.0668   ||displ|| :   0.1579   Lambda : -0.541D-03
Largest |displ|/coords:  0.0668 (  11)  0.0644 (   2)  0.0592 (   5)
................................................................................
.............................. CYCLE   16 ......................................
................................................................................
   1    -41.1088479 -0.411088E+02  0.130E-01    9.10       0.0  T
   2    -41.1088529 -0.499091E-05  0.967E-02    9.10       1.0  T
   3    -41.1088565 -0.360302E-05  0.197E-02    9.10       1.2  T
   4    -41.1088571 -0.653960E-06  0.504E-03    9.10       4.6  T
   5    -41.1088571 -0.344475E-07  0.183E-03    9.10      12.5  T
speedup  1.25
cpu  time for SCC    0.00 s
wall time for SCC    0.00 s
speedup  1.10
cpu  time for grad    0.01 s
wall time for grad    0.01 s
 E :    -40.91201257  G :  0.020209    pred/act E change: -0.249D-03 -0.387D-03
Maxdispl :   0.2047   ||displ|| :   0.4284   Lambda : -0.147D-02
Largest |displ|/coords:  0.2047 (  11)  0.1350 (   2)  0.1296 (  19)
................................................................................
.............................. CYCLE   17 ......................................
................................................................................
   1    -41.1106636 -0.411107E+02  0.387E-01    9.18       0.0  T
   2    -41.1106956 -0.320366E-04  0.290E-01    9.18       1.0  T
   3    -41.1107175 -0.218626E-04  0.479E-02    9.17       1.0  T
   4    -41.1107219 -0.444744E-05  0.122E-02    9.17       1.9  T
   5    -41.1107221 -0.203562E-06  0.432E-03    9.17       5.3  T
   6    -41.1107221 -0.115648E-07  0.234E-03    9.17       9.8  T
speedup  1.08
cpu  time for SCC    0.00 s
wall time for SCC    0.00 s
speedup  1.02
cpu  time for grad    0.01 s
wall time for grad    0.01 s
 E :    -40.91271756  G :  0.026500    pred/act E change: -0.277D-03 -0.705D-03
Maxdispl :   0.2076   ||displ|| :   0.4668   Lambda : -0.206D-02
Largest |displ|/coords:  0.2076 (   3)  0.2034 (  11)  0.1438 (  19)
................................................................................
.............................. CYCLE   18 ......................................
................................................................................
   1    -41.1102843 -0.411103E+02  0.446E-01    9.22       0.0  T
   2    -41.1103423 -0.579852E-04  0.333E-01    9.22       1.0  T
   3    -41.1103891 -0.467787E-04  0.593E-02    9.21       1.0  T
   4    -41.1103960 -0.691868E-05  0.168E-02    9.21       1.4  T
   5    -41.1103964 -0.382737E-06  0.611E-03    9.21       3.8  T
   6    -41.1103964 -0.250323E-07  0.341E-03    9.21       6.7  T
   7    -41.1103964 -0.189850E-07  0.820E-04    9.21      28.0  T
speedup  0.93
cpu  time for SCC    0.00 s
wall time for SCC    0.00 s
speedup  0.96
cpu  time for grad    0.01 s
wall time for grad    0.01 s
 E :    -40.91268583  G :  0.041291    pred/act E change: -0.871D-03  0.317D-04
Maxdispl :   0.0967   ||displ|| :   0.1739   Lambda : -0.221D-02
Largest |displ|/coords:  0.0967 (   5)  0.0722 (   3)  0.0671 (   2)
................................................................................
.............................. CYCLE   19 ......................................
................................................................................
   1    -41.1080540 -0.411081E+02  0.203E-01    9.15       0.0  T
   2    -41.1080805 -0.265261E-04  0.152E-01    9.16       1.0  T
   3    -41.1080978 -0.172931E-04  0.352E-02    9.17       1.0  T
   4    -41.1081010 -0.320998E-05  0.123E-02    9.17       1.9  T
   5    -41.1081013 -0.209539E-06  0.364E-03    9.17       6.3  T
   6    -41.1081013 -0.106916E-07  0.208E-03    9.17      11.0  T
speedup  1.05
cpu  time for SCC    0.00 s
wall time for SCC    0.00 s
speedup  1.01
cpu  time for grad    0.01 s
wall time for grad    0.01 s
 E :    -40.91367550  G :  0.015940    pred/act E change: -0.126D-02 -0.990D-03
Maxdispl :   0.0431   ||displ|| :   0.0968   Lambda : -0.505D-03
Largest |displ|/coords:  0.0431 (   7)  0.0364 (   3)  0.0342 (   4)
................................................................................
.............................. CYCLE   20 ......................................
................................................................................
   1    -41.1137338 -0.411137E+02  0.118E-01    9.26       0.0  T
   2    -41.1137452 -0.114036E-04  0.834E-02    9.26       1.0  T
   3    -41.1137508 -0.564537E-05  0.220E-02    9.26       1.0  T
   4    -41.1137515 -0.708819E-06  0.460E-03    9.26       5.0  T
   5    -41.1137516 -0.423240E-07  0.169E-03    9.26      13.6  T
   6    -41.1137516 -0.160824E-08  0.886E-04    9.26      25.9  T
speedup  1.05
cpu  time for SCC    0.00 s
wall time for SCC    0.00 s
speedup  1.01
cpu  time for grad    0.01 s
wall time for grad    0.01 s
 E :    -40.91378928  G :  0.011372    pred/act E change: -0.114D-02 -0.114D-03
Maxdispl :   0.1385   ||displ|| :   0.3238   Lambda : -0.553D-03
Largest |displ|/coords:  0.1385 (  11)  0.1120 (   1)  0.1029 (   3)
................................................................................
.............................. CYCLE   21 ......................................
................................................................................
   1    -41.1084304 -0.411084E+02  0.293E-01    9.24       0.0  T
   2    -41.1084479 -0.174655E-04  0.220E-01    9.24       1.0  T
   3    -41.1084630 -0.151674E-04  0.309E-02    9.24       1.0  T
   4    -41.1084651 -0.204733E-05  0.862E-03    9.24       2.7  T
   5    -41.1084652 -0.758400E-07  0.350E-03    9.24       6.5  T
   6    -41.1084652 -0.956977E-08  0.198E-03    9.24      11.6  T
   7    -41.1084652 -0.588835E-08  0.451E-04    9.24      50.9  T
speedup  0.93
cpu  time for SCC    0.00 s
wall time for SCC    0.00 s
speedup  0.96
cpu  time for grad    0.01 s
wall time for grad    0.01 s
 E :    -40.91399172  G :  0.018387    pred/act E change: -0.255D-03 -0.202D-03
Maxdispl :   0.0848   ||displ|| :   0.1594   Lambda : -0.626D-03
Largest |displ|/coords:  0.0848 (   1)  0.0615 (   4)  0.0586 (  11)
................................................................................
.............................. CYCLE   22 ......................................
................................................................................
   1    -41.1101287 -0.411101E+02  0.148E-01    9.25       0.0  T
   2    -41.1101384 -0.979575E-05  0.111E-01    9.25       1.0  T
   3    -41.1101454 -0.699952E-05  0.208E-02    9.25       1.1  T
   4    -41.1101467 -0.123722E-05  0.517E-03    9.25       4.4  T
   5    -41.1101467 -0.280651E-07  0.223E-03    9.25      10.3  T
   6    -41.1101467 -0.452876E-08  0.117E-03    9.25      19.6  T
speedup  1.03
cpu  time for SCC    0.00 s
wall time for SCC    0.00 s
speedup  1.00
cpu  time for grad    0.01 s
wall time for grad    0.01 s
 E :    -40.91411603  G :  0.014818    pred/act E change: -0.306D-03 -0.124D-03
Maxdispl :   0.0405   ||displ|| :   0.0769   Lambda : -0.390D-03
Largest |displ|/coords:  0.0405 (   3)  0.0256 (   4)  0.0250 (   2)
................................................................................
.............................. CYCLE   23 ......................................
................................................................................
   1    -41.1120409 -0.411120E+02  0.870E-02    9.26       0.0  T
   2    -41.1120450 -0.409451E-05  0.640E-02    9.26       1.0  T
   3    -41.1120474 -0.232671E-05  0.148E-02    9.26       1.5  T
   4    -41.1120478 -0.423742E-06  0.396E-03    9.26       5.8  T
   5    -41.1120478 -0.310370E-07  0.130E-03    9.26      17.7  T
   6    -41.1120478 -0.841574E-09  0.700E-04    9.26      32.8  T
speedup  1.05
cpu  time for SCC    0.00 s
wall time for SCC    0.00 s
speedup  1.01
cpu  time for grad    0.01 s
wall time for grad    0.01 s
 E :    -40.91431635  G :  0.007798    pred/act E change: -0.321D-03 -0.200D-03
Maxdispl :   0.0832   ||displ|| :   0.1573   Lambda : -0.242D-03
Largest |displ|/coords:  0.0832 (   1)  0.0761 (  11)  0.0391 (  16)
................................................................................
.............................. CYCLE   24 ......................................
................................................................................
   1    -41.1101038 -0.411101E+02  0.153E-01    9.22       0.0  T
   2    -41.1101092 -0.538054E-05  0.115E-01    9.22       1.0  T
   3    -41.1101130 -0.381195E-05  0.172E-02    9.22       1.3  T
   4    -41.1101137 -0.712360E-06  0.346E-03    9.22       6.6  T
   5    -41.1101137 -0.136462E-07  0.154E-03    9.22      14.9  T
   6    -41.1101137 -0.220862E-08  0.812E-04    9.22      28.3  T
speedup  0.81
cpu  time for SCC    0.00 s
wall time for SCC    0.00 s
speedup  1.02
cpu  time for grad    0.01 s
wall time for grad    0.01 s
 E :    -40.91438952  G :  0.009655    pred/act E change: -0.196D-03 -0.732D-04
Maxdispl :   0.0869   ||displ|| :   0.1285   Lambda : -0.220D-03
Largest |displ|/coords:  0.0869 (   1)  0.0551 (   3)  0.0292 (  11)
................................................................................
.............................. CYCLE   25 ......................................
................................................................................
   1    -41.1115314 -0.411115E+02  0.105E-01    9.29       0.0  T
   2    -41.1115346 -0.318041E-05  0.788E-02    9.29       1.0  T
   3    -41.1115368 -0.214167E-05  0.134E-02    9.29       1.7  T
   4    -41.1115372 -0.455697E-06  0.413E-03    9.29       5.6  T
   5    -41.1115372 -0.232031E-07  0.147E-03    9.29      15.6  T
   6    -41.1115372 -0.187077E-08  0.777E-04    9.29      29.5  T
speedup  1.05
cpu  time for SCC    0.00 s
wall time for SCC    0.00 s
speedup  1.01
cpu  time for grad    0.01 s
wall time for grad    0.01 s
 E :    -40.91452049  G :  0.009652    pred/act E change: -0.124D-03 -0.131D-03
Maxdispl :   0.0879   ||displ|| :   0.1326   Lambda : -0.203D-03
Largest |displ|/coords:  0.0879 (   1)  0.0415 (  11)  0.0394 (   2)

generating ANC from model Hessian ...
 Shifting diagonal of input Hessian by   5.047082005400987E-003
 Lowest  eigenvalues of input Hessian
    0.005000   -0.000000   -0.000000   -0.000000    0.000000    0.000000
    0.000000    0.005425    0.006645    0.006740    0.008325    0.009950
    0.013011    0.014159    0.016065    0.020938    0.022670    0.024522
 Highest eigenvalues
    1.401853    1.404406    1.405379    2.567244    3.536803    3.613166
 
cpu  time for ANC gen    0.01 s
wall time for ANC gen    0.01 s
................................................................................
.............................. CYCLE   26 ......................................
................................................................................
   1    -41.1128234 -0.411128E+02  0.934E-02    9.26       0.0  T
   2    -41.1128259 -0.252342E-05  0.701E-02    9.26       1.0  T
   3    -41.1128277 -0.171477E-05  0.112E-02    9.26       2.0  T
   4    -41.1128280 -0.356838E-06  0.427E-03    9.26       5.4  T
   5    -41.1128280 -0.119917E-07  0.108E-03    9.26      21.3  T
   6    -41.1128280 -0.104640E-08  0.652E-04    9.26      35.2  T
   7    -41.1128280 -0.519961E-09  0.200E-04    9.26     114.7  T
speedup  0.91
cpu  time for SCC    0.00 s
wall time for SCC    0.00 s
speedup  1.02
cpu  time for grad    0.01 s
wall time for grad    0.01 s
 E :    -40.91463625  G :  0.007763    pred/act E change:  0.000D+00 -0.116D-03
Maxdispl :   0.1075   ||displ|| :   0.1360   Lambda : -0.207D-03
Largest |displ|/coords:  0.1075 (   1)  0.0447 (   8)  0.0357 (   4)
................................................................................
.............................. CYCLE   27 ......................................
................................................................................
   1    -41.1125793 -0.411126E+02  0.117E-01    9.26       0.0  T
   2    -41.1125803 -0.103106E-05  0.879E-02    9.26       1.0  T
   3    -41.1125814 -0.108859E-05  0.788E-03    9.26       2.9  T
   4    -41.1125815 -0.970791E-07  0.264E-03    9.26       8.7  T
   5    -41.1125815 -0.560406E-08  0.966E-04    9.26      23.7  T
speedup  0.94
cpu  time for SCC    0.00 s
wall time for SCC    0.00 s
speedup  0.96
cpu  time for grad    0.01 s
wall time for grad    0.01 s
 E :    -40.91479492  G :  0.004440    pred/act E change:  0.000D+00 -0.159D-03
Maxdispl :   0.2699   ||displ|| :   0.3064   Lambda : -0.315D-03
Largest |displ|/coords:  0.2699 (   1)  0.1026 (   8)  0.0412 (   3)
................................................................................
.............................. CYCLE   28 ......................................
................................................................................
   1    -41.1103076 -0.411103E+02  0.252E-01    9.24       0.0  T
   2    -41.1103127 -0.513009E-05  0.190E-01    9.25       1.0  T
   3    -41.1103180 -0.529888E-05  0.172E-02    9.25       1.3  T
   4    -41.1103185 -0.520469E-06  0.584E-03    9.25       3.9  T
   5    -41.1103186 -0.266468E-07  0.235E-03    9.25       9.8  T
   6    -41.1103186 -0.342160E-08  0.105E-03    9.25      21.9  T
speedup  1.05
cpu  time for SCC    0.00 s
wall time for SCC    0.00 s
speedup  1.01
cpu  time for grad    0.01 s
wall time for grad    0.01 s
 E :    -40.91493163  G :  0.008973    pred/act E change: -0.105D-03 -0.137D-03
Maxdispl :   0.0528   ||displ|| :   0.0969   Lambda : -0.161D-03
Largest |displ|/coords:  0.0528 (   3)  0.0479 (   1)  0.0365 (   4)
................................................................................
.............................. CYCLE   29 ......................................
................................................................................
   1    -41.1112089 -0.411112E+02  0.645E-02    9.25       0.0  T
   2    -41.1112097 -0.808255E-06  0.486E-02    9.25       1.0  T
   3    -41.1112105 -0.817145E-06  0.582E-03    9.25       3.9  T
   4    -41.1112106 -0.877980E-07  0.194E-03    9.25      11.8  T
   5    -41.1112106 -0.272324E-08  0.770E-04    9.25      29.8  T
speedup  0.94
cpu  time for SCC    0.00 s
wall time for SCC    0.00 s
speedup  0.98
cpu  time for grad    0.01 s
wall time for grad    0.01 s
 E :    -40.91502049  G :  0.004970    pred/act E change: -0.172D-03 -0.889D-04
Maxdispl :   0.1136   ||displ|| :   0.1294   Lambda : -0.929D-04
Largest |displ|/coords:  0.1136 (   1)  0.0324 (   2)  0.0214 (   5)
................................................................................
.............................. CYCLE   30 ......................................
................................................................................
   1    -41.1118503 -0.411119E+02  0.802E-02    9.25       0.0  T
   2    -41.1118511 -0.869299E-06  0.603E-02    9.25       1.0  T
   3    -41.1118518 -0.671137E-06  0.729E-03    9.25       3.1  T
   4    -41.1118519 -0.125711E-06  0.188E-03    9.25      12.2  T
   5    -41.1118519 -0.326011E-08  0.814E-04    9.25      28.2  T
speedup  0.94
cpu  time for SCC    0.00 s
wall time for SCC    0.00 s
speedup  0.96
cpu  time for grad    0.01 s
wall time for grad    0.01 s
 E :    -40.91509289  G :  0.002673    pred/act E change: -0.812D-04 -0.724D-04
Maxdispl :   0.2784   ||displ|| :   0.3058   Lambda : -0.122D-03
Largest |displ|/coords:  0.2784 (   1)  0.0764 (   2)  0.0444 (   4)
................................................................................
.............................. CYCLE   31 ......................................
................................................................................
   1    -41.1112603 -0.411113E+02  0.187E-01    9.26       0.0  T
   2    -41.1112637 -0.334317E-05  0.141E-01    9.26       1.0  T
   3    -41.1112668 -0.309077E-05  0.142E-02    9.26       1.6  T
   4    -41.1112672 -0.414104E-06  0.401E-03    9.26       5.7  T
   5    -41.1112672 -0.121807E-07  0.186E-03    9.26      12.3  T
   6    -41.1112672 -0.257198E-08  0.750E-04    9.26      30.6  T
   7    -41.1112672 -0.122283E-08  0.219E-04    9.26     104.6  T
speedup  0.91
cpu  time for SCC    0.00 s
wall time for SCC    0.00 s
speedup  1.01
cpu  time for grad    0.01 s
wall time for grad    0.01 s
 E :    -40.91516354  G :  0.005904    pred/act E change: -0.472D-04 -0.707D-04
Maxdispl :   0.1067   ||displ|| :   0.1399   Lambda : -0.756D-04
Largest |displ|/coords:  0.1067 (   1)  0.0756 (   2)  0.0193 (   7)
................................................................................
.............................. CYCLE   32 ......................................
................................................................................
   1    -41.1130881 -0.411131E+02  0.706E-02    9.27       0.0  T
   2    -41.1130894 -0.121788E-05  0.526E-02    9.27       1.0  T
   3    -41.1130900 -0.603223E-06  0.837E-03    9.27       2.7  T
   4    -41.1130901 -0.174406E-06  0.210E-03    9.27      10.9  T
   5    -41.1130902 -0.869031E-08  0.737E-04    9.27      31.1  T
speedup  0.97
cpu  time for SCC    0.00 s
wall time for SCC    0.00 s
speedup  0.98
cpu  time for grad    0.01 s
wall time for grad    0.01 s
 E :    -40.91518542  G :  0.005371    pred/act E change: -0.666D-04 -0.219D-04
Maxdispl :   0.1211   ||displ|| :   0.1424   Lambda : -0.572D-04
Largest |displ|/coords:  0.1211 (   1)  0.0469 (   2)  0.0279 (   5)
................................................................................
.............................. CYCLE   33 ......................................
................................................................................
   1    -41.1122088 -0.411122E+02  0.875E-02    9.26       0.0  T
   2    -41.1122097 -0.869700E-06  0.659E-02    9.26       1.0  T
   3    -41.1122105 -0.847525E-06  0.635E-03    9.27       3.6  T
   4    -41.1122106 -0.102016E-06  0.189E-03    9.27      12.1  T
   5    -41.1122106 -0.273052E-08  0.938E-04    9.27      24.5  T
speedup  0.94
cpu  time for SCC    0.00 s
wall time for SCC    0.00 s
speedup  1.08
cpu  time for grad    0.01 s
wall time for grad    0.01 s
 E :    -40.91522065  G :  0.002910    pred/act E change: -0.385D-04 -0.352D-04
Maxdispl :   0.0673   ||displ|| :   0.0984   Lambda : -0.351D-04
Largest |displ|/coords:  0.0673 (   1)  0.0606 (   2)  0.0194 (   4)
................................................................................
.............................. CYCLE   34 ......................................
................................................................................
   1    -41.1122087 -0.411122E+02  0.569E-02    9.27       0.0  T
   2    -41.1122089 -0.191131E-06  0.429E-02    9.27       1.0  T
   3    -41.1122092 -0.264753E-06  0.289E-03    9.27       7.9  T
   4    -41.1122092 -0.597883E-08  0.924E-04    9.27      24.8  T
   5    -41.1122092 -0.683862E-09  0.448E-04    9.27      51.2  T
speedup  0.94
cpu  time for SCC    0.00 s
wall time for SCC    0.00 s
speedup  1.05
cpu  time for grad    0.01 s
wall time for grad    0.01 s
 E :    -40.91524769  G :  0.002820    pred/act E change: -0.292D-04 -0.270D-04
Maxdispl :   0.1698   ||displ|| :   0.2256   Lambda : -0.709D-04
Largest |displ|/coords:  0.1698 (   2)  0.1272 (   1)  0.0351 (   4)
................................................................................
.............................. CYCLE   35 ......................................
................................................................................
   1    -41.1127001 -0.411127E+02  0.125E-01    9.27       0.0  T
   2    -41.1127010 -0.867449E-06  0.936E-02    9.27       1.0  T
   3    -41.1127020 -0.950359E-06  0.754E-03    9.27       3.0  T
   4    -41.1127020 -0.696838E-07  0.210E-03    9.27      10.9  T
   5    -41.1127020 -0.393859E-08  0.103E-03    9.27      22.3  T
   6    -41.1127020 -0.122668E-08  0.512E-04    9.27      44.8  T
   7    -41.1127020 -0.261984E-09  0.942E-05    9.27     243.6  T
speedup  0.93
cpu  time for SCC    0.00 s
wall time for SCC    0.00 s
speedup  1.03
cpu  time for grad    0.01 s
wall time for grad    0.01 s
 E :    -40.91529981  G :  0.003701    pred/act E change: -0.177D-04 -0.521D-04
Maxdispl :   0.2955   ||displ|| :   0.3906   Lambda : -0.923D-04
Largest |displ|/coords:  0.2955 (   2)  0.2275 (   1)  0.0705 (   4)
................................................................................
.............................. CYCLE   36 ......................................
................................................................................
   1    -41.1114205 -0.411114E+02  0.218E-01    9.26       0.0  T
   2    -41.1114228 -0.222833E-05  0.164E-01    9.26       1.0  T
   3    -41.1114255 -0.273397E-05  0.126E-02    9.26       1.8  T
   4    -41.1114256 -0.119220E-06  0.386E-03    9.26       5.9  T
   5    -41.1114256 -0.133424E-07  0.163E-03    9.26      14.1  T
   6    -41.1114256 -0.239624E-08  0.898E-04    9.26      25.6  T
   7    -41.1114256 -0.713825E-09  0.132E-04    9.26     173.4  T
speedup  0.91
cpu  time for SCC    0.00 s
wall time for SCC    0.00 s
speedup  0.92
cpu  time for grad    0.01 s
wall time for grad    0.01 s
 E :    -40.91534632  G :  0.007390    pred/act E change: -0.373D-04 -0.465D-04
Maxdispl :   0.2283   ||displ|| :   0.2655   Lambda : -0.156D-03
Largest |displ|/coords:  0.2283 (   2)  0.0730 (   6)  0.0542 (   5)
................................................................................
.............................. CYCLE   37 ......................................
................................................................................
   1    -41.1132872 -0.411133E+02  0.157E-01    9.26       0.0  T
   2    -41.1132905 -0.323210E-05  0.117E-01    9.26       1.0  T
   3    -41.1132929 -0.244118E-05  0.143E-02    9.25       1.6  T
   4    -41.1132933 -0.406407E-06  0.382E-03    9.25       6.0  T
   5    -41.1132933 -0.133875E-07  0.140E-03    9.25      16.4  T
   6    -41.1132933 -0.185269E-08  0.758E-04    9.25      30.3  T
speedup  1.05
cpu  time for SCC    0.00 s
wall time for SCC    0.00 s
speedup  1.01
cpu  time for grad    0.01 s
wall time for grad    0.01 s
 E :    -40.91538023  G :  0.009686    pred/act E change: -0.532D-04 -0.339D-04
Maxdispl :   0.1590   ||displ|| :   0.2008   Lambda : -0.180D-03
Largest |displ|/coords:  0.1590 (   1)  0.0938 (   2)  0.0355 (   6)
................................................................................
.............................. CYCLE   38 ......................................
................................................................................
   1    -41.1126038 -0.411126E+02  0.103E-01    9.25       0.0  T
   2    -41.1126064 -0.265571E-05  0.770E-02    9.25       1.0  T
   3    -41.1126083 -0.188829E-05  0.128E-02    9.25       1.8  T
   4    -41.1126087 -0.376980E-06  0.329E-03    9.25       7.0  T
   5    -41.1126087 -0.141414E-07  0.141E-03    9.25      16.3  T
   6    -41.1126087 -0.155940E-08  0.708E-04    9.25      32.4  T
speedup  1.08
cpu  time for SCC    0.00 s
wall time for SCC    0.00 s
speedup  1.00
cpu  time for grad    0.01 s
wall time for grad    0.01 s
 E :    -40.91545674  G :  0.008095    pred/act E change: -0.837D-04 -0.765D-04
Maxdispl :   0.0529   ||displ|| :   0.0974   Lambda : -0.151D-03
Largest |displ|/coords:  0.0529 (   2)  0.0403 (   8)  0.0386 (   4)
................................................................................
.............................. CYCLE   39 ......................................
................................................................................
   1    -41.1128512 -0.411129E+02  0.700E-02    9.25       0.0  T
   2    -41.1128521 -0.907031E-06  0.525E-02    9.25       1.0  T
   3    -41.1128528 -0.775682E-06  0.711E-03    9.26       3.2  T
   4    -41.1128529 -0.103774E-06  0.214E-03    9.26      10.7  T
   5    -41.1128529 -0.388992E-08  0.769E-04    9.26      29.8  T
speedup  0.97
cpu  time for SCC    0.00 s
wall time for SCC    0.00 s
speedup  0.98
cpu  time for grad    0.01 s
wall time for grad    0.01 s
 E :    -40.91551141  G :  0.005267    pred/act E change: -0.939D-04 -0.547D-04
Maxdispl :   0.2770   ||displ|| :   0.3356   Lambda : -0.898D-04
Largest |displ|/coords:  0.2770 (   2)  0.1447 (   1)  0.0634 (   6)
................................................................................
.............................. CYCLE   40 ......................................
................................................................................
   1    -41.1107999 -0.411108E+02  0.173E-01    9.25       0.0  T
   2    -41.1108019 -0.206673E-05  0.130E-01    9.25       1.0  T
   3    -41.1108039 -0.196204E-05  0.128E-02    9.25       1.8  T
   4    -41.1108041 -0.207244E-06  0.361E-03    9.25       6.4  T
   5    -41.1108041 -0.139858E-07  0.140E-03    9.25      16.4  T
   6    -41.1108041 -0.176809E-08  0.821E-04    9.25      28.0  T
speedup  1.08
cpu  time for SCC    0.00 s
wall time for SCC    0.00 s
speedup  1.01
cpu  time for grad    0.01 s
wall time for grad    0.01 s
 E :    -40.91555659  G :  0.007999    pred/act E change: -0.762D-04 -0.452D-04
Maxdispl :   0.1322   ||displ|| :   0.1819   Lambda : -0.162D-03
Largest |displ|/coords:  0.1322 (   2)  0.0722 (   6)  0.0535 (   9)
................................................................................
.............................. CYCLE   41 ......................................
................................................................................
   1    -41.1129341 -0.411129E+02  0.995E-02    9.25       0.0  T
   2    -41.1129368 -0.267918E-05  0.740E-02    9.25       1.0  T
   3    -41.1129386 -0.187680E-05  0.126E-02    9.25       1.8  T
   4    -41.1129390 -0.324761E-06  0.399E-03    9.25       5.7  T
   5    -41.1129390 -0.192131E-07  0.117E-03    9.25      19.6  T
   6    -41.1129390 -0.108997E-08  0.699E-04    9.25      32.8  T
speedup  0.79
cpu  time for SCC    0.00 s
wall time for SCC    0.00 s
speedup  0.90
cpu  time for grad    0.01 s
wall time for grad    0.01 s
 E :    -40.91557740  G :  0.009191    pred/act E change: -0.499D-04 -0.208D-04
Maxdispl :   0.1054   ||displ|| :   0.1449   Lambda : -0.128D-03
Largest |displ|/coords:  0.1054 (   1)  0.0664 (   2)  0.0524 (   4)
................................................................................
.............................. CYCLE   42 ......................................
................................................................................
   1    -41.1124891 -0.411125E+02  0.831E-02    9.26       0.0  T
   2    -41.1124899 -0.789596E-06  0.622E-02    9.25       1.0  T
   3    -41.1124905 -0.638607E-06  0.800E-03    9.25       2.9  T
   4    -41.1124906 -0.100330E-06  0.209E-03    9.26      11.0  T
   5    -41.1124906 -0.386110E-08  0.771E-04    9.26      29.8  T
speedup  0.97
cpu  time for SCC    0.00 s
wall time for SCC    0.00 s
speedup  0.98
cpu  time for grad    0.01 s
wall time for grad    0.01 s
 E :    -40.91566069  G :  0.003975    pred/act E change: -0.839D-04 -0.833D-04
Maxdispl :   0.2490   ||displ|| :   0.3317   Lambda : -0.784D-04
Largest |displ|/coords:  0.2490 (   2)  0.1638 (   1)  0.0701 (   4)
................................................................................
.............................. CYCLE   43 ......................................
................................................................................
   1    -41.1109791 -0.411110E+02  0.166E-01    9.26       0.0  T
   2    -41.1109809 -0.182908E-05  0.124E-01    9.26       1.0  T
   3    -41.1109828 -0.187244E-05  0.135E-02    9.26       1.7  T
   4    -41.1109830 -0.166737E-06  0.355E-03    9.26       6.5  T
   5    -41.1109830 -0.132953E-07  0.140E-03    9.26      16.4  T
   6    -41.1109830 -0.177546E-08  0.805E-04    9.26      28.5  T
   7    -41.1109830 -0.673225E-09  0.165E-04    9.26     139.0  T
speedup  1.16
cpu  time for SCC    0.00 s
wall time for SCC    0.00 s
speedup  1.02
cpu  time for grad    0.01 s
wall time for grad    0.01 s
 E :    -40.91570243  G :  0.008216    pred/act E change: -0.653D-04 -0.417D-04
Maxdispl :   0.0754   ||displ|| :   0.1218   Lambda : -0.772D-04
Largest |displ|/coords:  0.0754 (   2)  0.0505 (   1)  0.0333 (   4)
................................................................................
.............................. CYCLE   44 ......................................
................................................................................
   1    -41.1125982 -0.411126E+02  0.622E-02    9.27       0.0  T
   2    -41.1125989 -0.660750E-06  0.462E-02    9.27       1.0  T
   3    -41.1125994 -0.511148E-06  0.690E-03    9.27       3.3  T
   4    -41.1125994 -0.754839E-07  0.166E-03    9.27      13.8  T
   5    -41.1125994 -0.285949E-08  0.679E-04    9.27      33.8  T
speedup  0.94
cpu  time for SCC    0.00 s
wall time for SCC    0.00 s
speedup  0.96
cpu  time for grad    0.01 s
wall time for grad    0.01 s
 E :    -40.91575555  G :  0.006411    pred/act E change: -0.435D-04 -0.531D-04
Maxdispl :   0.2865   ||displ|| :   0.4003   Lambda : -0.129D-03
Largest |displ|/coords:  0.2865 (   2)  0.1723 (   1)  0.1086 (   6)
................................................................................
.............................. CYCLE   45 ......................................
................................................................................
   1    -41.1128279 -0.411128E+02  0.196E-01    9.28       0.0  T
   2    -41.1128314 -0.351453E-05  0.146E-01    9.28       1.0  T
   3    -41.1128348 -0.342365E-05  0.185E-02    9.28       1.2  T
   4    -41.1128351 -0.327988E-06  0.503E-03    9.28       4.6  T
   5    -41.1128352 -0.297026E-07  0.178E-03    9.28      12.9  T
   6    -41.1128352 -0.311452E-08  0.112E-03    9.28      20.4  T
speedup  1.08
cpu  time for SCC    0.00 s
wall time for SCC    0.00 s
speedup  1.01
cpu  time for grad    0.01 s
wall time for grad    0.01 s
 E :    -40.91585416  G :  0.005878    pred/act E change: -0.392D-04 -0.986D-04
Maxdispl :   0.3743   ||displ|| :   0.5107   Lambda : -0.183D-03
Largest |displ|/coords:  0.3743 (   2)  0.1676 (   1)  0.1377 (   6)
................................................................................
.............................. CYCLE   46 ......................................
................................................................................
   1    -41.1127975 -0.411128E+02  0.260E-01    9.28       0.0  T
   2    -41.1128035 -0.601943E-05  0.194E-01    9.28       1.0  T
   3    -41.1128097 -0.618043E-05  0.231E-02    9.28       1.0  T
   4    -41.1128102 -0.500959E-06  0.721E-03    9.28       3.2  T
   5    -41.1128102 -0.546538E-07  0.237E-03    9.28       9.7  T
   6    -41.1128102 -0.570503E-08  0.152E-03    9.28      15.1  T
speedup  1.08
cpu  time for SCC    0.00 s
wall time for SCC    0.00 s
speedup  1.01
cpu  time for grad    0.01 s
wall time for grad    0.01 s
 E :    -40.91596026  G :  0.007849    pred/act E change: -0.749D-04 -0.106D-03
Maxdispl :   0.2177   ||displ|| :   0.3440   Lambda : -0.137D-03
Largest |displ|/coords:  0.2177 (   2)  0.1406 (   1)  0.1015 (   4)
................................................................................
.............................. CYCLE   47 ......................................
................................................................................
   1    -41.1129524 -0.411130E+02  0.175E-01    9.26       0.0  T
   2    -41.1129549 -0.245310E-05  0.131E-01    9.27       1.0  T
   3    -41.1129574 -0.248703E-05  0.160E-02    9.27       1.4  T
   4    -41.1129576 -0.195802E-06  0.444E-03    9.27       5.2  T
   5    -41.1129576 -0.233820E-07  0.144E-03    9.27      15.9  T
   6    -41.1129576 -0.207114E-08  0.962E-04    9.27      23.8  T
speedup  0.81
cpu  time for SCC    0.00 s
wall time for SCC    0.00 s
speedup  1.02
cpu  time for grad    0.01 s
wall time for grad    0.01 s
 E :    -40.91607103  G :  0.006486    pred/act E change: -0.115D-03 -0.111D-03
Maxdispl :   0.1649   ||displ|| :   0.3986   Lambda : -0.463D-03
Largest |displ|/coords:  0.1649 (   7)  0.1508 (   4)  0.1305 (   6)
................................................................................
.............................. CYCLE   48 ......................................
................................................................................
   1    -41.1247380 -0.411247E+02  0.245E-01    9.26       0.0  T
   2    -41.1247616 -0.236661E-04  0.182E-01    9.26       1.0  T
   3    -41.1247766 -0.149890E-04  0.341E-02    9.27       1.0  T
   4    -41.1247796 -0.293649E-05  0.136E-02    9.27       1.7  T
   5    -41.1247798 -0.211765E-06  0.381E-03    9.27       6.0  T
   6    -41.1247798 -0.115059E-07  0.229E-03    9.27      10.0  T
   7    -41.1247798 -0.736072E-08  0.698E-04    9.27      32.9  T
speedup  1.16
cpu  time for SCC    0.00 s
wall time for SCC    0.00 s
speedup  1.03
cpu  time for grad    0.01 s
wall time for grad    0.01 s
 E :    -40.91567498  G :  0.030948    pred/act E change: -0.766D-04  0.396D-03
Maxdispl :   0.2076   ||displ|| :   0.2881   Lambda : -0.120D-02
Largest |displ|/coords:  0.2076 (   2)  0.1523 (   1)  0.0575 (   4)
................................................................................
.............................. CYCLE   49 ......................................
................................................................................
   1    -41.1155092 -0.411155E+02  0.167E-01    9.25       0.0  T
   2    -41.1155222 -0.130284E-04  0.124E-01    9.25       1.0  T
   3    -41.1155296 -0.733876E-05  0.261E-02    9.25       1.0  T
   4    -41.1155311 -0.153800E-05  0.693E-03    9.25       3.3  T
   5    -41.1155312 -0.940244E-07  0.253E-03    9.25       9.1  T
   6    -41.1155312 -0.302798E-08  0.149E-03    9.25      15.4  T
speedup  1.05
cpu  time for SCC    0.00 s
wall time for SCC    0.00 s
speedup  1.00
cpu  time for grad    0.01 s
wall time for grad    0.01 s
 E :    -40.91624424  G :  0.015404    pred/act E change: -0.268D-03 -0.569D-03
Maxdispl :   0.1536   ||displ|| :   0.1856   Lambda : -0.458D-03
Largest |displ|/coords:  0.1536 (   2)  0.0600 (   1)  0.0430 (  13)
................................................................................
.............................. CYCLE   50 ......................................
................................................................................
   1    -41.1122465 -0.411122E+02  0.144E-01    9.24       0.0  T
   2    -41.1122518 -0.524632E-05  0.108E-01    9.24       1.0  T
   3    -41.1122563 -0.451161E-05  0.145E-02    9.24       1.6  T
   4    -41.1122569 -0.586113E-06  0.434E-03    9.24       5.3  T
   5    -41.1122569 -0.149617E-07  0.180E-03    9.24      12.8  T
   6    -41.1122569 -0.284245E-08  0.782E-04    9.24      29.3  T
speedup  1.08
cpu  time for SCC    0.00 s
wall time for SCC    0.00 s
speedup  1.01
cpu  time for grad    0.01 s
wall time for grad    0.01 s
 E :    -40.91617150  G :  0.017148    pred/act E change: -0.648D-03  0.727D-04
Maxdispl :   0.1315   ||displ|| :   0.2270   Lambda : -0.553D-03
Largest |displ|/coords:  0.1315 (   1)  0.0669 (   4)  0.0597 (   7)
................................................................................
.............................. CYCLE   51 ......................................
................................................................................
   1    -41.1147203 -0.411147E+02  0.135E-01    9.24       0.0  T
   2    -41.1147234 -0.313447E-05  0.102E-01    9.24       1.0  T
   3    -41.1147272 -0.380645E-05  0.130E-02    9.24       1.8  T
   4    -41.1147274 -0.194941E-06  0.319E-03    9.24       7.2  T
   5    -41.1147274 -0.102286E-07  0.174E-03    9.24      13.2  T
   6    -41.1147274 -0.419976E-08  0.647E-04    9.24      35.5  T
speedup  0.81
cpu  time for SCC    0.00 s
wall time for SCC    0.00 s
speedup  1.01
cpu  time for grad    0.01 s
wall time for grad    0.01 s
 E :    -40.91643774  G :  0.008356    pred/act E change: -0.237D-03 -0.266D-03
Maxdispl :   0.1428   ||displ|| :   0.3727   Lambda : -0.407D-03
Largest |displ|/coords:  0.1428 (   7)  0.1412 (   4)  0.1333 (   2)
................................................................................
.............................. CYCLE   52 ......................................
................................................................................
   1    -41.1153083 -0.411153E+02  0.247E-01    9.20       0.0  T
   2    -41.1153172 -0.886287E-05  0.186E-01    9.21       1.0  T
   3    -41.1153276 -0.104391E-04  0.236E-02    9.21       1.0  T
   4    -41.1153282 -0.604317E-06  0.630E-03    9.21       3.6  T
   5    -41.1153283 -0.471744E-07  0.304E-03    9.21       7.5  T
   6    -41.1153283 -0.116310E-07  0.174E-03    9.21      13.2  T
   7    -41.1153283 -0.492573E-08  0.434E-04    9.21      52.9  T
speedup  1.14
cpu  time for SCC    0.01 s
wall time for SCC    0.00 s
speedup  1.04
cpu  time for grad    0.01 s
wall time for grad    0.01 s
 E :    -40.91627439  G :  0.025755    pred/act E change: -0.291D-03  0.163D-03
Maxdispl :   0.0545   ||displ|| :   0.1190   Lambda : -0.686D-03
Largest |displ|/coords:  0.0545 (   1)  0.0380 (   6)  0.0344 (  11)

generating ANC from model Hessian ...
 Shifting diagonal of input Hessian by   4.994185712112280E-003
 Lowest  eigenvalues of input Hessian
   -0.000000   -0.000000   -0.000000   -0.000000    0.000000    0.000000
    0.005000    0.005457    0.006084    0.006650    0.007233    0.009688
    0.012244    0.013089    0.017270    0.019506    0.021936    0.024452
 Highest eigenvalues
    1.405733    1.408476    1.414294    2.549631    3.496065    3.658923
 
cpu  time for ANC gen    0.01 s
wall time for ANC gen    0.01 s
................................................................................
.............................. CYCLE   53 ......................................
................................................................................
   1    -41.1169134 -0.411169E+02  0.105E-01    9.25       0.0  T
   2    -41.1169174 -0.395923E-05  0.780E-02    9.25       1.0  T
   3    -41.1169208 -0.343336E-05  0.159E-02    9.25       1.4  T
   4    -41.1169212 -0.392663E-06  0.566E-03    9.25       4.1  T
   5    -41.1169212 -0.332961E-07  0.156E-03    9.25      14.7  T
   6    -41.1169212 -0.220209E-08  0.894E-04    9.25      25.6  T
   7    -41.1169212 -0.983917E-09  0.264E-04    9.25      86.7  T
speedup  0.91
cpu  time for SCC    0.00 s
wall time for SCC    0.00 s
speedup  1.01
cpu  time for grad    0.01 s
wall time for grad    0.01 s
 E :    -40.91664006  G :  0.008760    pred/act E change:  0.000D+00 -0.366D-03
Maxdispl :   0.0918   ||displ|| :   0.1417   Lambda : -0.245D-03
Largest |displ|/coords:  0.0918 (   4)  0.0567 (   1)  0.0477 (   2)
................................................................................
.............................. CYCLE   54 ......................................
................................................................................
   1    -41.1164869 -0.411165E+02  0.133E-01    9.25       0.0  T
   2    -41.1164882 -0.136925E-05  0.100E-01    9.25       1.0  T
   3    -41.1164897 -0.145132E-05  0.854E-03    9.25       2.7  T
   4    -41.1164898 -0.115802E-06  0.266E-03    9.25       8.6  T
   5    -41.1164898 -0.515220E-08  0.977E-04    9.25      23.5  T
speedup  0.94
cpu  time for SCC    0.00 s
wall time for SCC    0.00 s
speedup  0.95
cpu  time for grad    0.01 s
wall time for grad    0.01 s
 E :    -40.91684477  G :  0.003922    pred/act E change:  0.000D+00 -0.205D-03
Maxdispl :   0.3003   ||displ|| :   0.4250   Lambda : -0.495D-03
Largest |displ|/coords:  0.3003 (   4)  0.1514 (   2)  0.1508 (   1)
................................................................................
.............................. CYCLE   55 ......................................
................................................................................
   1    -41.1117472 -0.411117E+02  0.414E-01    9.17       0.0  T
   2    -41.1117607 -0.134759E-04  0.311E-01    9.17       1.0  T
   3    -41.1117770 -0.163425E-04  0.269E-02    9.18       1.0  T
   4    -41.1117777 -0.734974E-06  0.780E-03    9.18       2.9  T
   5    -41.1117778 -0.490115E-07  0.337E-03    9.18       6.8  T
   6    -41.1117778 -0.116408E-07  0.166E-03    9.18      13.8  T
   7    -41.1117778 -0.263239E-08  0.334E-04    9.18      68.7  T
   8    -41.1117778 -0.315218E-09  0.133E-04    9.18     172.1  T
speedup  1.00
cpu  time for SCC    0.01 s
wall time for SCC    0.01 s
speedup  1.05
cpu  time for grad    0.01 s
wall time for grad    0.01 s
 E :    -40.91708732  G :  0.017193    pred/act E change: -0.125D-03 -0.243D-03
Maxdispl :   0.0856   ||displ|| :   0.1625   Lambda : -0.440D-03
Largest |displ|/coords:  0.0856 (   4)  0.0822 (   8)  0.0733 (   9)
................................................................................
.............................. CYCLE   56 ......................................
................................................................................
   1    -41.1129214 -0.411129E+02  0.172E-01    9.13       0.0  T
   2    -41.1129296 -0.821143E-05  0.129E-01    9.13       1.0  T
   3    -41.1129367 -0.706674E-05  0.192E-02    9.13       1.2  T
   4    -41.1129376 -0.931249E-06  0.511E-03    9.13       4.5  T
   5    -41.1129377 -0.306738E-07  0.187E-03    9.13      12.3  T
   6    -41.1129377 -0.242597E-08  0.102E-03    9.13      22.5  T
speedup  0.79
cpu  time for SCC    0.00 s
wall time for SCC    0.00 s
speedup  1.00
cpu  time for grad    0.01 s
wall time for grad    0.01 s
 E :    -40.91723464  G :  0.010910    pred/act E change: -0.292D-03 -0.147D-03
Maxdispl :   0.0614   ||displ|| :   0.1086   Lambda : -0.254D-03
Largest |displ|/coords:  0.0614 (   4)  0.0389 (   2)  0.0359 (   1)
................................................................................
.............................. CYCLE   57 ......................................
................................................................................
   1    -41.1143441 -0.411143E+02  0.118E-01    9.15       0.0  T
   2    -41.1143463 -0.226426E-05  0.894E-02    9.15       1.0  T
   3    -41.1143488 -0.246231E-05  0.106E-02    9.15       2.2  T
   4    -41.1143490 -0.181659E-06  0.339E-03    9.15       6.8  T
   5    -41.1143490 -0.102481E-07  0.100E-03    9.15      22.8  T
   6    -41.1143490 -0.626351E-09  0.571E-04    9.15      40.2  T
speedup  0.79
cpu  time for SCC    0.00 s
wall time for SCC    0.00 s
speedup  0.98
cpu  time for grad    0.01 s
wall time for grad    0.01 s
 E :    -40.91741496  G :  0.007194    pred/act E change: -0.226D-03 -0.180D-03
Maxdispl :   0.2898   ||displ|| :   0.3929   Lambda : -0.394D-03
Largest |displ|/coords:  0.2898 (   4)  0.1626 (   2)  0.1406 (   1)
................................................................................
.............................. CYCLE   58 ......................................
................................................................................
   1    -41.1119469 -0.411119E+02  0.359E-01    9.11       0.0  T
   2    -41.1119630 -0.161345E-04  0.270E-01    9.11       1.0  T
   3    -41.1119795 -0.164780E-04  0.309E-02    9.11       1.0  T
   4    -41.1119810 -0.147129E-05  0.991E-03    9.11       2.3  T
   5    -41.1119811 -0.101827E-06  0.343E-03    9.11       6.7  T
   6    -41.1119811 -0.787049E-08  0.188E-03    9.11      12.2  T
   7    -41.1119811 -0.649075E-08  0.494E-04    9.11      46.4  T
speedup  0.91
cpu  time for SCC    0.00 s
wall time for SCC    0.00 s
speedup  0.94
cpu  time for grad    0.01 s
wall time for grad    0.01 s
 E :    -40.91742704  G :  0.024703    pred/act E change: -0.128D-03 -0.121D-04
Maxdispl :   0.0680   ||displ|| :   0.1255   Lambda : -0.577D-03
Largest |displ|/coords:  0.0680 (   4)  0.0619 (   6)  0.0429 (   2)
................................................................................
.............................. CYCLE   59 ......................................
................................................................................
   1    -41.1176391 -0.411176E+02  0.149E-01    9.23       0.0  T
   2    -41.1176464 -0.730253E-05  0.111E-01    9.23       1.0  T
   3    -41.1176519 -0.552822E-05  0.201E-02    9.22       1.1  T
   4    -41.1176527 -0.802992E-06  0.561E-03    9.22       4.1  T
   5    -41.1176527 -0.444361E-07  0.210E-03    9.22      10.9  T
speedup  0.94
cpu  time for SCC    0.00 s
wall time for SCC    0.00 s
speedup  0.95
cpu  time for grad    0.01 s
wall time for grad    0.01 s
 E :    -40.91766157  G :  0.006257    pred/act E change: -0.227D-03 -0.235D-03
Maxdispl :   0.0937   ||displ|| :   0.1801   Lambda : -0.186D-03
Largest |displ|/coords:  0.0937 (   4)  0.0809 (   2)  0.0735 (   1)
................................................................................
.............................. CYCLE   60 ......................................
................................................................................
   1    -41.1158426 -0.411158E+02  0.141E-01    9.19       0.0  T
   2    -41.1158447 -0.204587E-05  0.106E-01    9.19       1.0  T
   3    -41.1158471 -0.238335E-05  0.106E-02    9.19       2.2  T
   4    -41.1158472 -0.140855E-06  0.301E-03    9.19       7.6  T
   5    -41.1158472 -0.976123E-08  0.123E-03    9.19      18.6  T
   6    -41.1158472 -0.142087E-08  0.623E-04    9.19      36.8  T
speedup  1.05
cpu  time for SCC    0.00 s
wall time for SCC    0.00 s
speedup  1.00
cpu  time for grad    0.01 s
wall time for grad    0.01 s
 E :    -40.91773308  G :  0.005067    pred/act E change: -0.293D-03 -0.715D-04
Maxdispl :   0.1103   ||displ|| :   0.1554   Lambda : -0.161D-03
Largest |displ|/coords:  0.1103 (   4)  0.0625 (   2)  0.0564 (   1)
................................................................................
.............................. CYCLE   61 ......................................
................................................................................
   1    -41.1165349 -0.411165E+02  0.132E-01    9.22       0.0  T
   2    -41.1165367 -0.176332E-05  0.995E-02    9.22       1.0  T
   3    -41.1165386 -0.193805E-05  0.969E-03    9.22       2.4  T
   4    -41.1165388 -0.137238E-06  0.308E-03    9.22       7.5  T
   5    -41.1165388 -0.854869E-08  0.111E-03    9.22      20.7  T
   6    -41.1165388 -0.108184E-08  0.596E-04    9.22      38.5  T
speedup  1.05
cpu  time for SCC    0.00 s
wall time for SCC    0.00 s
speedup  1.00
cpu  time for grad    0.01 s
wall time for grad    0.01 s
 E :    -40.91784579  G :  0.006612    pred/act E change: -0.961D-04 -0.113D-03
Maxdispl :   0.1073   ||displ|| :   0.1379   Lambda : -0.114D-03
Largest |displ|/coords:  0.1073 (   4)  0.0516 (   1)  0.0281 (   6)
................................................................................
.............................. CYCLE   62 ......................................
................................................................................
   1    -41.1166682 -0.411167E+02  0.131E-01    9.24       0.0  T
   2    -41.1166699 -0.172092E-05  0.991E-02    9.24       1.0  T
   3    -41.1166719 -0.199526E-05  0.825E-03    9.25       2.8  T
   4    -41.1166720 -0.115870E-06  0.320E-03    9.24       7.2  T
   5    -41.1166721 -0.581231E-08  0.995E-04    9.24      23.1  T
   6    -41.1166721 -0.103554E-08  0.593E-04    9.24      38.7  T
speedup  1.05
cpu  time for SCC    0.00 s
wall time for SCC    0.00 s
speedup  1.00
cpu  time for grad    0.01 s
wall time for grad    0.01 s
 E :    -40.91791759  G :  0.008634    pred/act E change: -0.822D-04 -0.718D-04
Maxdispl :   0.0356   ||displ|| :   0.0839   Lambda : -0.109D-03
Largest |displ|/coords:  0.0356 (   4)  0.0333 (   6)  0.0311 (  11)
................................................................................
.............................. CYCLE   63 ......................................
................................................................................
   1    -41.1184867 -0.411185E+02  0.934E-02    9.28       0.0  T
   2    -41.1184881 -0.142993E-05  0.705E-02    9.28       1.0  T
   3    -41.1184891 -0.101568E-05  0.830E-03    9.28       2.8  T
   4    -41.1184893 -0.215424E-06  0.363E-03    9.28       6.3  T
   5    -41.1184893 -0.111601E-07  0.792E-04    9.28      29.0  T
   6    -41.1184893 -0.506624E-09  0.485E-04    9.28      47.3  T
speedup  1.03
cpu  time for SCC    0.00 s
wall time for SCC    0.00 s
speedup  0.99
cpu  time for grad    0.01 s
wall time for grad    0.01 s
 E :    -40.91798873  G :  0.008691    pred/act E change: -0.582D-04 -0.711D-04
Maxdispl :   0.1311   ||displ|| :   0.1812   Lambda : -0.158D-03
Largest |displ|/coords:  0.1311 (   4)  0.0630 (   6)  0.0507 (  11)
................................................................................
.............................. CYCLE   64 ......................................
................................................................................
   1    -41.1170890 -0.411171E+02  0.185E-01    9.22       0.0  T
   2    -41.1170927 -0.366691E-05  0.140E-01    9.23       1.0  T
   3    -41.1170963 -0.366038E-05  0.119E-02    9.23       1.9  T
   4    -41.1170967 -0.355907E-06  0.658E-03    9.23       3.5  T
   5    -41.1170967 -0.225160E-07  0.115E-03    9.23      20.0  T
   6    -41.1170967 -0.983349E-09  0.767E-04    9.23      29.9  T
speedup  1.08
cpu  time for SCC    0.00 s
wall time for SCC    0.00 s
speedup  1.01
cpu  time for grad    0.01 s
wall time for grad    0.01 s
 E :    -40.91809950  G :  0.007255    pred/act E change: -0.551D-04 -0.111D-03
Maxdispl :   0.1109   ||displ|| :   0.1834   Lambda : -0.214D-03
Largest |displ|/coords:  0.1109 (   6)  0.0573 (   4)  0.0520 (  11)
................................................................................
.............................. CYCLE   65 ......................................
................................................................................
   1    -41.1178219 -0.411178E+02  0.183E-01    9.26       0.0  T
   2    -41.1178272 -0.533049E-05  0.139E-01    9.26       1.0  T
   3    -41.1178308 -0.357537E-05  0.165E-02    9.27       1.4  T
   4    -41.1178317 -0.849082E-06  0.788E-03    9.27       2.9  T
   5    -41.1178317 -0.403186E-07  0.138E-03    9.27      16.6  T
   6    -41.1178317 -0.100451E-08  0.916E-04    9.27      25.0  T
speedup  1.03
cpu  time for SCC    0.00 s
wall time for SCC    0.00 s
speedup  0.98
cpu  time for grad    0.01 s
wall time for grad    0.01 s
 E :    -40.91821337  G :  0.007175    pred/act E change: -0.817D-04 -0.114D-03
Maxdispl :   0.0775   ||displ|| :   0.1738   Lambda : -0.167D-03
Largest |displ|/coords:  0.0775 (   5)  0.0771 (   4)  0.0563 (   6)
................................................................................
.............................. CYCLE   66 ......................................
................................................................................
   1    -41.1167214 -0.411167E+02  0.164E-01    9.17       0.0  T
   2    -41.1167246 -0.319294E-05  0.123E-01    9.18       1.0  T
   3    -41.1167282 -0.357191E-05  0.134E-02    9.18       1.7  T
   4    -41.1167284 -0.210191E-06  0.564E-03    9.18       4.1  T
   5    -41.1167284 -0.209293E-07  0.111E-03    9.18      20.7  T
   6    -41.1167284 -0.882103E-09  0.767E-04    9.18      29.9  T
speedup  1.05
cpu  time for SCC    0.00 s
wall time for SCC    0.00 s
speedup  1.00
cpu  time for grad    0.01 s
wall time for grad    0.01 s
 E :    -40.91830783  G :  0.004602    pred/act E change: -0.111D-03 -0.945D-04
Maxdispl :   0.1366   ||displ|| :   0.2401   Lambda : -0.131D-03
Largest |displ|/coords:  0.1366 (   4)  0.0966 (   6)  0.0842 (   5)
................................................................................
[...]
   2    -41.1177638 -0.187485E-08  0.182E-03    9.27      12.6  T
   3    -41.1177638 -0.985281E-09  0.325E-04    9.27      70.5  T
   4    -41.1177638 -0.291159E-09  0.146E-04    9.27     157.6  T
speedup  1.15
cpu  time for SCC    0.00 s
wall time for SCC    0.00 s
speedup  0.99
cpu  time for grad    0.01 s
wall time for grad    0.01 s
 E :    -40.91893189  G :  0.000218    pred/act E change:  0.000D+00 -0.182D-06
Maxdispl :   0.0049   ||displ|| :   0.0089   Lambda : -0.467D-06
Largest |displ|/coords:  0.0049 (   8)  0.0041 (   3)  0.0034 (   7)
................................................................................
.............................. CYCLE  115 ......................................
................................................................................
   1    -41.1177508 -0.411178E+02  0.717E-03    9.28       0.0  T
   2    -41.1177508 -0.125530E-07  0.533E-03    9.28       4.3  T
   3    -41.1177508 -0.710485E-08  0.905E-04    9.28      25.4  T
   4    -41.1177508 -0.181621E-08  0.398E-04    9.28      57.6  T
speedup  1.15
cpu  time for SCC    0.00 s
wall time for SCC    0.00 s
speedup  0.98
cpu  time for grad    0.01 s
wall time for grad    0.01 s
 E :    -40.91893218  G :  0.000294    pred/act E change: -0.117D-06 -0.290D-06
Maxdispl :   0.0043   ||displ|| :   0.0079   Lambda : -0.246D-06
Largest |displ|/coords:  0.0043 (   8)  0.0043 (   3)  0.0027 (   7)
................................................................................
.............................. CYCLE  116 ......................................
................................................................................
   1    -41.1177657 -0.411178E+02  0.609E-03    9.28       0.0  T
   2    -41.1177657 -0.591663E-08  0.453E-03    9.28       5.1  T
   3    -41.1177657 -0.497796E-08  0.683E-04    9.28      33.6  T
   4    -41.1177657 -0.681212E-09  0.286E-04    9.28      80.1  T
speedup  0.77
cpu  time for SCC    0.00 s
wall time for SCC    0.00 s
speedup  0.99
cpu  time for grad    0.01 s
wall time for grad    0.01 s
 E :    -40.91893234  G :  0.000332    pred/act E change: -0.234D-06 -0.158D-06
Maxdispl :   0.0063   ||displ|| :   0.0120   Lambda : -0.321D-06
Largest |displ|/coords:  0.0063 (   3)  0.0059 (   8)  0.0047 (   7)
................................................................................
.............................. CYCLE  117 ......................................
................................................................................
   1    -41.1177908 -0.411178E+02  0.891E-03    9.28       0.0  T
   2    -41.1177908 -0.113322E-07  0.662E-03    9.28       3.5  T
   3    -41.1177908 -0.968938E-08  0.980E-04    9.28      23.4  T
   4    -41.1177909 -0.121950E-08  0.374E-04    9.28      61.3  T
speedup  0.80
cpu  time for SCC    0.00 s
wall time for SCC    0.00 s
speedup  1.00
cpu  time for grad    0.01 s
wall time for grad    0.01 s
 E :    -40.91893259  G :  0.000310    pred/act E change: -0.123D-06 -0.254D-06
Maxdispl :   0.0087   ||displ|| :   0.0184   Lambda : -0.461D-06
Largest |displ|/coords:  0.0087 (   7)  0.0086 (   8)  0.0084 (   3)
................................................................................
.............................. CYCLE  118 ......................................
................................................................................
   1    -41.1178112 -0.411178E+02  0.132E-02    9.28       0.0  T
   2    -41.1178112 -0.246559E-07  0.980E-03    9.28       2.3  T
   3    -41.1178113 -0.231438E-07  0.148E-03    9.28      15.5  T
   4    -41.1178113 -0.231474E-08  0.504E-04    9.28      45.5  T
   5    -41.1178113 -0.188351E-09  0.924E-05    9.28     248.4  T
speedup  0.97
cpu  time for SCC    0.00 s
wall time for SCC    0.00 s
speedup  0.92
cpu  time for grad    0.01 s
wall time for grad    0.01 s
 E :    -40.91893293  G :  0.000299    pred/act E change: -0.160D-06 -0.338D-06
Maxdispl :   0.0074   ||displ|| :   0.0160   Lambda : -0.306D-06
Largest |displ|/coords:  0.0074 (   7)  0.0073 (   8)  0.0070 (   3)
................................................................................
.............................. CYCLE  119 ......................................
................................................................................
   1    -41.1177923 -0.411178E+02  0.116E-02    9.28       0.0  T
   2    -41.1177923 -0.189694E-07  0.865E-03    9.28       2.7  T
   3    -41.1177923 -0.188390E-07  0.125E-03    9.28      18.3  T
   4    -41.1177923 -0.159482E-08  0.378E-04    9.28      60.6  T
   5    -41.1177923 -0.128452E-09  0.769E-05    9.28     298.5  T
speedup  0.94
cpu  time for SCC    0.00 s
wall time for SCC    0.00 s
speedup  0.92
cpu  time for grad    0.01 s
wall time for grad    0.01 s
 E :    -40.91893317  G :  0.000357    pred/act E change: -0.231D-06 -0.239D-06
Maxdispl :   0.0114   ||displ|| :   0.0231   Lambda : -0.377D-06
Largest |displ|/coords:  0.0114 (   7)  0.0106 (   8)  0.0087 (   3)
................................................................................
.............................. CYCLE  120 ......................................
................................................................................
   1    -41.1177360 -0.411177E+02  0.171E-02    9.28       0.0  T
   2    -41.1177361 -0.411957E-07  0.127E-02    9.28       1.8  T
   3    -41.1177361 -0.415701E-07  0.186E-03    9.28      12.3  T
   4    -41.1177361 -0.336880E-08  0.557E-04    9.28      41.2  T
   5    -41.1177361 -0.281695E-09  0.111E-04    9.28     206.6  T
speedup  0.97
cpu  time for SCC    0.00 s
wall time for SCC    0.00 s
speedup  1.05
cpu  time for grad    0.01 s
wall time for grad    0.01 s
 E :    -40.91893342  G :  0.000413    pred/act E change: -0.153D-06 -0.254D-06
Maxdispl :   0.0065   ||displ|| :   0.0136   Lambda : -0.262D-06
Largest |displ|/coords:  0.0065 (   7)  0.0062 (   8)  0.0052 (   4)
................................................................................
.............................. CYCLE  121 ......................................
................................................................................
   1    -41.1176929 -0.411177E+02  0.108E-02    9.28       0.0  T
   2    -41.1176929 -0.160002E-07  0.805E-03    9.28       2.8  T
   3    -41.1176929 -0.168979E-07  0.115E-03    9.28      19.9  T
   4    -41.1176929 -0.119986E-08  0.308E-04    9.28      74.5  T
   5    -41.1176929 -0.988010E-10  0.714E-05    9.28     321.4  T
speedup  0.94
cpu  time for SCC    0.00 s
wall time for SCC    0.00 s
speedup  1.03
cpu  time for grad    0.01 s
wall time for grad    0.01 s
 E :    -40.91893363  G :  0.000363    pred/act E change: -0.189D-06 -0.209D-06
Maxdispl :   0.0094   ||displ|| :   0.0199   Lambda : -0.402D-06
Largest |displ|/coords:  0.0094 (   7)  0.0092 (   8)  0.0082 (   4)
................................................................................
.............................. CYCLE  122 ......................................
................................................................................
   1    -41.1176484 -0.411176E+02  0.164E-02    9.28       0.0  T
   2    -41.1176485 -0.353702E-07  0.123E-02    9.28       1.9  T
   3    -41.1176485 -0.388765E-07  0.176E-03    9.28      13.0  T
   4    -41.1176485 -0.250634E-08  0.481E-04    9.28      47.7  T
   5    -41.1176485 -0.235694E-09  0.114E-04    9.28     200.5  T
speedup  0.94
cpu  time for SCC    0.00 s
wall time for SCC    0.00 s
speedup  0.90
cpu  time for grad    0.01 s
wall time for grad    0.01 s
 E :    -40.91893390  G :  0.000292    pred/act E change: -0.131D-06 -0.270D-06
Maxdispl :   0.0056   ||displ|| :   0.0115   Lambda : -0.194D-06
Largest |displ|/coords:  0.0056 (   8)  0.0050 (   4)  0.0050 (   7)
................................................................................
.............................. CYCLE  123 ......................................
................................................................................
   1    -41.1176533 -0.411177E+02  0.978E-03    9.28       0.0  T
   2    -41.1176533 -0.122421E-07  0.729E-03    9.28       3.1  T
   3    -41.1176533 -0.138395E-07  0.106E-03    9.28      21.7  T
   4    -41.1176533 -0.848978E-09  0.312E-04    9.28      73.5  T
   5    -41.1176533 -0.889315E-10  0.699E-05    9.28     328.1  T
speedup  0.97
cpu  time for SCC    0.00 s
wall time for SCC    0.00 s
speedup  0.93
cpu  time for grad    0.01 s
wall time for grad    0.01 s
 E :    -40.91893405  G :  0.000245    pred/act E change: -0.201D-06 -0.149D-06
Maxdispl :   0.0080   ||displ|| :   0.0157   Lambda : -0.205D-06
Largest |displ|/coords:  0.0080 (   8)  0.0070 (   7)  0.0058 (   4)
................................................................................
.............................. CYCLE  124 ......................................
................................................................................
   1    -41.1176740 -0.411177E+02  0.132E-02    9.28       0.0  T
   2    -41.1176740 -0.227859E-07  0.983E-03    9.28       2.3  T
   3    -41.1176740 -0.253191E-07  0.142E-03    9.28      16.2  T
   4    -41.1176740 -0.164908E-08  0.463E-04    9.28      49.5  T
   5    -41.1176740 -0.169571E-09  0.921E-05    9.28     249.0  T
speedup  0.97
cpu  time for SCC    0.00 s
wall time for SCC    0.00 s
speedup  1.05
cpu  time for grad    0.01 s
wall time for grad    0.01 s
 E :    -40.91893419  G :  0.000179    pred/act E change: -0.972D-07 -0.141D-06
Maxdispl :   0.0048   ||displ|| :   0.0096   Lambda : -0.945D-07
Largest |displ|/coords:  0.0048 (   8)  0.0041 (   7)  0.0033 (   4)
................................................................................
.............................. CYCLE  125 ......................................
................................................................................
   1    -41.1176876 -0.411177E+02  0.795E-03    9.28       0.0  T
   2    -41.1176876 -0.880106E-08  0.595E-03    9.28       3.9  T
   3    -41.1176876 -0.947626E-08  0.824E-04    9.28      27.8  T
   4    -41.1176876 -0.671520E-09  0.311E-04    9.28      73.7  T
speedup  0.80
cpu  time for SCC    0.00 s
wall time for SCC    0.00 s
speedup  1.00
cpu  time for grad    0.01 s
wall time for grad    0.01 s
 E :    -40.91893426  G :  0.000119    pred/act E change: -0.102D-06 -0.697D-07
Maxdispl :   0.0026   ||displ|| :   0.0055   Lambda : -0.433D-07
Largest |displ|/coords:  0.0026 (   8)  0.0026 (   7)  0.0021 (   3)

   *** GEOMETRY OPTIMIZATION CONVERGED AFTER 125 ITERATIONS ***

------------------------------------------------------------------------
 total energy gain (kcal):     -0.0016
------------------------------------------------------------------------
================
 final structure:
================
$coord
        1.93043786137778        1.50377135837426       -2.18606416605844      S 
        1.72281369199534        4.16689127277862       -1.65778056947364      O 
        3.05703271316212        0.00600476146218       -0.18794511915183      O 
       -0.48697445982668        0.40853048268981       -3.01217775850387      O 
        3.76953307121275        1.24710833373949       -4.54218541222317      O 
        3.42600852587809        2.73954592822148       -5.48774163630563      H 
       -4.24522356139176        0.46340307498038        2.70158165045451      O 
       -2.67396523931062        1.46690099203836        2.94442440090128      H 
       -5.46800472755557        1.60424193698850        2.00222253812502      H 
        1.47685699792535       -4.35391593963486        1.38044635985180      O 
        2.28168627187784       -2.72600099449520        0.91427084237647      H 
        2.39893244660272       -5.64669210419408        0.50732492504256      H 
        0.01522171327251        2.98977384369986        2.87826274239572      O 
        0.49754017029738        3.77423355039401        1.27418139086105      H 
        1.40670501155398        1.88749233346878        3.26955204143030      H 
       -2.67536137350394       -2.78202730368200       -0.43541948005542      O 
       -1.78550037427871       -1.46653664243083       -1.68947345954607      H 
       -1.17378153143657       -3.66811325264395        0.40861712426794      H 
       -3.47395718905346       -1.61461161291012        0.91790356667379      H 
$end
 
 Bond Distances (Angstroems)
 ---------------------------
S1-O2=1.4409         S1-O3=1.4497         S1-O4=1.4709         S1-O5=1.5875         O2-S1=1.4409         O3-S1=1.4497         
O4-S1=1.4709         O5-S1=1.5875         O5-H6=0.9524         H6-O5=0.9524         O7-H8=0.9949         O7-H9=0.9592         
H8-O7=0.9949         H9-O7=0.9592         O10-H11=0.9921       O10-H12=0.9589       H11-O10=0.9921       H12-O10=0.9589       
O13-H14=0.9788       O13-H15=0.9619       H14-O13=0.9788       H15-O13=0.9619       O16-H17=1.0709       O16-H18=1.0251       
O16-H19=1.0359       H17-O16=1.0709       H18-O16=1.0251       H19-O16=1.0359       
 O  H  Rav=0.9930 sigma=0.0375  Rmin=0.9524  Rmax=1.0709    10
 S  O  Rav=1.4872 sigma=0.0589  Rmin=1.4409  Rmax=1.5875     4
 
 selected bond angles (degree)
 --------------------
O3-S1-O2=115.12                O4-S1-O2=112.13                O4-S1-O3=111.04                O5-S1-O2=106.43                
O5-S1-O3=105.90                O5-S1-O4=105.43                H6-O5-S1=102.98                H9-O7-H8=106.12                
H12-O10-H11=106.33             
 
 selected dihedral angles (degree)
 ---------------------------------
H6-O5-S1-O2=327.37            H6-O5-S1-O3=204.40            H6-O5-S1-O4= 86.63            
 
 CMA Distance (Angstroems)
 ---------------------------
R(CMA):  2.9838

========================================================================
 FINAL SINGLEPOINT CALCULATION ON OPTIMIZED GEOMETRY
========================================================================

 Ncao       : 52
 Nao        : 51
 Nshell     : 29
 Nel        : 64
 T(el)      :   300.0
 intcut     :    25.0
 scfconv/Eh :  0.100E-05
   qconv/e  :  0.100E-03
 intneglect :  0.100E-07
 broydamp   :      0.250
 iter      E             dE          RMSdq      gap      omega  full diag
   1    -41.1176876 -0.411177E+02  0.132E-04    9.28       0.0  T
   2    -41.1176876 -0.391509E-11  0.834E-05    9.28     275.2  T
   3    -41.1176876 -0.261480E-11  0.122E-05    9.28    1883.7  T
speedup  1.11
cpu  time for SCC    0.00 s
wall time for SCC    0.00 s

   *** convergence criteria satisfied after 3 iterations ***

          eigenvalues
 #    :          20         21         22         23         24         25         26         27
 occ. :        2.000      2.000      2.000      2.000      2.000      2.000      2.000      2.000
 eps  :       -14.413    -14.077    -13.962    -13.473    -12.836    -12.733    -12.721    -12.602
 #    :          28         29         30         31         32         33         34         35
 occ. :        2.000      2.000      2.000      2.000      2.000      0.000      0.000      0.000
 eps  :       -12.408    -12.263    -12.191    -12.097    -11.937     -2.653     -0.664     -0.375
 #    :          36         37         38         39         40         41         42         43
 occ. :        0.000      0.000      0.000      0.000      0.000      0.000      0.000      0.000
 eps  :         0.533      1.027      1.527      3.025      4.166      4.452      6.177      6.907


   #   Z            q   n(s)   n(p)   n(d)      C6AA      α(0)
   1  16 S      1.669  1.582  1.788  0.960    89.470    15.920
   2   8 O     -0.725  1.773  4.951  0.000    29.389     7.268
   3   8 O     -0.728  1.759  4.968  0.000    29.476     7.279
   4   8 O     -0.733  1.767  4.966  0.000    29.539     7.290
   5   8 O     -0.585  1.749  4.837  0.000    24.804     6.723
   6   1 H      0.347  0.653  0.000  0.000     0.587     1.200
   7   8 O     -0.598  1.745  4.853  0.000    25.134     6.767
   8   1 H      0.348  0.652  0.000  0.000     0.594     1.211
   9   1 H      0.299  0.701  0.000  0.000     0.724     1.337
  10   8 O     -0.601  1.743  4.857  0.000    25.201     6.776
  11   1 H      0.344  0.656  0.000  0.000     0.603     1.220
  12   1 H      0.298  0.702  0.000  0.000     0.728     1.340
  13   8 O     -0.613  1.737  4.876  0.000    25.500     6.815
  14   1 H      0.320  0.680  0.000  0.000     0.663     1.279
  15   1 H      0.304  0.696  0.000  0.000     0.708     1.322
  16   8 O     -0.507  1.728  4.780  0.000    22.992     6.476
  17   1 H      0.393  0.607  0.000  0.000     0.490     1.096
  18   1 H      0.382  0.618  0.000  0.000     0.520     1.133
  19   1 H      0.386  0.614  0.000  0.000     0.511     1.122

 Mol. C6AA /au·bohr⁶  :       3378.254813
 Mol. C8AA /au·bohr⁸  :      76521.489677
 Mol. α(0) /au        :         83.574241

 
 Wiberg/Mayer (AO) data. WBOs > 0.1 written file <wbo>
 largest (>0.05) Wiberg bond orders for each atom
           total WBO             WBO to atom ...
     1  S   4.875    O    2 1.357    O    3 1.337    O    4 1.240    O    5 0.897
     2  O   1.742    S    1 1.357    O    3 0.109    O    4 0.103    O    5 0.080    H   14 0.055
     3  O   1.739    S    1 1.337    O    4 0.110    O    2 0.109    H   11 0.075    O    5 0.063
     4  O   1.768    S    1 1.240    H   17 0.191    O    3 0.110    O    2 0.103    O    5 0.067    O   16 0.053
     5  O   1.977    S    1 0.897    H    6 0.863    O    2 0.080    O    4 0.067    O    3 0.063
     6  H   0.879    O    5 0.863
     7  O   1.950    H    9 0.907    H    8 0.793    H   19 0.153    O   16 0.055
     8  H   0.879    O    7 0.793    O   13 0.085
     9  H   0.911    O    7 0.907
    10  O   1.934    H   12 0.907    H   11 0.802    H   18 0.134    O   16 0.050
    11  H   0.882    O   10 0.802    O    3 0.075
    12  H   0.911    O   10 0.907
    13  O   1.888    H   15 0.897    H   14 0.834    H    8 0.085
    14  H   0.897    O   13 0.834    O    2 0.055
    15  H   0.907    O   13 0.897
    16  O   2.241    H   18 0.717    H   19 0.696    H   17 0.643    O    7 0.055    O    4 0.053    O   10 0.050
    17  H   0.845    O   16 0.643    O    4 0.191
    18  H   0.854    O   16 0.717    O   10 0.134
    19  H   0.851    O   16 0.696    O    7 0.153
 MOs/occ written to file <molden.input>
 
molecular dipole:
                 x           y           z       tot (Debye)
 q only:       -0.879      -1.120      -0.003
   full:       -0.222      -0.657      -0.585       2.305
molecular quadrupole (traceless):
                xx          xy          yy          xz          yz          zz
 q only:        1.724      -3.584       0.017      -1.012      -0.765      -1.741
  q+dip:        2.269      -5.609      -0.142      -1.500      -1.974      -2.127
   full:        2.204      -5.740      -0.140      -1.861      -2.328      -2.064

SCC energy    :     -41.1176876
rep           :       0.1986494
ES            :       0.1995195
AES           :      -0.0535030
AXC           :      -0.0100131
disp          :      -0.0132622
XB            :       0.0000000
fix           :       0.0000000
total E       :     -40.9189343
atomizationE  :       3.7131215     2330.02
(atE without considering molecular charge,
 total energy contains solvation terms)
H-L gap (eV)  :          9.2837
optimized geometry written to: xtbopt.xyz


------------------------------------------------------------------------
 * finished run on 2019/09/03 at 06:41:59.412     
------------------------------------------------------------------------
 total:
 * wall-time:     0 d,  0 h,  0 min,  1.866 sec
 *  cpu-time:     0 d,  0 h,  0 min,  1.846 sec
 * ratio c/w:     0.989 speedup
 SCF:
 * wall-time:     0 d,  0 h,  0 min,  0.092 sec
 *  cpu-time:     0 d,  0 h,  0 min,  0.089 sec
 * ratio c/w:     0.964 speedup
 ANC optimizer:
 * wall-time:     0 d,  0 h,  0 min,  1.752 sec
 *  cpu-time:     0 d,  0 h,  0 min,  1.737 sec
 * ratio c/w:     0.992 speedup

