      -----------------------------------------------------------      
     |                   =====================                   |     
     |                           x T B                           |     
     |                   =====================                   |     
     |                         S. Grimme                         |     
     |          Mulliken Center for Theoretical Chemistry        |     
     |                    University of Bonn                     |     
     |                 Version 6.0.1 (SAW181210)                 |     
      -----------------------------------------------------------      

   This program is distributed in the hope that it will be useful,
   but WITHOUT ANY WARRANTY; without even the implied warranty of
   MERCHANTABILITY or FITNESS FOR A PARTICULAR PURPOSE.
   
   FOR NON-COMMERCIAL, ACADEMIA USE ONLY.
   
   Cite this work as:
   S. Grimme, C. Bannwarth, P. Shushkov, J. Comput. Theory Chem., 2017,
   13, 1989-2009.
   C. Bannwarth, S. Ehlert and S. Grimme., ChemRxiv, 2018, preprint.
   http://doi.org/10.26434/chemrxiv.7246238.v1
   
   for sTDA-xTB:
   S. Grimme and C. Bannwarth, J. Chem. Phys., 2016, 145, 054103.
   
   in the mass-spec context:
   V. Asgeirsson, C. Bauer and S. Grimme, Chem. Sci., 2017, 8, 4879.
   
   if GBSA is used:
   P. Shushkov, F. März and S. Grimme, unpublished.
   
   for ANC optimizer:
   S. Grimme, unpublished.
   Rational Function algorithm used in ANCopt:
   F. Eckert, P. Pulay, H.-J. Werner, J. Comput. Chem., 1997, 18, 1473.
   
   with help from (in alphabetical order)
   C. Bannwarth, F. Bohle, G. Brandenburg, E. Caldeweyher, M. Checinski,
   S. Dohm, S. Ehlert, S. Ehrlich, F. März, H. Neugebauer, J. Pisarek,
   P. Pracht, P. Shushkov, and S. Spicher.
   
 * started run on 2019/09/03 at 06:46:59.132     
========================================================================
 # omp threads = 1
========================================================================
number of atoms            : 19
number of electrons        : 64
charge                     : 0
spin                       : .0
first test random number   : .3057

########################################################################
# WARNING! Please study the warnings concerning your input carefully
#  - XTBPATH is not set, using XTBHOME instead
#  - the use of '-opt' is discouraged, please use '--opt' next time
#  - the use of '-chrg' is discouraged, please use '--chrg' next time
#  - the use of '-uhf' is discouraged, please use '--uhf' next time
########################################################################

           ------------------------------------------------- 
          |                 G F N 2 - x T B                 |
          | Geometry, Frequencies, Noncovalent interactions |
          |            JCTC 2018 parametrisation            |
           ------------------------------------------------- 
      method parameters     
 k(s)        :  1.8500
 k(p)        :  2.2300
 k(d)        :  2.2300
 k(f)        :  2.0000
 kEN (H0ij)  : -2.0000
 D4 a1       :  0.5200
 D4 a2       :  5.0000
 D4 s6       :  1.0000
 D4 s8       :  2.7000
 D4 s9       :  5.0000
 alphaj      :  2.0000


            Z     q(EN)     CN     RAES       Cart. coordinates
     1  S   6.0    0.64    4.31    4.26     3.29431    -2.47369    -0.62634
     2  O   6.0   -0.32    1.20    1.80     2.27187    -0.03738    -1.59954
     3  O   6.0   -0.28    1.12    1.80     4.13525    -2.14037     2.04009
     4  O   6.0   -0.29    1.22    1.80     1.28722    -4.44531    -0.73798
     5  O   6.0   -0.24    2.08    1.84     5.45292    -3.26079    -2.18627
     6  H   1.0    0.15    1.21    1.47     6.74660    -1.99098    -2.11489
     7  O   6.0   -0.28    2.04    1.83    -2.57318     1.25242    -3.00173
     8  H   1.0    0.17    1.02    1.43    -2.89874     2.84437    -2.18057
     9  H   1.0    0.17    1.01    1.43    -0.76027     1.13304    -3.11897
    10  O   6.0   -0.30    2.06    1.83    -0.13900     1.05271     2.93872
    11  H   1.0    0.16    0.98    1.43     1.04434     0.35987     4.13635
    12  H   1.0    0.16    1.04    1.43     0.80606     1.26795     1.39757
    13  O   6.0   -0.28    1.99    1.82    -2.97318     4.72304     0.69455
    14  H   1.0    0.15    0.97    1.43    -3.18150     6.35552     1.47315
    15  H   1.0    0.16    1.02    1.43    -2.02803     3.73383     1.89570
    16  O   6.0   -0.21    2.90    2.54    -2.96432    -2.28748     0.34288
    17  H   1.0    0.14    1.00    1.43    -2.48016    -1.28002     1.83970
    18  H   1.0    0.14    1.04    1.43    -3.34589    -1.20875    -1.13386
    19  H   1.0    0.15    1.06    1.44    -1.69431    -3.59797    -0.05857

  Z AO/shell   Hii/eV     exponent
  1     Wed Apr 25 08:07:45 CEST 2018   EN: 2.200 GM2: 0.406  GM3: 0.0800  RAES: 1.40
     1s    -10.707211    1.230000
  8     Wed Apr 25 08:07:45 CEST 2018   EN: 3.440 GM2: 0.452  GM3:-0.0517  RAES: 1.80
     2s    -20.229985    2.439742
     2p    -15.503117    2.137023
 16     Tue Apr 24 11:44:34 CEST 2018   EN: 2.580 GM2: 0.340  GM3:-0.0502  RAES: 3.10
     3s    -20.029654    1.981333
     3p    -11.377694    2.025643
     3d     -0.420282    1.702555
 no old-style atom pair restraining (fixing) potential

molecular fragmentation (1/2 indicates fragments):
1111112222222222222
# atoms in fragment 1/2:     6    13
 fragment masses (1/2) :       97.07       73.07
CMA distance (Bohr)    :   6.590
constraining FC (au)   :  0.0500
           ------------------------------------------------- 
          |        Self-Consistent Charge Iterations        |
           ------------------------------------------------- 

 Ncao       : 52
 Nao        : 51
 Nshell     : 29
 Nel        : 64
 T(el)      :   300.0
 intcut     :    25.0
 scfconv/Eh :  0.100E-05
   qconv/e  :  0.100E-03
 intneglect :  0.100E-07
 broydamp   :      0.250
 iter      E             dE          RMSdq      gap      omega  full diag
   1    -41.0195779 -0.410196E+02  0.768E+00   10.56       0.0  T
   2    -41.0584080 -0.388300E-01  0.556E+00   10.01       1.0  T
   3    -41.0888597 -0.304518E-01  0.145E+00    8.63       1.0  T
   4    -41.0930776 -0.421785E-02  0.619E-01    8.73       1.0  T
   5    -41.0937375 -0.659894E-03  0.339E-01    8.67       1.0  T
   6    -41.0940950 -0.357571E-03  0.151E-01    8.67       1.0  T
   7    -41.0941846 -0.896176E-04  0.609E-02    8.72       1.0  T
   8    -41.0941992 -0.145290E-04  0.281E-02    8.71       1.0  T
   9    -41.0942017 -0.250828E-05  0.161E-02    8.71       1.4  T
  10    -41.0942030 -0.128005E-05  0.268E-03    8.71       8.6  T
  11    -41.0942030 -0.176642E-07  0.108E-03    8.71      21.2  T
  12    -41.0942030 -0.396333E-08  0.464E-04    8.71      49.5  T
  13    -41.0942030 -0.781313E-09  0.104E-04    8.71     219.8  T
speedup  0.97
cpu  time for SCC    0.01 s
wall time for SCC    0.01 s

   *** convergence criteria satisfied after 13 iterations ***

          eigenvalues
 #    :          20         21         22         23         24         25         26         27
 occ. :        2.000      2.000      2.000      2.000      2.000      2.000      2.000      2.000
 eps  :       -14.219    -13.681    -13.040    -12.834    -12.738    -12.400    -12.237    -11.907
 #    :          28         29         30         31         32         33         34         35
 occ. :        2.000      2.000      2.000      2.000      2.000      0.000      0.000      0.000
 eps  :       -11.627    -11.366    -11.125    -10.834    -10.628     -1.920     -0.785     -0.035
 #    :          36         37         38         39         40         41         42         43
 occ. :        0.000      0.000      0.000      0.000      0.000      0.000      0.000      0.000
 eps  :         1.046      1.444      1.755      2.757      3.907      4.667      6.600      6.949


   #   Z            q   n(s)   n(p)   n(d)      C6AA      α(0)
   1  16 S      1.571  1.587  1.856  0.986    91.749    16.121
   2   8 O     -0.779  1.774  5.004  0.000    30.955     7.460
   3   8 O     -0.753  1.782  4.972  0.000    30.207     7.369
   4   8 O     -0.737  1.767  4.970  0.000    29.730     7.310
   5   8 O     -0.540  1.717  4.822  0.000    23.757     6.580
   6   1 H      0.359  0.641  0.000  0.000     0.559     1.170
   7   8 O     -0.619  1.740  4.879  0.000    25.646     6.835
   8   1 H      0.327  0.673  0.000  0.000     0.644     1.261
   9   1 H      0.323  0.677  0.000  0.000     0.654     1.271
  10   8 O     -0.619  1.728  4.890  0.000    25.634     6.833
  11   1 H      0.316  0.684  0.000  0.000     0.676     1.291
  12   1 H      0.332  0.668  0.000  0.000     0.632     1.249
  13   8 O     -0.605  1.740  4.864  0.000    25.301     6.789
  14   1 H      0.281  0.719  0.000  0.000     0.780     1.388
  15   1 H      0.321  0.679  0.000  0.000     0.661     1.277
  16   8 O     -0.414  1.638  4.776  0.000    21.065     6.199
  17   1 H      0.403  0.597  0.000  0.000     0.479     1.087
  18   1 H      0.416  0.584  0.000  0.000     0.456     1.061
  19   1 H      0.415  0.585  0.000  0.000     0.458     1.063

 Mol. C6AA /au·bohr⁶  :       3380.171826
 Mol. C8AA /au·bohr⁸  :      76778.209185
 Mol. α(0) /au        :         83.614611

 
 Wiberg/Mayer (AO) data. WBOs > 0.1 written file <wbo>
 largest (>0.05) Wiberg bond orders for each atom
           total WBO             WBO to atom ...
     1  S   4.938    O    3 1.338    O    4 1.304    O    2 1.272    O    5 0.996
     2  O   1.659    S    1 1.272    O    3 0.116    O    4 0.111    O    5 0.072
     3  O   1.662    S    1 1.338    O    2 0.116    O    4 0.115    O    5 0.078
     4  O   1.715    S    1 1.304    O    3 0.115    O    2 0.111    H   19 0.088    O    5 0.052
     5  O   2.049    S    1 0.996    H    6 0.847    O    3 0.078    O    2 0.072    O    4 0.052
     6  H   0.871    O    5 0.847
     7  O   1.899    H    9 0.865    H    8 0.861    H   18 0.098
     8  H   0.893    O    7 0.861
     9  H   0.895    O    7 0.865
    10  O   1.883    H   11 0.885    H   12 0.850    H   17 0.056
    11  H   0.900    O   10 0.885
    12  H   0.890    O   10 0.850
    13  O   1.835    H   14 0.913    H   15 0.862
    14  H   0.921    O   13 0.913
    15  H   0.897    O   13 0.862
    16  O   2.331    H   17 0.776    H   19 0.732    H   18 0.726
    17  H   0.837    O   16 0.776    O   10 0.056
    18  H   0.827    O   16 0.726    O    7 0.098
    19  H   0.828    O   16 0.732    O    4 0.088
 MOs/occ written to file <molden.input>
 
molecular dipole:
                 x           y           z       tot (Debye)
 q only:       -1.715       1.043       0.483
   full:       -0.575       1.228       0.442       3.625
molecular quadrupole (traceless):
                xx          xy          yy          xz          yz          zz
 q only:        5.442       8.329      -3.608      -8.719       3.264      -1.834
  q+dip:        6.140       5.504      -3.148     -11.460       5.365      -2.991
   full:        6.324       5.190      -3.199     -11.667       5.523      -3.125

SCC energy    :     -41.0942030
rep           :       0.2164494
ES            :       0.2398214
AES           :      -0.0557258
AXC           :      -0.0110625
disp          :      -0.0130082
XB            :       0.0000000
fix           :       0.0000000
total E       :     -40.8776716
atomizationE  :       3.6718588     2304.13
(atE without considering molecular charge,
 total energy contains solvation terms)
H-L gap (eV)  :          8.7077
           ------------------------------------------------- 
          |                 ===============                 |
          |                   A N C O P T                   |
          |                 ===============                 |
          |          Approximate Normal Coordinate          |
          |           Rational Function Optimizer           |
           ------------------------------------------------- 
dumping coords to <xtbopt.coord> and <xtbopt.log>
 optlevel               2
 Maxcycle             380
 Maxmicro              25
 Econv         1.000000000000000E-007
 Gconv         2.000000000000000E-004
 Maxdispl       1.00000000000000     
 Hlow          5.000000000000000E-003
 S6             20.0000000000000     
 Nvar               51

generating ANC from model Hessian ...
 Shifting diagonal of input Hessian by   4.962566383145808E-003
 Lowest  eigenvalues of input Hessian
   -0.000000   -0.000000    0.000000    0.000000    0.000000    0.000000
    0.005000    0.005502    0.006145    0.006441    0.006825    0.007421
    0.007586    0.008841    0.010015    0.010841    0.011656    0.013299
 Highest eigenvalues
    1.452384    1.549581    1.556439    3.134976    3.205889    3.310918
 
cpu  time for ANC gen    0.01 s
wall time for ANC gen    0.01 s
................................................................................
.............................. CYCLE    1 ......................................
................................................................................
   1    -41.0942030 -0.410942E+02  0.730E-05    8.71       0.0  T
   2    -41.0942030 -0.624567E-11  0.582E-05    8.71     394.3  T
   3    -41.0942030 -0.947153E-11  0.224E-05    8.71    1022.7  T
speedup  1.00
cpu  time for SCC    0.00 s
wall time for SCC    0.00 s
speedup  0.93
cpu  time for grad    0.01 s
wall time for grad    0.01 s
 E :    -40.87767158  G :  0.162760    pred/act E change:  0.000D+00  0.295D-07
Maxdispl :   0.1819   ||displ|| :   0.4383   Lambda : -0.230D-01
Largest |displ|/coords:  0.1819 (  21)  0.1818 (  22)  0.1677 (  17)
................................................................................
.............................. CYCLE    2 ......................................
................................................................................
   1    -41.1047842 -0.411048E+02  0.363E-01    8.88       0.0  T
   2    -41.1049350 -0.150806E-03  0.275E-01    8.93       1.0  T
   3    -41.1049981 -0.630963E-04  0.103E-01    9.02       1.0  T
   4    -41.1050098 -0.117060E-04  0.215E-02    9.01       1.1  T
   5    -41.1050113 -0.149773E-05  0.776E-03    9.01       3.0  T
   6    -41.1050114 -0.902762E-07  0.423E-03    9.00       5.4  T
   7    -41.1050114 -0.506783E-07  0.235E-03    9.00       9.8  T
speedup  1.14
cpu  time for SCC    0.00 s
wall time for SCC    0.00 s
speedup  1.04
cpu  time for grad    0.01 s
wall time for grad    0.01 s
 E :    -40.89697805  G :  0.108358    pred/act E change:  0.000D+00 -0.193D-01
Maxdispl :   0.2124   ||displ|| :   0.4010   Lambda : -0.142D-01
Largest |displ|/coords:  0.2124 (  22)  0.1475 (  21)  0.1267 (  17)
................................................................................
.............................. CYCLE    3 ......................................
................................................................................
   1    -41.1100690 -0.411101E+02  0.293E-01    9.12       0.0  T
   2    -41.1103005 -0.231554E-03  0.218E-01    9.16       1.0  T
   3    -41.1104019 -0.101399E-03  0.105E-01    9.21       1.0  T
   4    -41.1104086 -0.668904E-05  0.211E-02    9.21       1.1  T
   5    -41.1104098 -0.118168E-05  0.799E-03    9.21       2.9  T
   6    -41.1104099 -0.110787E-06  0.440E-03    9.21       5.2  T
   7    -41.1104100 -0.578944E-07  0.232E-03    9.21       9.9  T
speedup  0.93
cpu  time for SCC    0.00 s
wall time for SCC    0.00 s
speedup  0.95
cpu  time for grad    0.01 s
wall time for grad    0.01 s
 E :    -40.90768373  G :  0.065204    pred/act E change: -0.137D-01 -0.107D-01
Maxdispl :   0.0921   ||displ|| :   0.2485   Lambda : -0.464D-02
Largest |displ|/coords:  0.0921 (  22)  0.0876 (  21)  0.0858 (  17)
................................................................................
.............................. CYCLE    4 ......................................
................................................................................
   1    -41.1107815 -0.411108E+02  0.203E-01    9.25       0.0  T
   2    -41.1109025 -0.121010E-03  0.150E-01    9.28       1.0  T
   3    -41.1109540 -0.515104E-04  0.721E-02    9.31       1.0  T
   4    -41.1109572 -0.320257E-05  0.160E-02    9.31       1.4  T
   5    -41.1109577 -0.478189E-06  0.527E-03    9.31       4.4  T
   6    -41.1109577 -0.435278E-07  0.274E-03    9.31       8.4  T
speedup  1.05
cpu  time for SCC    0.00 s
wall time for SCC    0.00 s
speedup  1.00
cpu  time for grad    0.01 s
wall time for grad    0.01 s
 E :    -40.91077693  G :  0.036289    pred/act E change: -0.825D-02 -0.309D-02
Maxdispl :   0.0890   ||displ|| :   0.1844   Lambda : -0.167D-02
Largest |displ|/coords:  0.0890 (   4)  0.0728 (   6)  0.0704 (   9)
................................................................................
.............................. CYCLE    5 ......................................
................................................................................
   1    -41.1104665 -0.411105E+02  0.189E-01    9.27       0.0  T
   2    -41.1105087 -0.421938E-04  0.142E-01    9.29       1.0  T
   3    -41.1105237 -0.149266E-04  0.491E-02    9.33       1.0  T
   4    -41.1105272 -0.354006E-05  0.147E-02    9.32       1.6  T
   5    -41.1105275 -0.276975E-06  0.349E-03    9.32       6.6  T
   6    -41.1105275 -0.170979E-07  0.144E-03    9.32      16.0  T
speedup  1.08
cpu  time for SCC    0.00 s
wall time for SCC    0.00 s
speedup  0.98
cpu  time for grad    0.01 s
wall time for grad    0.01 s
 E :    -40.91180747  G :  0.016258    pred/act E change: -0.247D-02 -0.103D-02
Maxdispl :   0.1226   ||displ|| :   0.2175   Lambda : -0.714D-03
Largest |displ|/coords:  0.1226 (   3)  0.1008 (   4)  0.0718 (  14)
................................................................................
.............................. CYCLE    6 ......................................
................................................................................
   1    -41.1109495 -0.411109E+02  0.242E-01    9.25       0.0  T
   2    -41.1109658 -0.162640E-04  0.184E-01    9.26       1.0  T
   3    -41.1109742 -0.839723E-05  0.280E-02    9.29       1.0  T
   4    -41.1109771 -0.289847E-05  0.130E-02    9.28       1.8  T
   5    -41.1109772 -0.151524E-06  0.252E-03    9.28       9.1  T
   6    -41.1109772 -0.500572E-08  0.131E-03    9.28      17.5  T
speedup  1.08
cpu  time for SCC    0.00 s
wall time for SCC    0.00 s
speedup  1.01
cpu  time for grad    0.01 s
wall time for grad    0.01 s
 E :    -40.91205429  G :  0.009278    pred/act E change: -0.863D-03 -0.247D-03
Maxdispl :   0.1299   ||displ|| :   0.1731   Lambda : -0.472D-03
Largest |displ|/coords:  0.1299 (   6)  0.0444 (   4)  0.0427 (   9)
................................................................................
.............................. CYCLE    7 ......................................
................................................................................
   1    -41.1102498 -0.411102E+02  0.255E-01    9.22       0.0  T
   2    -41.1102604 -0.106070E-04  0.195E-01    9.23       1.0  T
   3    -41.1102708 -0.103266E-04  0.188E-02    9.24       1.2  T
   4    -41.1102718 -0.105543E-05  0.769E-03    9.23       3.0  T
   5    -41.1102719 -0.576149E-07  0.187E-03    9.23      12.3  T
   6    -41.1102719 -0.218615E-08  0.109E-03    9.23      21.0  T
speedup  0.83
cpu  time for SCC    0.00 s
wall time for SCC    0.00 s
speedup  1.01
cpu  time for grad    0.01 s
wall time for grad    0.01 s
 E :    -40.91226458  G :  0.009718    pred/act E change: -0.374D-03 -0.210D-03
Maxdispl :   0.0355   ||displ|| :   0.0649   Lambda : -0.128D-03
Largest |displ|/coords:  0.0355 (   6)  0.0261 (   4)  0.0229 (   9)
................................................................................
.............................. CYCLE    8 ......................................
................................................................................
   1    -41.1112802 -0.411113E+02  0.791E-02    9.23       0.0  T
   2    -41.1112827 -0.255745E-05  0.602E-02    9.23       1.0  T
   3    -41.1112841 -0.140871E-05  0.106E-02    9.22       2.2  T
   4    -41.1112846 -0.445135E-06  0.324E-03    9.23       7.1  T
   5    -41.1112846 -0.186094E-07  0.954E-04    9.23      24.0  T
   6    -41.1112846 -0.607123E-09  0.514E-04    9.23      44.7  T
speedup  0.81
cpu  time for SCC    0.00 s
wall time for SCC    0.00 s
speedup  1.00
cpu  time for grad    0.01 s
wall time for grad    0.01 s
 E :    -40.91232094  G :  0.004682    pred/act E change: -0.243D-03 -0.564D-04
Maxdispl :   0.0342   ||displ|| :   0.0699   Lambda : -0.967D-04
Largest |displ|/coords:  0.0342 (   6)  0.0242 (  14)  0.0208 (  10)
................................................................................
.............................. CYCLE    9 ......................................
................................................................................
   1    -41.1108106 -0.411108E+02  0.657E-02    9.23       0.0  T
   2    -41.1108123 -0.164531E-05  0.497E-02    9.23       1.0  T
   3    -41.1108130 -0.713850E-06  0.874E-03    9.23       2.6  T
   4    -41.1108133 -0.306565E-06  0.242E-03    9.23       9.5  T
   5    -41.1108133 -0.108339E-07  0.652E-04    9.23      35.2  T
speedup  1.29
cpu  time for SCC    0.00 s
wall time for SCC    0.00 s
speedup  1.07
cpu  time for grad    0.01 s
wall time for grad    0.01 s
 E :    -40.91237022  G :  0.004301    pred/act E change: -0.644D-04 -0.493D-04
Maxdispl :   0.0476   ||displ|| :   0.1004   Lambda : -0.740D-04
Largest |displ|/coords:  0.0476 (   4)  0.0449 (   6)  0.0427 (   2)
................................................................................
.............................. CYCLE   10 ......................................
................................................................................
   1    -41.1104849 -0.411105E+02  0.825E-02    9.23       0.0  T
   2    -41.1104860 -0.105052E-05  0.618E-02    9.23       1.0  T
   3    -41.1104868 -0.798560E-06  0.766E-03    9.23       3.0  T
   4    -41.1104869 -0.144092E-06  0.194E-03    9.23      11.8  T
   5    -41.1104869 -0.413961E-08  0.858E-04    9.23      26.7  T
speedup  0.97
cpu  time for SCC    0.00 s
wall time for SCC    0.00 s
speedup  0.96
cpu  time for grad    0.01 s
wall time for grad    0.01 s
 E :    -40.91241438  G :  0.005757    pred/act E change: -0.486D-04 -0.442D-04
Maxdispl :   0.0512   ||displ|| :   0.0992   Lambda : -0.676D-04
Largest |displ|/coords:  0.0512 (   4)  0.0461 (   6)  0.0371 (   3)
................................................................................
.............................. CYCLE   11 ......................................
................................................................................
   1    -41.1108520 -0.411109E+02  0.690E-02    9.23       0.0  T
   2    -41.1108541 -0.212236E-05  0.514E-02    9.23       1.0  T
   3    -41.1108552 -0.114564E-05  0.118E-02    9.23       1.9  T
   4    -41.1108555 -0.288643E-06  0.311E-03    9.23       7.4  T
   5    -41.1108556 -0.157148E-07  0.943E-04    9.23      24.3  T
   6    -41.1108556 -0.867765E-09  0.504E-04    9.23      45.5  T
speedup  1.08
cpu  time for SCC    0.00 s
wall time for SCC    0.00 s
speedup  1.00
cpu  time for grad    0.01 s
wall time for grad    0.01 s
 E :    -40.91245933  G :  0.003944    pred/act E change: -0.374D-04 -0.450D-04
Maxdispl :   0.0534   ||displ|| :   0.1037   Lambda : -0.577D-04
Largest |displ|/coords:  0.0534 (   4)  0.0459 (   6)  0.0362 (   5)
................................................................................
.............................. CYCLE   12 ......................................
................................................................................
   1    -41.1105742 -0.411106E+02  0.934E-02    9.25       0.0  T
   2    -41.1105762 -0.193919E-05  0.708E-02    9.25       1.0  T
   3    -41.1105776 -0.146246E-05  0.111E-02    9.25       2.1  T
   4    -41.1105779 -0.275380E-06  0.314E-03    9.25       7.3  T
   5    -41.1105779 -0.118458E-07  0.991E-04    9.25      23.1  T
   6    -41.1105779 -0.550898E-09  0.556E-04    9.25      41.2  T
speedup  0.81
cpu  time for SCC    0.00 s
wall time for SCC    0.00 s
speedup  0.98
cpu  time for grad    0.01 s
wall time for grad    0.01 s
 E :    -40.91249590  G :  0.004161    pred/act E change: -0.341D-04 -0.366D-04
Maxdispl :   0.0327   ||displ|| :   0.0775   Lambda : -0.544D-04
Largest |displ|/coords:  0.0327 (   1)  0.0277 (   3)  0.0268 (   6)
................................................................................
.............................. CYCLE   13 ......................................
................................................................................
   1    -41.1116623 -0.411117E+02  0.633E-02    9.28       0.0  T
   2    -41.1116637 -0.146956E-05  0.470E-02    9.28       1.0  T
   3    -41.1116645 -0.797789E-06  0.110E-02    9.28       2.1  T
   4    -41.1116647 -0.181835E-06  0.332E-03    9.28       6.9  T
   5    -41.1116647 -0.110920E-07  0.710E-04    9.28      32.3  T
   6    -41.1116647 -0.502531E-09  0.412E-04    9.28      55.7  T
speedup  1.11
cpu  time for SCC    0.00 s
wall time for SCC    0.00 s
speedup  1.01
cpu  time for grad    0.01 s
wall time for grad    0.01 s
 E :    -40.91251833  G :  0.003600    pred/act E change: -0.292D-04 -0.224D-04
Maxdispl :   0.0582   ||displ|| :   0.0976   Lambda : -0.467D-04
Largest |displ|/coords:  0.0582 (   1)  0.0409 (   6)  0.0401 (   2)
................................................................................
.............................. CYCLE   14 ......................................
................................................................................
   1    -41.1111352 -0.411111E+02  0.978E-02    9.29       0.0  T
   2    -41.1111368 -0.155566E-05  0.738E-02    9.29       1.0  T
   3    -41.1111381 -0.139876E-05  0.101E-02    9.29       2.3  T
   4    -41.1111383 -0.171925E-06  0.329E-03    9.29       7.0  T
   5    -41.1111383 -0.906119E-08  0.910E-04    9.29      25.2  T
   6    -41.1111383 -0.494204E-09  0.548E-04    9.29      41.8  T
speedup  0.81
cpu  time for SCC    0.00 s
wall time for SCC    0.00 s
speedup  0.97
cpu  time for grad    0.01 s
wall time for grad    0.01 s
 E :    -40.91254309  G :  0.004672    pred/act E change: -0.274D-04 -0.248D-04
Maxdispl :   0.0560   ||displ|| :   0.0638   Lambda : -0.353D-04
Largest |displ|/coords:  0.0560 (   1)  0.0194 (   3)  0.0110 (  25)
................................................................................
.............................. CYCLE   15 ......................................
................................................................................
   1    -41.1111661 -0.411112E+02  0.339E-02    9.29       0.0  T
   2    -41.1111664 -0.255691E-06  0.253E-02    9.29       1.0  T
   3    -41.1111666 -0.170649E-06  0.477E-03    9.29       4.8  T
   4    -41.1111666 -0.334905E-07  0.169E-03    9.29      13.6  T
   5    -41.1111666 -0.155976E-08  0.293E-04    9.29      78.4  T
speedup  0.97
cpu  time for SCC    0.00 s
wall time for SCC    0.00 s
speedup  0.94
cpu  time for grad    0.01 s
wall time for grad    0.01 s
 E :    -40.91256939  G :  0.003712    pred/act E change: -0.236D-04 -0.263D-04
Maxdispl :   0.1354   ||displ|| :   0.1564   Lambda : -0.698D-04
Largest |displ|/coords:  0.1354 (   1)  0.0349 (  25)  0.0344 (   4)
................................................................................
.............................. CYCLE   16 ......................................
................................................................................
   1    -41.1112880 -0.411113E+02  0.930E-02    9.30       0.0  T
   2    -41.1112895 -0.142844E-05  0.697E-02    9.30       1.0  T
   3    -41.1112907 -0.118224E-05  0.103E-02    9.29       2.2  T
   4    -41.1112908 -0.173129E-06  0.382E-03    9.29       6.0  T
   5    -41.1112908 -0.942232E-08  0.891E-04    9.29      25.8  T
   6    -41.1112908 -0.712404E-09  0.542E-04    9.29      42.3  T
speedup  0.81
cpu  time for SCC    0.00 s
wall time for SCC    0.00 s
speedup  0.97
cpu  time for grad    0.01 s
wall time for grad    0.01 s
 E :    -40.91261632  G :  0.004314    pred/act E change: -0.177D-04 -0.469D-04
Maxdispl :   0.1278   ||displ|| :   0.1551   Lambda : -0.589D-04
Largest |displ|/coords:  0.1278 (   1)  0.0460 (  25)  0.0366 (   2)
................................................................................
.............................. CYCLE   17 ......................................
................................................................................
   1    -41.1108941 -0.411109E+02  0.113E-01    9.29       0.0  T
   2    -41.1108956 -0.150772E-05  0.849E-02    9.29       1.0  T
   3    -41.1108972 -0.156750E-05  0.109E-02    9.29       2.1  T
   4    -41.1108973 -0.126994E-06  0.371E-03    9.29       6.2  T
   5    -41.1108973 -0.978836E-08  0.949E-04    9.29      24.2  T
   6    -41.1108973 -0.579419E-09  0.597E-04    9.29      38.4  T
speedup  1.05
cpu  time for SCC    0.00 s
wall time for SCC    0.00 s
speedup  0.99
cpu  time for grad    0.01 s
wall time for grad    0.01 s
 E :    -40.91265759  G :  0.004900    pred/act E change: -0.358D-04 -0.413D-04
Maxdispl :   0.1349   ||displ|| :   0.1842   Lambda : -0.844D-04
Largest |displ|/coords:  0.1349 (   1)  0.0640 (   4)  0.0639 (  25)
................................................................................
.............................. CYCLE   18 ......................................
................................................................................
   1    -41.1105970 -0.411106E+02  0.141E-01    9.28       0.0  T
   2    -41.1105992 -0.218241E-05  0.106E-01    9.28       1.0  T
   3    -41.1106014 -0.220907E-05  0.134E-02    9.28       1.7  T
   4    -41.1106016 -0.204060E-06  0.485E-03    9.28       4.7  T
   5    -41.1106016 -0.155991E-07  0.119E-03    9.28      19.4  T
   6    -41.1106016 -0.101454E-08  0.756E-04    9.28      30.4  T
speedup  1.08
cpu  time for SCC    0.00 s
wall time for SCC    0.00 s
speedup  1.01
cpu  time for grad    0.01 s
wall time for grad    0.01 s
 E :    -40.91270989  G :  0.005113    pred/act E change: -0.302D-04 -0.523D-04
Maxdispl :   0.0620   ||displ|| :   0.1177   Lambda : -0.652D-04
Largest |displ|/coords:  0.0620 (   1)  0.0502 (  25)  0.0433 (   2)
................................................................................
.............................. CYCLE   19 ......................................
................................................................................
   1    -41.1099237 -0.411099E+02  0.120E-01    9.26       0.0  T
   2    -41.1099258 -0.218359E-05  0.903E-02    9.26       1.0  T
   3    -41.1099276 -0.177450E-05  0.128E-02    9.26       1.8  T
   4    -41.1099279 -0.269703E-06  0.375E-03    9.26       6.1  T
   5    -41.1099279 -0.129259E-07  0.108E-03    9.26      21.3  T
   6    -41.1099279 -0.810658E-09  0.629E-04    9.26      36.5  T
speedup  0.81
cpu  time for SCC    0.00 s
wall time for SCC    0.00 s
speedup  1.00
cpu  time for grad    0.01 s
wall time for grad    0.01 s
 E :    -40.91275209  G :  0.006170    pred/act E change: -0.436D-04 -0.422D-04
Maxdispl :   0.0531   ||displ|| :   0.1200   Lambda : -0.115D-03
Largest |displ|/coords:  0.0531 (   1)  0.0507 (   4)  0.0474 (  15)
................................................................................
.............................. CYCLE   20 ......................................
................................................................................
   1    -41.1120028 -0.411120E+02  0.976E-02    9.23       0.0  T
   2    -41.1120065 -0.366993E-05  0.713E-02    9.23       1.0  T
   3    -41.1120084 -0.185173E-05  0.149E-02    9.23       1.5  T
   4    -41.1120088 -0.393219E-06  0.462E-03    9.23       5.0  T
   5    -41.1120088 -0.257720E-07  0.120E-03    9.23      19.1  T
   6    -41.1120088 -0.120929E-08  0.676E-04    9.23      33.9  T
speedup  0.79
cpu  time for SCC    0.00 s
wall time for SCC    0.00 s
speedup  0.99
cpu  time for grad    0.01 s
wall time for grad    0.01 s
 E :    -40.91270158  G :  0.012684    pred/act E change: -0.331D-04  0.505D-04
Maxdispl :   0.1022   ||displ|| :   0.1668   Lambda : -0.283D-03
Largest |displ|/coords:  0.1022 (   2)  0.0635 (   6)  0.0630 (  25)
................................................................................
.............................. CYCLE   21 ......................................
................................................................................
   1    -41.1096967 -0.411097E+02  0.188E-01    9.24       0.0  T
   2    -41.1097041 -0.739208E-05  0.141E-01    9.24       1.0  T
   3    -41.1097093 -0.519010E-05  0.215E-02    9.24       1.1  T
   4    -41.1097103 -0.101843E-05  0.691E-03    9.24       3.3  T
   5    -41.1097103 -0.563571E-07  0.219E-03    9.24      10.5  T
   6    -41.1097104 -0.260994E-08  0.130E-03    9.24      17.7  T
speedup  0.79
cpu  time for SCC    0.00 s
wall time for SCC    0.00 s
speedup  1.00
cpu  time for grad    0.01 s
wall time for grad    0.01 s
 E :    -40.91279668  G :  0.011088    pred/act E change: -0.584D-04 -0.951D-04
Maxdispl :   0.0862   ||displ|| :   0.1450   Lambda : -0.144D-03
Largest |displ|/coords:  0.0862 (   2)  0.0560 (  25)  0.0461 (   5)
................................................................................
.............................. CYCLE   22 ......................................
................................................................................
   1    -41.1108524 -0.411109E+02  0.146E-01    9.27       0.0  T
   2    -41.1108553 -0.286941E-05  0.109E-01    9.27       1.0  T
   3    -41.1108573 -0.206992E-05  0.157E-02    9.27       1.5  T
   4    -41.1108577 -0.388424E-06  0.422E-03    9.27       5.4  T
   5    -41.1108578 -0.199421E-07  0.142E-03    9.27      16.1  T
   6    -41.1108578 -0.162176E-08  0.786E-04    9.27      29.2  T
speedup  0.81
cpu  time for SCC    0.00 s
wall time for SCC    0.00 s
speedup  0.89
cpu  time for grad    0.01 s
wall time for grad    0.01 s
 E :    -40.91284540  G :  0.003714    pred/act E change: -0.145D-03 -0.487D-04
Maxdispl :   0.0480   ||displ|| :   0.0886   Lambda : -0.507D-04
Largest |displ|/coords:  0.0480 (   2)  0.0415 (  25)  0.0362 (   1)
................................................................................
.............................. CYCLE   23 ......................................
................................................................................
   1    -41.1103307 -0.411103E+02  0.900E-02    9.26       0.0  T
   2    -41.1103317 -0.995671E-06  0.671E-02    9.26       1.0  T
   3    -41.1103322 -0.514155E-06  0.958E-03    9.26       2.4  T
   4    -41.1103324 -0.165376E-06  0.345E-03    9.26       6.7  T
   5    -41.1103324 -0.654727E-08  0.617E-04    9.26      37.2  T
   6    -41.1103324 -0.292957E-09  0.401E-04    9.26      57.3  T
speedup  0.81
cpu  time for SCC    0.00 s
wall time for SCC    0.00 s
speedup  0.97
cpu  time for grad    0.01 s
wall time for grad    0.01 s
 E :    -40.91288039  G :  0.004708    pred/act E change: -0.736D-04 -0.350D-04
Maxdispl :   0.0942   ||displ|| :   0.1905   Lambda : -0.984D-04
Largest |displ|/coords:  0.0942 (  25)  0.0911 (   2)  0.0545 (  15)
................................................................................
.............................. CYCLE   24 ......................................
................................................................................
   1    -41.1089033 -0.411089E+02  0.209E-01    9.25       0.0  T
   2    -41.1089091 -0.582914E-05  0.157E-01    9.25       1.0  T
   3    -41.1089128 -0.365354E-05  0.217E-02    9.24       1.1  T
   4    -41.1089137 -0.921537E-06  0.797E-03    9.24       2.9  T
   5    -41.1089137 -0.369135E-07  0.170E-03    9.24      13.5  T
   6    -41.1089137 -0.141029E-08  0.107E-03    9.24      21.4  T
speedup  1.05
cpu  time for SCC    0.00 s
wall time for SCC    0.00 s
speedup  1.00
cpu  time for grad    0.01 s
wall time for grad    0.01 s
 E :    -40.91292181  G :  0.009909    pred/act E change: -0.255D-04 -0.414D-04
Maxdispl :   0.0532   ||displ|| :   0.0726   Lambda : -0.975D-04
Largest |displ|/coords:  0.0532 (   1)  0.0234 (   5)  0.0181 (  12)
................................................................................
.............................. CYCLE   25 ......................................
................................................................................
   1    -41.1107370 -0.411107E+02  0.476E-02    9.25       0.0  T
   2    -41.1107382 -0.128034E-05  0.351E-02    9.25       1.0  T
   3    -41.1107390 -0.732428E-06  0.843E-03    9.25       2.7  T
   4    -41.1107391 -0.139782E-06  0.228E-03    9.25      10.0  T
   5    -41.1107391 -0.944708E-08  0.702E-04    9.25      32.7  T
speedup  0.94
cpu  time for SCC    0.00 s
wall time for SCC    0.00 s
speedup  0.95
cpu  time for grad    0.01 s
wall time for grad    0.01 s
 E :    -40.91296542  G :  0.003132    pred/act E change: -0.510D-04 -0.436D-04
Maxdispl :   0.0375   ||displ|| :   0.0875   Lambda : -0.882D-04
Largest |displ|/coords:  0.0375 (  10)  0.0361 (   5)  0.0301 (  25)

generating ANC from model Hessian ...
 Shifting diagonal of input Hessian by   4.885002963670668E-003
 Lowest  eigenvalues of input Hessian
   -0.000000   -0.000000    0.000000    0.000000    0.000000    0.000000
    0.005000    0.005635    0.006868    0.007365    0.008232    0.009429
    0.012083    0.013949    0.015913    0.016656    0.018593    0.021306
 Highest eigenvalues
    1.369342    1.408931    1.427483    2.633029    3.375727    3.653288
 
cpu  time for ANC gen    0.01 s
wall time for ANC gen    0.01 s
................................................................................
.............................. CYCLE   26 ......................................
................................................................................
   1    -41.1107912 -0.411108E+02  0.100E-01    9.27       0.0  T
   2    -41.1107930 -0.181351E-05  0.756E-02    9.27       1.0  T
   3    -41.1107941 -0.106034E-05  0.110E-02    9.27       2.1  T
   4    -41.1107944 -0.301085E-06  0.405E-03    9.27       5.7  T
   5    -41.1107944 -0.988659E-08  0.701E-04    9.27      32.7  T
   6    -41.1107944 -0.274596E-09  0.462E-04    9.27      49.6  T
speedup  1.05
cpu  time for SCC    0.00 s
wall time for SCC    0.00 s
speedup  0.97
cpu  time for grad    0.01 s
wall time for grad    0.01 s
 E :    -40.91302135  G :  0.003478    pred/act E change:  0.000D+00 -0.559D-04
Maxdispl :   0.0273   ||displ|| :   0.0481   Lambda : -0.410D-04
Largest |displ|/coords:  0.0273 (   1)  0.0219 (   8)  0.0154 (  12)
................................................................................
.............................. CYCLE   27 ......................................
................................................................................
   1    -41.1108572 -0.411109E+02  0.651E-02    9.27       0.0  T
   2    -41.1108577 -0.519285E-06  0.497E-02    9.27       1.0  T
   3    -41.1108583 -0.555700E-06  0.379E-03    9.27       6.0  T
   4    -41.1108583 -0.450885E-07  0.151E-03    9.27      15.2  T
   5    -41.1108583 -0.156160E-08  0.440E-04    9.27      52.1  T
   6    -41.1108583 -0.111669E-09  0.249E-04    9.27      92.2  T
speedup  1.08
cpu  time for SCC    0.00 s
wall time for SCC    0.00 s
speedup  0.98
cpu  time for grad    0.01 s
wall time for grad    0.01 s
 E :    -40.91305314  G :  0.002078    pred/act E change:  0.000D+00 -0.318D-04
Maxdispl :   0.0937   ||displ|| :   0.1314   Lambda : -0.657D-04
Largest |displ|/coords:  0.0937 (   1)  0.0593 (   8)  0.0329 (   3)
................................................................................
.............................. CYCLE   28 ......................................
................................................................................
   1    -41.1104906 -0.411105E+02  0.141E-01    9.27       0.0  T
   2    -41.1104928 -0.214806E-05  0.106E-01    9.27       1.0  T
   3    -41.1104948 -0.205996E-05  0.882E-03    9.27       2.6  T
   4    -41.1104951 -0.236974E-06  0.314E-03    9.27       7.3  T
   5    -41.1104951 -0.473666E-08  0.120E-03    9.27      19.1  T
   6    -41.1104951 -0.121899E-08  0.605E-04    9.27      37.9  T
   7    -41.1104951 -0.371337E-09  0.125E-04    9.27     183.5  T
speedup  1.14
cpu  time for SCC    0.01 s
wall time for SCC    0.00 s
speedup  0.91
cpu  time for grad    0.01 s
wall time for grad    0.01 s
 E :    -40.91308685  G :  0.005139    pred/act E change: -0.206D-04 -0.337D-04
Maxdispl :   0.0302   ||displ|| :   0.0387   Lambda : -0.260D-04
Largest |displ|/coords:  0.0302 (   1)  0.0131 (   5)  0.0131 (   8)
................................................................................
.............................. CYCLE   29 ......................................
................................................................................
   1    -41.1107284 -0.411107E+02  0.271E-02    9.27       0.0  T
   2    -41.1107285 -0.139027E-06  0.203E-02    9.27       1.1  T
   3    -41.1107287 -0.105572E-06  0.249E-03    9.28       9.2  T
   4    -41.1107287 -0.189096E-07  0.616E-04    9.27      37.3  T
speedup  1.15
cpu  time for SCC    0.00 s
wall time for SCC    0.00 s
speedup  1.03
cpu  time for grad    0.01 s
wall time for grad    0.01 s
 E :    -40.91310830  G :  0.003128    pred/act E change: -0.334D-04 -0.215D-04
Maxdispl :   0.1489   ||displ|| :   0.1752   Lambda : -0.623D-04
Largest |displ|/coords:  0.1489 (   1)  0.0667 (   8)  0.0222 (   4)
................................................................................
.............................. CYCLE   30 ......................................
................................................................................
   1    -41.1104770 -0.411105E+02  0.139E-01    9.27       0.0  T
   2    -41.1104788 -0.180818E-05  0.105E-01    9.28       1.0  T
   3    -41.1104806 -0.182014E-05  0.838E-03    9.28       2.7  T
   4    -41.1104808 -0.187151E-06  0.261E-03    9.28       8.8  T
   5    -41.1104808 -0.465989E-08  0.126E-03    9.28      18.3  T
   6    -41.1104808 -0.209637E-08  0.491E-04    9.28      46.7  T
   7    -41.1104808 -0.316064E-09  0.159E-04    9.28     144.2  T
speedup  0.93
cpu  time for SCC    0.00 s
wall time for SCC    0.00 s
speedup  1.02
cpu  time for grad    0.01 s
wall time for grad    0.01 s
 E :    -40.91314780  G :  0.002594    pred/act E change: -0.130D-04 -0.395D-04
Maxdispl :   0.0937   ||displ|| :   0.1083   Lambda : -0.280D-04
Largest |displ|/coords:  0.0937 (   1)  0.0259 (   8)  0.0191 (   2)
................................................................................
.............................. CYCLE   31 ......................................
................................................................................
   1    -41.1103795 -0.411104E+02  0.829E-02    9.28       0.0  T
   2    -41.1103801 -0.580053E-06  0.624E-02    9.28       1.0  T
   3    -41.1103807 -0.634656E-06  0.572E-03    9.28       4.0  T
   4    -41.1103808 -0.492750E-07  0.211E-03    9.28      10.9  T
   5    -41.1103808 -0.379909E-08  0.703E-04    9.28      32.6  T
   6    -41.1103808 -0.377959E-09  0.397E-04    9.28      57.7  T
speedup  1.05
cpu  time for SCC    0.00 s
wall time for SCC    0.00 s
speedup  0.97
cpu  time for grad    0.01 s
wall time for grad    0.01 s
 E :    -40.91316894  G :  0.002808    pred/act E change: -0.321D-04 -0.211D-04
Maxdispl :   0.1445   ||displ|| :   0.1633   Lambda : -0.429D-04
Largest |displ|/coords:  0.1445 (   1)  0.0331 (   2)  0.0321 (   8)
................................................................................
.............................. CYCLE   32 ......................................
................................................................................
   1    -41.1103381 -0.411103E+02  0.130E-01    9.29       0.0  T
   2    -41.1103397 -0.155577E-05  0.978E-02    9.29       1.0  T
   3    -41.1103413 -0.155576E-05  0.102E-02    9.29       2.3  T
   4    -41.1103414 -0.156153E-06  0.393E-03    9.29       5.8  T
   5    -41.1103414 -0.111950E-07  0.111E-03    9.29      20.6  T
   6    -41.1103414 -0.752181E-09  0.685E-04    9.29      33.5  T
   7    -41.1103414 -0.456019E-09  0.136E-04    9.29     169.0  T
speedup  1.16
cpu  time for SCC    0.00 s
wall time for SCC    0.00 s
speedup  1.01
cpu  time for grad    0.01 s
wall time for grad    0.01 s
 E :    -40.91319877  G :  0.003209    pred/act E change: -0.142D-04 -0.298D-04
Maxdispl :   0.1174   ||displ|| :   0.1415   Lambda : -0.343D-04
Largest |displ|/coords:  0.1174 (   1)  0.0430 (   2)  0.0273 (   6)
................................................................................
.............................. CYCLE   33 ......................................
................................................................................
   1    -41.1101628 -0.411102E+02  0.123E-01    9.30       0.0  T
   2    -41.1101643 -0.149010E-05  0.923E-02    9.30       1.0  T
   3    -41.1101657 -0.140417E-05  0.105E-02    9.29       2.2  T
   4    -41.1101659 -0.164401E-06  0.407E-03    9.29       5.6  T
   5    -41.1101659 -0.115508E-07  0.108E-03    9.29      21.2  T
   6    -41.1101659 -0.671022E-09  0.677E-04    9.29      33.9  T
   7    -41.1101659 -0.412570E-09  0.133E-04    9.29     172.5  T
speedup  1.16
cpu  time for SCC    0.01 s
wall time for SCC    0.00 s
speedup  1.00
cpu  time for grad    0.01 s
wall time for grad    0.01 s
 E :    -40.91321973  G :  0.003812    pred/act E change: -0.220D-04 -0.210D-04
Maxdispl :   0.0791   ||displ|| :   0.1302   Lambda : -0.711D-04
Largest |displ|/coords:  0.0791 (   1)  0.0422 (   2)  0.0287 (  17)
................................................................................
.............................. CYCLE   34 ......................................
................................................................................
   1    -41.1125298 -0.411125E+02  0.106E-01    9.32       0.0  T
   2    -41.1125337 -0.396113E-05  0.765E-02    9.32       1.0  T
   3    -41.1125357 -0.197233E-05  0.171E-02    9.31       1.3  T
   4    -41.1125361 -0.359803E-06  0.664E-03    9.31       3.5  T
   5    -41.1125361 -0.278322E-07  0.996E-04    9.31      23.0  T
   6    -41.1125361 -0.114686E-08  0.605E-04    9.31      37.9  T
speedup  1.08
cpu  time for SCC    0.00 s
wall time for SCC    0.00 s
speedup  1.08
cpu  time for grad    0.01 s
wall time for grad    0.01 s
 E :    -40.91315098  G :  0.011027    pred/act E change: -0.175D-04  0.688D-04
Maxdispl :   0.0443   ||displ|| :   0.0718   Lambda : -0.178D-03
Largest |displ|/coords:  0.0443 (   8)  0.0439 (   1)  0.0166 (   3)
................................................................................
.............................. CYCLE   35 ......................................
................................................................................
   1    -41.1105811 -0.411106E+02  0.816E-02    9.30       0.0  T
   2    -41.1105832 -0.207587E-05  0.609E-02    9.30       1.0  T
   3    -41.1105846 -0.138376E-05  0.100E-02    9.30       2.3  T
   4    -41.1105849 -0.280328E-06  0.271E-03    9.30       8.5  T
   5    -41.1105849 -0.588260E-08  0.106E-03    9.30      21.6  T
speedup  0.94
cpu  time for SCC    0.00 s
wall time for SCC    0.00 s
speedup  0.95
cpu  time for grad    0.01 s
wall time for grad    0.01 s
 E :    -40.91324345  G :  0.002717    pred/act E change: -0.361D-04 -0.925D-04
Maxdispl :   0.0446   ||displ|| :   0.0531   Lambda : -0.149D-04
Largest |displ|/coords:  0.0446 (   1)  0.0199 (   2)  0.0068 (  15)
................................................................................
.............................. CYCLE   36 ......................................
................................................................................
   1    -41.1108132 -0.411108E+02  0.382E-02    9.30       0.0  T
   2    -41.1108135 -0.255349E-06  0.282E-02    9.30       1.0  T
   3    -41.1108136 -0.186577E-06  0.483E-03    9.30       4.8  T
   4    -41.1108137 -0.293615E-07  0.185E-03    9.30      12.4  T
   5    -41.1108137 -0.276317E-08  0.406E-04    9.30      56.5  T
   6    -41.1108137 -0.141704E-09  0.261E-04    9.30      88.0  T
speedup  1.08
cpu  time for SCC    0.00 s
wall time for SCC    0.00 s
speedup  0.97
cpu  time for grad    0.01 s
wall time for grad    0.01 s
 E :    -40.91325244  G :  0.001541    pred/act E change: -0.896D-04 -0.899D-05
Maxdispl :   0.0261   ||displ|| :   0.0500   Lambda : -0.163D-04
Largest |displ|/coords:  0.0261 (   1)  0.0214 (   8)  0.0156 (   2)
................................................................................
.............................. CYCLE   37 ......................................
................................................................................
   1    -41.1106895 -0.411107E+02  0.591E-02    9.30       0.0  T
   2    -41.1106898 -0.297447E-06  0.444E-02    9.30       1.0  T
   3    -41.1106900 -0.224477E-06  0.445E-03    9.30       5.2  T
   4    -41.1106900 -0.451078E-07  0.136E-03    9.30      16.9  T
   5    -41.1106900 -0.125741E-08  0.418E-04    9.30      54.8  T
   6    -41.1106900 -0.939409E-10  0.226E-04    9.30     101.7  T
speedup  1.08
cpu  time for SCC    0.00 s
wall time for SCC    0.00 s
speedup  1.08
cpu  time for grad    0.01 s
wall time for grad    0.01 s
 E :    -40.91326558  G :  0.001616    pred/act E change: -0.748D-05 -0.131D-04
Maxdispl :   0.0788   ||displ|| :   0.1379   Lambda : -0.321D-04
Largest |displ|/coords:  0.0788 (   1)  0.0423 (   2)  0.0422 (   8)
................................................................................
.............................. CYCLE   38 ......................................
................................................................................
   1    -41.1102180 -0.411102E+02  0.160E-01    9.30       0.0  T
   2    -41.1102205 -0.243108E-05  0.120E-01    9.30       1.0  T
   3    -41.1102225 -0.201745E-05  0.125E-02    9.29       1.8  T
   4    -41.1102228 -0.336465E-06  0.440E-03    9.30       5.2  T
   5    -41.1102228 -0.114668E-07  0.121E-03    9.30      18.9  T
   6    -41.1102228 -0.740904E-09  0.708E-04    9.30      32.4  T
   7    -41.1102228 -0.454811E-09  0.121E-04    9.30     190.3  T
speedup  0.93
cpu  time for SCC    0.00 s
wall time for SCC    0.00 s
speedup  1.01
cpu  time for grad    0.01 s
wall time for grad    0.01 s
 E :    -40.91328189  G :  0.004413    pred/act E change: -0.819D-05 -0.163D-04
Maxdispl :   0.0255   ||displ|| :   0.0468   Lambda : -0.271D-04
Largest |displ|/coords:  0.0255 (   1)  0.0187 (   2)  0.0181 (   5)
................................................................................
.............................. CYCLE   39 ......................................
................................................................................
   1    -41.1109335 -0.411109E+02  0.374E-02    9.30       0.0  T
   2    -41.1109339 -0.367063E-06  0.275E-02    9.30       1.0  T
   3    -41.1109341 -0.225908E-06  0.536E-03    9.30       4.3  T
   4    -41.1109342 -0.406920E-07  0.161E-03    9.30      14.2  T
   5    -41.1109342 -0.320958E-08  0.377E-04    9.30      60.8  T
speedup  0.97
cpu  time for SCC    0.00 s
wall time for SCC    0.00 s
speedup  0.95
cpu  time for grad    0.01 s
wall time for grad    0.01 s
 E :    -40.91329415  G :  0.002823    pred/act E change: -0.164D-04 -0.123D-04
Maxdispl :   0.0445   ||displ|| :   0.0671   Lambda : -0.171D-04
Largest |displ|/coords:  0.0445 (   1)  0.0169 (  24)  0.0150 (  27)
................................................................................
.............................. CYCLE   40 ......................................
................................................................................
   1    -41.1108302 -0.411108E+02  0.710E-02    9.30       0.0  T
   2    -41.1108308 -0.540382E-06  0.535E-02    9.30       1.0  T
   3    -41.1108313 -0.470169E-06  0.642E-03    9.30       3.6  T
   4    -41.1108313 -0.668341E-07  0.227E-03    9.30      10.1  T
   5    -41.1108313 -0.295408E-08  0.526E-04    9.30      43.6  T
   6    -41.1108313 -0.130683E-09  0.330E-04    9.30      69.5  T
speedup  1.05
cpu  time for SCC    0.00 s
wall time for SCC    0.00 s
speedup  0.96
cpu  time for grad    0.01 s
wall time for grad    0.01 s
 E :    -40.91330834  G :  0.002174    pred/act E change: -0.136D-04 -0.142D-04
Maxdispl :   0.1223   ||displ|| :   0.1781   Lambda : -0.352D-04
Largest |displ|/coords:  0.1223 (   1)  0.0446 (  24)  0.0417 (   2)
................................................................................
.............................. CYCLE   41 ......................................
................................................................................
   1    -41.1097514 -0.411098E+02  0.181E-01    9.29       0.0  T
   2    -41.1097550 -0.358268E-05  0.136E-01    9.29       1.0  T
   3    -41.1097580 -0.299239E-05  0.158E-02    9.29       1.5  T
   4    -41.1097585 -0.476486E-06  0.565E-03    9.29       4.1  T
   5    -41.1097585 -0.190754E-07  0.141E-03    9.29      16.3  T
   6    -41.1097585 -0.981998E-09  0.857E-04    9.29      26.8  T
   7    -41.1097585 -0.638238E-09  0.155E-04    9.29     147.6  T
speedup  1.16
cpu  time for SCC    0.00 s
wall time for SCC    0.00 s
speedup  1.01
cpu  time for grad    0.01 s
wall time for grad    0.01 s
 E :    -40.91331958  G :  0.005334    pred/act E change: -0.861D-05 -0.112D-04
Maxdispl :   0.0275   ||displ|| :   0.0526   Lambda : -0.465D-04
Largest |displ|/coords:  0.0275 (   2)  0.0220 (   8)  0.0163 (  10)
................................................................................
.............................. CYCLE   42 ......................................
................................................................................
   1    -41.1111904 -0.411112E+02  0.548E-02    9.29       0.0  T
   2    -41.1111915 -0.114661E-05  0.405E-02    9.29       1.0  T
   3    -41.1111921 -0.552961E-06  0.904E-03    9.29       2.5  T
   4    -41.1111923 -0.170846E-06  0.242E-03    9.29       9.5  T
   5    -41.1111923 -0.983049E-08  0.949E-04    9.29      24.2  T
speedup  0.97
cpu  time for SCC    0.00 s
wall time for SCC    0.00 s
speedup  0.95
cpu  time for grad    0.01 s
wall time for grad    0.01 s
 E :    -40.91332822  G :  0.003050    pred/act E change: -0.182D-04 -0.864D-05
Maxdispl :   0.0157   ||displ|| :   0.0314   Lambda : -0.252D-04
Largest |displ|/coords:  0.0157 (   2)  0.0116 (   8)  0.0094 (  25)
................................................................................
.............................. CYCLE   43 ......................................
................................................................................
   1    -41.1107506 -0.411108E+02  0.376E-02    9.29       0.0  T
   2    -41.1107508 -0.272271E-06  0.279E-02    9.29       1.0  T
   3    -41.1107509 -0.103417E-06  0.490E-03    9.29       4.7  T
   4    -41.1107510 -0.483993E-07  0.103E-03    9.29      22.3  T
   5    -41.1107510 -0.111450E-08  0.336E-04    9.29      68.3  T
   6    -41.1107510 -0.737472E-10  0.173E-04    9.29     132.4  T
speedup  1.00
cpu  time for SCC    0.00 s
wall time for SCC    0.00 s
speedup  0.94
cpu  time for grad    0.01 s
wall time for grad    0.01 s
 E :    -40.91334490  G :  0.001863    pred/act E change: -0.233D-04 -0.167D-04
Maxdispl :   0.0448   ||displ|| :   0.0861   Lambda : -0.175D-04
Largest |displ|/coords:  0.0448 (   1)  0.0272 (  10)  0.0245 (   2)
................................................................................
.............................. CYCLE   44 ......................................
................................................................................
   1    -41.1101705 -0.411102E+02  0.939E-02    9.29       0.0  T
   2    -41.1101718 -0.132521E-05  0.706E-02    9.29       1.0  T
   3    -41.1101725 -0.747918E-06  0.946E-03    9.29       2.4  T
   4    -41.1101728 -0.237557E-06  0.290E-03    9.29       7.9  T
   5    -41.1101728 -0.516866E-08  0.661E-04    9.29      34.7  T
   6    -41.1101728 -0.208047E-09  0.411E-04    9.29      55.9  T
speedup  1.05
cpu  time for SCC    0.00 s
wall time for SCC    0.00 s
speedup  0.97
cpu  time for grad    0.01 s
wall time for grad    0.01 s
 E :    -40.91335541  G :  0.003359    pred/act E change: -0.126D-04 -0.105D-04
Maxdispl :   0.0152   ||displ|| :   0.0358   Lambda : -0.124D-04
Largest |displ|/coords:  0.0152 (  10)  0.0125 (   1)  0.0077 (   3)
................................................................................
.............................. CYCLE   45 ......................................
................................................................................
   1    -41.1103704 -0.411104E+02  0.340E-02    9.29       0.0  T
   2    -41.1103708 -0.400082E-06  0.252E-02    9.29       1.0  T
   3    -41.1103709 -0.133596E-06  0.571E-03    9.29       4.0  T
   4    -41.1103710 -0.633731E-07  0.158E-03    9.29      14.5  T
   5    -41.1103710 -0.188214E-08  0.282E-04    9.29      81.4  T
   6    -41.1103710 -0.501643E-10  0.187E-04    9.29     122.9  T
speedup  1.08
cpu  time for SCC    0.00 s
wall time for SCC    0.00 s
speedup  1.08
cpu  time for grad    0.01 s
wall time for grad    0.01 s
 E :    -40.91336502  G :  0.002390    pred/act E change: -0.883D-05 -0.961D-05
Maxdispl :   0.0513   ||displ|| :   0.1126   Lambda : -0.242D-04
Largest |displ|/coords:  0.0513 (   1)  0.0477 (  10)  0.0287 (  24)
................................................................................
.............................. CYCLE   46 ......................................
................................................................................
   1    -41.1104809 -0.411105E+02  0.109E-01    9.28       0.0  T
   2    -41.1104839 -0.306195E-05  0.816E-02    9.29       1.0  T
   3    -41.1104850 -0.110859E-05  0.150E-02    9.29       1.5  T
   4    -41.1104856 -0.567469E-06  0.423E-03    9.29       5.4  T
   5    -41.1104856 -0.113265E-07  0.704E-04    9.29      32.6  T
   6    -41.1104856 -0.214179E-09  0.442E-04    9.29      51.9  T
speedup  1.05
cpu  time for SCC    0.00 s
wall time for SCC    0.00 s
speedup  0.95
cpu  time for grad    0.01 s
wall time for grad    0.01 s
 E :    -40.91337672  G :  0.004028    pred/act E change: -0.623D-05 -0.117D-04
Maxdispl :   0.0241   ||displ|| :   0.0404   Lambda : -0.232D-04
Largest |displ|/coords:  0.0241 (   1)  0.0123 (  10)  0.0120 (   8)
................................................................................
.............................. CYCLE   47 ......................................
................................................................................
   1    -41.1112463 -0.411112E+02  0.268E-02    9.29       0.0  T
   2    -41.1112470 -0.641556E-06  0.193E-02    9.29       1.2  T
   3    -41.1112472 -0.240881E-06  0.677E-03    9.29       3.4  T
   4    -41.1112473 -0.568936E-07  0.205E-03    9.29      11.2  T
   5    -41.1112473 -0.420522E-08  0.462E-04    9.29      49.7  T
speedup  0.97
cpu  time for SCC    0.00 s
wall time for SCC    0.00 s
speedup  1.07
cpu  time for grad    0.01 s
wall time for grad    0.01 s
 E :    -40.91338556  G :  0.001882    pred/act E change: -0.122D-04 -0.884D-05
Maxdispl :   0.0468   ||displ|| :   0.0825   Lambda : -0.126D-04
Largest |displ|/coords:  0.0468 (   1)  0.0227 (  24)  0.0222 (  10)
................................................................................
.............................. CYCLE   48 ......................................
................................................................................
   1    -41.1105933 -0.411106E+02  0.812E-02    9.29       0.0  T
   2    -41.1105947 -0.140623E-05  0.609E-02    9.29       1.0  T
   3    -41.1105953 -0.608453E-06  0.981E-03    9.29       2.3  T
   4    -41.1105956 -0.263992E-06  0.304E-03    9.29       7.6  T
   5    -41.1105956 -0.641677E-08  0.607E-04    9.29      37.8  T
   6    -41.1105956 -0.201247E-09  0.392E-04    9.29      58.6  T
speedup  1.08
cpu  time for SCC    0.00 s
wall time for SCC    0.00 s
speedup  0.96
cpu  time for grad    0.01 s
wall time for grad    0.01 s
 E :    -40.91339156  G :  0.002226    pred/act E change: -0.116D-04 -0.601D-05
Maxdispl :   0.0115   ||displ|| :   0.0210   Lambda : -0.934D-05
Largest |displ|/coords:  0.0115 (   1)  0.0064 (  24)  0.0057 (  27)
................................................................................
.............................. CYCLE   49 ......................................
................................................................................
   1    -41.1108608 -0.411109E+02  0.198E-02    9.29       0.0  T
   2    -41.1108610 -0.116499E-06  0.148E-02    9.29       1.6  T
   3    -41.1108610 -0.494090E-07  0.303E-03    9.29       7.6  T
   4    -41.1108610 -0.192610E-07  0.734E-04    9.29      31.2  T
   5    -41.1108610 -0.671363E-09  0.191E-04    9.29     120.2  T
speedup  0.97
cpu  time for SCC    0.00 s
wall time for SCC    0.00 s
speedup  1.03
cpu  time for grad    0.01 s
wall time for grad    0.01 s
 E :    -40.91339867  G :  0.002357    pred/act E change: -0.634D-05 -0.711D-05
Maxdispl :   0.0181   ||displ|| :   0.0488   Lambda : -0.192D-04
Largest |displ|/coords:  0.0181 (   1)  0.0151 (  24)  0.0142 (   6)
................................................................................
.............................. CYCLE   50 ......................................
................................................................................
   1    -41.1112369 -0.411112E+02  0.469E-02    9.30       0.0  T
   2    -41.1112373 -0.419500E-06  0.351E-02    9.30       1.0  T
   3    -41.1112375 -0.198620E-06  0.582E-03    9.29       3.9  T
   4    -41.1112376 -0.740427E-07  0.149E-03    9.30      15.3  T
   5    -41.1112376 -0.146544E-08  0.303E-04    9.30      75.8  T
   6    -41.1112376 -0.595790E-10  0.193E-04    9.30     118.7  T
speedup  1.08
cpu  time for SCC    0.00 s
wall time for SCC    0.00 s
speedup  0.96
cpu  time for grad    0.01 s
wall time for grad    0.01 s
 E :    -40.91341309  G :  0.002721    pred/act E change: -0.467D-05 -0.144D-04
Maxdispl :   0.0343   ||displ|| :   0.0972   Lambda : -0.259D-04
Largest |displ|/coords:  0.0343 (  24)  0.0326 (  27)  0.0318 (  17)
................................................................................
.............................. CYCLE   51 ......................................
................................................................................
   1    -41.1109170 -0.411109E+02  0.111E-01    9.30       0.0  T
   2    -41.1109197 -0.266388E-05  0.837E-02    9.30       1.0  T
   3    -41.1109209 -0.115441E-05  0.132E-02    9.29       1.7  T
   4    -41.1109214 -0.510539E-06  0.344E-03    9.30       6.7  T
   5    -41.1109214 -0.919200E-08  0.745E-04    9.30      30.8  T
   6    -41.1109214 -0.321073E-09  0.443E-04    9.30      51.8  T
speedup  1.08
cpu  time for SCC    0.00 s
wall time for SCC    0.00 s
speedup  1.09
cpu  time for grad    0.01 s
wall time for grad    0.01 s
 E :    -40.91342722  G :  0.005387    pred/act E change: -0.962D-05 -0.141D-04
Maxdispl :   0.0859   ||displ|| :   0.1436   Lambda : -0.591D-04
Largest |displ|/coords:  0.0859 (  10)  0.0613 (   1)  0.0520 (   4)
................................................................................
.............................. CYCLE   52 ......................................
................................................................................
   1    -41.1114677 -0.411115E+02  0.112E-01    9.30       0.0  T
   2    -41.1114696 -0.188681E-05  0.835E-02    9.30       1.0  T
   3    -41.1114714 -0.182831E-05  0.125E-02    9.29       1.8  T
   4    -41.1114716 -0.182837E-06  0.325E-03    9.30       7.1  T
   5    -41.1114716 -0.101483E-07  0.944E-04    9.30      24.3  T
   6    -41.1114716 -0.669274E-09  0.565E-04    9.30      40.6  T
speedup  0.81
cpu  time for SCC    0.00 s
wall time for SCC    0.00 s
speedup  0.98
cpu  time for grad    0.01 s
wall time for grad    0.01 s
 E :    -40.91344872  G :  0.004380    pred/act E change: -0.131D-04 -0.215D-04
Maxdispl :   0.0305   ||displ|| :   0.0869   Lambda : -0.398D-04
Largest |displ|/coords:  0.0305 (  47)  0.0290 (  19)  0.0277 (  17)

generating ANC from model Hessian ...
 Shifting diagonal of input Hessian by   4.882532738158193E-003
 Lowest  eigenvalues of input Hessian
   -0.000000   -0.000000    0.000000    0.000000    0.000000    0.000000
    0.005000    0.005700    0.006901    0.007135    0.007953    0.009249
    0.012053    0.014240    0.015618    0.016198    0.018581    0.022372
 Highest eigenvalues
    1.369390    1.398987    1.423069    2.636290    3.373818    3.634688
 
cpu  time for ANC gen    0.01 s
wall time for ANC gen    0.01 s
................................................................................
.............................. CYCLE   53 ......................................
................................................................................
   1    -41.1106047 -0.411106E+02  0.103E-01    9.30       0.0  T
   2    -41.1106074 -0.267034E-05  0.780E-02    9.30       1.0  T
   3    -41.1106086 -0.117094E-05  0.122E-02    9.29       1.9  T
   4    -41.1106091 -0.514053E-06  0.373E-03    9.30       6.2  T
   5    -41.1106091 -0.129247E-07  0.791E-04    9.30      29.0  T
   6    -41.1106091 -0.412065E-09  0.481E-04    9.30      47.7  T
speedup  0.81
cpu  time for SCC    0.00 s
wall time for SCC    0.00 s
speedup  0.97
cpu  time for grad    0.01 s
wall time for grad    0.01 s
 E :    -40.91347076  G :  0.005709    pred/act E change:  0.000D+00 -0.220D-04
Maxdispl :   0.0224   ||displ|| :   0.0320   Lambda : -0.411D-04
Largest |displ|/coords:  0.0224 (   1)  0.0090 (  10)  0.0088 (  11)
................................................................................
.............................. CYCLE   54 ......................................
................................................................................
   1    -41.1108463 -0.411108E+02  0.331E-02    9.30       0.0  T
   2    -41.1108466 -0.237354E-06  0.245E-02    9.30       1.0  T
   3    -41.1108466 -0.848244E-07  0.449E-03    9.30       5.1  T
   4    -41.1108467 -0.402390E-07  0.114E-03    9.30      20.0  T
   5    -41.1108467 -0.128922E-08  0.360E-04    9.30      63.7  T
speedup  0.88
cpu  time for SCC    0.00 s
wall time for SCC    0.00 s
speedup  1.01
cpu  time for grad    0.01 s
wall time for grad    0.01 s
 E :    -40.91350102  G :  0.002179    pred/act E change:  0.000D+00 -0.303D-04
Maxdispl :   0.0425   ||displ|| :   0.0600   Lambda : -0.307D-04
Largest |displ|/coords:  0.0425 (   1)  0.0185 (   2)  0.0179 (  11)
................................................................................
.............................. CYCLE   55 ......................................
................................................................................
   1    -41.1109973 -0.411110E+02  0.605E-02    9.30       0.0  T
   2    -41.1109977 -0.323123E-06  0.451E-02    9.30       1.0  T
   3    -41.1109978 -0.159974E-06  0.506E-03    9.30       4.5  T
   4    -41.1109979 -0.589367E-07  0.166E-03    9.30      13.8  T
   5    -41.1109979 -0.185863E-08  0.444E-04    9.30      51.7  T
   6    -41.1109979 -0.133610E-09  0.259E-04    9.30      88.5  T
speedup  0.83
cpu  time for SCC    0.00 s
wall time for SCC    0.00 s
speedup  0.98
cpu  time for grad    0.01 s
wall time for grad    0.01 s
 E :    -40.91351961  G :  0.002475    pred/act E change: -0.206D-04 -0.186D-04
Maxdispl :   0.0409   ||displ|| :   0.0535   Lambda : -0.141D-04
Largest |displ|/coords:  0.0409 (   1)  0.0171 (   2)  0.0138 (   4)
................................................................................
.............................. CYCLE   56 ......................................
................................................................................
   1    -41.1109688 -0.411110E+02  0.493E-02    9.30       0.0  T
   2    -41.1109689 -0.146254E-06  0.369E-02    9.30       1.0  T
   3    -41.1109690 -0.126827E-06  0.307E-03    9.30       7.5  T
   4    -41.1109690 -0.178228E-07  0.131E-03    9.30      17.5  T
   5    -41.1109690 -0.116133E-08  0.354E-04    9.30      64.9  T
   6    -41.1109690 -0.932943E-10  0.225E-04    9.30     102.0  T
speedup  1.08
cpu  time for SCC    0.00 s
wall time for SCC    0.00 s
speedup  0.97
cpu  time for grad    0.01 s
wall time for grad    0.01 s
 E :    -40.91352889  G :  0.002866    pred/act E change: -0.154D-04 -0.927D-05
Maxdispl :   0.0623   ||displ|| :   0.0777   Lambda : -0.185D-04
Largest |displ|/coords:  0.0623 (   1)  0.0290 (   2)  0.0177 (  11)
................................................................................
.............................. CYCLE   57 ......................................
................................................................................
   1    -41.1108590 -0.411109E+02  0.666E-02    9.31       0.0  T
   2    -41.1108593 -0.337043E-06  0.498E-02    9.31       1.0  T
   3    -41.1108596 -0.251403E-06  0.444E-03    9.31       5.2  T
   4    -41.1108596 -0.488122E-07  0.192E-03    9.31      12.0  T
   5    -41.1108596 -0.284065E-08  0.535E-04    9.31      42.8  T
   6    -41.1108596 -0.253984E-09  0.339E-04    9.31      67.6  T
speedup  0.79
cpu  time for SCC    0.00 s
wall time for SCC    0.00 s
speedup  0.96
cpu  time for grad    0.01 s
wall time for grad    0.01 s
 E :    -40.91354180  G :  0.002179    pred/act E change: -0.707D-05 -0.129D-04
Maxdispl :   0.0623   ||displ|| :   0.0732   Lambda : -0.161D-04
Largest |displ|/coords:  0.0623 (   1)  0.0252 (   2)  0.0124 (   3)
................................................................................
.............................. CYCLE   58 ......................................
................................................................................
   1    -41.1108401 -0.411108E+02  0.547E-02    9.30       0.0  T
   2    -41.1108405 -0.374786E-06  0.409E-02    9.30       1.0  T
   3    -41.1108407 -0.243481E-06  0.467E-03    9.30       4.9  T
   4    -41.1108408 -0.596536E-07  0.177E-03    9.30      13.0  T
   5    -41.1108408 -0.305396E-08  0.549E-04    9.30      41.8  T
   6    -41.1108408 -0.295238E-09  0.320E-04    9.30      71.7  T
speedup  1.08
cpu  time for SCC    0.00 s
wall time for SCC    0.00 s
speedup  0.98
cpu  time for grad    0.01 s
wall time for grad    0.01 s
 E :    -40.91355340  G :  0.001416    pred/act E change: -0.931D-05 -0.116D-04
Maxdispl :   0.0884   ||displ|| :   0.1036   Lambda : -0.157D-04
Largest |displ|/coords:  0.0884 (   1)  0.0379 (   2)  0.0212 (   3)
................................................................................
.............................. CYCLE   59 ......................................
................................................................................
   1    -41.1107103 -0.411107E+02  0.783E-02    9.30       0.0  T
   2    -41.1107109 -0.566712E-06  0.587E-02    9.30       1.0  T
   3    -41.1107113 -0.424847E-06  0.556E-03    9.30       4.1  T
   4    -41.1107114 -0.852820E-07  0.204E-03    9.30      11.3  T
   5    -41.1107114 -0.376685E-08  0.701E-04    9.30      32.7  T
   6    -41.1107114 -0.405116E-09  0.384E-04    9.30      59.8  T
speedup  1.11
cpu  time for SCC    0.00 s
wall time for SCC    0.00 s
speedup  0.98
cpu  time for grad    0.01 s
wall time for grad    0.01 s
 E :    -40.91356550  G :  0.002326    pred/act E change: -0.809D-05 -0.121D-04
Maxdispl :   0.1380   ||displ|| :   0.1606   Lambda : -0.267D-04
Largest |displ|/coords:  0.1380 (   1)  0.0489 (   2)  0.0353 (   3)
................................................................................
.............................. CYCLE   60 ......................................
................................................................................
   1    -41.1107854 -0.411108E+02  0.108E-01    9.30       0.0  T
   2    -41.1107865 -0.107613E-05  0.808E-02    9.30       1.0  T
   3    -41.1107873 -0.838093E-06  0.780E-03    9.30       2.9  T
   4    -41.1107875 -0.156000E-06  0.260E-03    9.30       8.8  T
   5    -41.1107875 -0.703547E-08  0.977E-04    9.30      23.5  T
   6    -41.1107875 -0.648839E-09  0.501E-04    9.30      45.8  T
speedup  0.81
cpu  time for SCC    0.00 s
wall time for SCC    0.00 s
speedup  0.97
cpu  time for grad    0.01 s
wall time for grad    0.01 s
 E :    -40.91358400  G :  0.003172    pred/act E change: -0.791D-05 -0.185D-04
Maxdispl :   0.1118   ||displ|| :   0.1308   Lambda : -0.197D-04
Largest |displ|/coords:  0.1118 (   1)  0.0383 (   2)  0.0263 (   3)
................................................................................
.............................. CYCLE   61 ......................................
................................................................................
   1    -41.1108035 -0.411108E+02  0.906E-02    9.30       0.0  T
   2    -41.1108041 -0.609124E-06  0.682E-02    9.30       1.0  T
   3    -41.1108047 -0.587363E-06  0.546E-03    9.30       4.2  T
   4    -41.1108048 -0.677406E-07  0.194E-03    9.30      11.8  T
   5    -41.1108048 -0.329182E-08  0.726E-04    9.30      31.6  T
   6    -41.1108048 -0.282206E-09  0.329E-04    9.30      69.8  T
speedup  1.03
cpu  time for SCC    0.00 s
wall time for SCC    0.00 s
speedup  0.96
cpu  time for grad    0.01 s
wall time for grad    0.01 s
 E :    -40.91359785  G :  0.003107    pred/act E change: -0.137D-04 -0.139D-04
Maxdispl :   0.0916   ||displ|| :   0.1198   Lambda : -0.350D-04
Largest |displ|/coords:  0.0916 (   1)  0.0245 (   5)  0.0242 (  12)
................................................................................
.............................. CYCLE   62 ......................................
................................................................................
   1    -41.1121523 -0.411122E+02  0.727E-02    9.30       0.0  T
   2    -41.1121533 -0.104192E-05  0.544E-02    9.30       1.0  T
   3    -41.1121542 -0.830580E-06  0.774E-03    9.30       3.0  T
   4    -41.1121543 -0.128614E-06  0.204E-03    9.30      11.3  T
   5    -41.1121543 -0.514022E-08  0.806E-04    9.30      28.5  T
   6    -41.1121543 -0.501622E-09  0.446E-04    9.30      51.5  T
speedup  1.05
cpu  time for SCC    0.00 s
wall time for SCC    0.00 s
speedup  1.08
cpu  time for grad    0.01 s
wall time for grad    0.01 s
 E :    -40.91359792  G :  0.004346    pred/act E change: -0.100D-04 -0.701D-07
Maxdispl :   0.0817   ||displ|| :   0.0989   Lambda : -0.371D-04
Largest |displ|/coords:  0.0817 (   1)  0.0354 (   2)  0.0165 (   8)
................................................................................
.............................. CYCLE   63 ......................................
................................................................................
   1    -41.1112774 -0.411113E+02  0.854E-02    9.30       0.0  T
   2    -41.1112779 -0.465213E-06  0.642E-02    9.30       1.0  T
   3    -41.1112783 -0.397084E-06  0.466E-03    9.30       4.9  T
   4    -41.1112783 -0.568119E-07  0.199E-03    9.30      11.5  T
   5    -41.1112783 -0.290611E-08  0.599E-04    9.30      38.3  T
speedup  0.97
cpu  time for SCC    0.00 s
wall time for SCC    0.00 s
speedup  0.94
cpu  time for grad    0.01 s
wall time for grad    0.01 s
 E :    -40.91361572  G :  0.002069    pred/act E change: -0.177D-04 -0.178D-04
Maxdispl :   0.0620   ||displ|| :   0.0736   Lambda : -0.111D-04
Largest |displ|/coords:  0.0620 (   1)  0.0206 (   3)  0.0199 (   2)
................................................................................
.............................. CYCLE   64 ......................................
................................................................................
   1    -41.1114910 -0.411115E+02  0.428E-02    9.31       0.0  T
   2    -41.1114912 -0.167397E-06  0.321E-02    9.31       1.0  T
   3    -41.1114913 -0.147793E-06  0.323E-03    9.31       7.1  T
   4    -41.1114913 -0.193697E-07  0.976E-04    9.31      23.5  T
   5    -41.1114913 -0.934818E-09  0.364E-04    9.31      63.0  T
speedup  0.97
cpu  time for SCC    0.00 s
wall time for SCC    0.00 s
speedup  1.03
cpu  time for grad    0.01 s
wall time for grad    0.01 s
 E :    -40.91362249  G :  0.000833    pred/act E change: -0.188D-04 -0.677D-05
Maxdispl :   0.0158   ||displ|| :   0.0362   Lambda : -0.105D-04
Largest |displ|/coords:  0.0158 (   1)  0.0115 (  18)  0.0103 (  17)
................................................................................
.............................. CYCLE   65 ......................................
................................................................................
   1    -41.1115216 -0.411115E+02  0.401E-02    9.31       0.0  T
   2    -41.1115219 -0.299077E-06  0.302E-02    9.31       1.0  T
   3    -41.1115221 -0.168794E-06  0.399E-03    9.31       5.7  T
   4    -41.1115221 -0.522930E-07  0.140E-03    9.31      16.4  T
   5    -41.1115221 -0.208780E-08  0.346E-04    9.31      66.3  T
   6    -41.1115221 -0.882565E-10  0.212E-04    9.31     108.2  T
speedup  1.05
cpu  time for SCC    0.00 s
wall time for SCC    0.00 s
speedup  0.96
cpu  time for grad    0.01 s
wall time for grad    0.01 s
 E :    -40.91363124  G :  0.000957    pred/act E change: -0.559D-05 -0.875D-05
Maxdispl :   0.0739   ||displ|| :   0.1246   Lambda : -0.239D-04
Largest |displ|/coords:  0.0739 (   1)  0.0351 (  18)  0.0349 (  17)
................................................................................
.............................. CYCLE   66 ......................................
................................................................................
   1    -41.1112824 -0.411113E+02  0.131E-01    9.31       0.0  T
   2    -41.1112849 -0.250904E-05  0.983E-02    9.31       1.0  T
   3    -41.1112864 -0.152291E-05  0.115E-02    9.31       2.0  T
   4    -41.1112868 -0.436341E-06  0.400E-03    9.31       5.7  T
   5    -41.1112869 -0.154703E-07  0.112E-03    9.31      20.4  T
   6    -41.1112869 -0.726267E-09  0.678E-04    9.31      33.8  T
   7    -41.1112869 -0.516835E-09  0.140E-04    9.31     163.3  T
speedup  1.14
cpu  time for SCC    0.00 s
wall time for SCC    0.00 s
speedup  1.00
cpu  time for grad    0.01 s
wall time for grad    0.01 s
 E :    -40.91364377  G :  0.003445    pred/act E change: -0.525D-05 -0.125D-04
Maxdispl :   0.0150   ||displ|| :   0.0206   Lambda : -0.107D-04
Largest |displ|/coords:  0.0150 (   1)  0.0050 (   5)  0.0045 (  18)
................................................................................
.............................. CYCLE   67 ......................................
................................................................................
   1    -41.1116235 -0.411116E+02  0.137E-02    9.31       0.0  T
   2    -41.1116236 -0.706723E-07  0.101E-02    9.31       2.3  T
   3    -41.1116236 -0.395959E-07  0.230E-03    9.31      10.0  T
   4    -41.1116236 -0.965078E-08  0.715E-04    9.31      32.1  T
   5    -41.1116236 -0.513381E-09  0.168E-04    9.31     136.4  T
speedup  0.97
cpu  time for SCC    0.00 s
wall time for SCC    0.00 s
speedup  1.03
cpu  time for grad    0.01 s
wall time for grad    0.01 s
 E :    -40.91365163  G :  0.002073    pred/act E change: -0.121D-04 -0.786D-05
Maxdispl :   0.0508   ||displ|| :   0.0920   Lambda : -0.188D-04
Largest |displ|/coords:  0.0508 (   1)  0.0276 (   2)  0.0251 (  17)
[...]
cpu  time for SCC    0.00 s
wall time for SCC    0.00 s
speedup  1.06
cpu  time for grad    0.01 s
wall time for grad    0.01 s
 E :    -40.91383925  G :  0.000693    pred/act E change: -0.461D-06 -0.141D-05
Maxdispl :   0.0100   ||displ|| :   0.0260   Lambda : -0.175D-05
Largest |displ|/coords:  0.0100 (  25)  0.0088 (  18)  0.0085 (   1)
................................................................................
.............................. CYCLE   95 ......................................
................................................................................
   1    -41.1120455 -0.411120E+02  0.312E-02    9.31       0.0  T
   2    -41.1120457 -0.132133E-06  0.231E-02    9.31       1.0  T
   3    -41.1120457 -0.402602E-07  0.381E-03    9.31       6.0  T
   4    -41.1120457 -0.244699E-07  0.135E-03    9.31      17.0  T
   5    -41.1120457 -0.595115E-09  0.141E-04    9.31     162.5  T
   6    -41.1120457 -0.137703E-10  0.929E-05    9.31     246.9  T
speedup  0.81
cpu  time for SCC    0.00 s
wall time for SCC    0.00 s
speedup  0.97
cpu  time for grad    0.01 s
wall time for grad    0.01 s
 E :    -40.91384058  G :  0.000671    pred/act E change: -0.992D-06 -0.133D-05
Maxdispl :   0.0124   ||displ|| :   0.0300   Lambda : -0.220D-05
Largest |displ|/coords:  0.0124 (   1)  0.0111 (  25)  0.0103 (  18)
................................................................................
.............................. CYCLE   96 ......................................
................................................................................
   1    -41.1120755 -0.411121E+02  0.362E-02    9.31       0.0  T
   2    -41.1120757 -0.151779E-06  0.269E-02    9.31       1.0  T
   3    -41.1120757 -0.551132E-07  0.413E-03    9.31       5.6  T
   4    -41.1120758 -0.280939E-07  0.153E-03    9.31      15.0  T
   5    -41.1120758 -0.683876E-09  0.161E-04    9.31     142.6  T
   6    -41.1120758 -0.119655E-10  0.108E-04    9.31     211.5  T
speedup  1.08
cpu  time for SCC    0.00 s
wall time for SCC    0.00 s
speedup  0.98
cpu  time for grad    0.01 s
wall time for grad    0.01 s
 E :    -40.91384216  G :  0.000510    pred/act E change: -0.875D-06 -0.158D-05
Maxdispl :   0.0118   ||displ|| :   0.0255   Lambda : -0.164D-05
Largest |displ|/coords:  0.0118 (   1)  0.0092 (  25)  0.0082 (  18)
................................................................................
.............................. CYCLE   97 ......................................
................................................................................
   1    -41.1121009 -0.411121E+02  0.315E-02    9.31       0.0  T
   2    -41.1121010 -0.109846E-06  0.235E-02    9.31       1.0  T
   3    -41.1121011 -0.500113E-07  0.334E-03    9.31       6.9  T
   4    -41.1121011 -0.198955E-07  0.122E-03    9.31      18.9  T
   5    -41.1121011 -0.539899E-09  0.168E-04    9.31     136.8  T
   6    -41.1121011 -0.173088E-10  0.111E-04    9.31     206.9  T
speedup  1.05
cpu  time for SCC    0.00 s
wall time for SCC    0.00 s
speedup  1.06
cpu  time for grad    0.01 s
wall time for grad    0.01 s
 E :    -40.91384338  G :  0.000438    pred/act E change: -0.110D-05 -0.122D-05
Maxdispl :   0.0142   ||displ|| :   0.0273   Lambda : -0.149D-05
Largest |displ|/coords:  0.0142 (   1)  0.0094 (  25)  0.0088 (   2)
................................................................................
.............................. CYCLE   98 ......................................
................................................................................
   1    -41.1121014 -0.411121E+02  0.335E-02    9.31       0.0  T
   2    -41.1121015 -0.130605E-06  0.251E-02    9.31       1.0  T
   3    -41.1121016 -0.679765E-07  0.339E-03    9.31       6.8  T
   4    -41.1121016 -0.232163E-07  0.120E-03    9.31      19.1  T
   5    -41.1121016 -0.674170E-09  0.210E-04    9.31     109.1  T
   6    -41.1121016 -0.317186E-10  0.135E-04    9.31     170.1  T
speedup  0.81
cpu  time for SCC    0.00 s
wall time for SCC    0.00 s
speedup  0.96
cpu  time for grad    0.01 s
wall time for grad    0.01 s
 E :    -40.91384444  G :  0.000379    pred/act E change: -0.820D-06 -0.106D-05
Maxdispl :   0.0102   ||displ|| :   0.0178   Lambda : -0.970D-06
Largest |displ|/coords:  0.0102 (   1)  0.0074 (   2)  0.0051 (  25)
................................................................................
.............................. CYCLE   99 ......................................
................................................................................
   1    -41.1121054 -0.411121E+02  0.207E-02    9.31       0.0  T
   2    -41.1121055 -0.571531E-07  0.156E-02    9.31       1.5  T
   3    -41.1121055 -0.373224E-07  0.190E-03    9.31      12.0  T
   4    -41.1121055 -0.934686E-08  0.656E-04    9.31      35.0  T
   5    -41.1121055 -0.308113E-09  0.157E-04    9.31     146.4  T
speedup  0.97
cpu  time for SCC    0.00 s
wall time for SCC    0.00 s
speedup  1.05
cpu  time for grad    0.01 s
wall time for grad    0.01 s
 E :    -40.91384511  G :  0.000338    pred/act E change: -0.747D-06 -0.669D-06
Maxdispl :   0.0066   ||displ|| :   0.0164   Lambda : -0.677D-06
Largest |displ|/coords:  0.0066 (  25)  0.0054 (   3)  0.0052 (  22)
................................................................................
.............................. CYCLE  100 ......................................
................................................................................
   1    -41.1120473 -0.411120E+02  0.208E-02    9.32       0.0  T
   2    -41.1120473 -0.545415E-07  0.156E-02    9.32       1.5  T
   3    -41.1120474 -0.360203E-07  0.228E-03    9.32      10.1  T
   4    -41.1120474 -0.817284E-08  0.757E-04    9.32      30.3  T
   5    -41.1120474 -0.305349E-09  0.123E-04    9.32     186.6  T
speedup  0.94
cpu  time for SCC    0.00 s
wall time for SCC    0.00 s
speedup  0.91
cpu  time for grad    0.01 s
wall time for grad    0.01 s
 E :    -40.91384548  G :  0.000485    pred/act E change: -0.485D-06 -0.364D-06
Maxdispl :   0.0062   ||displ|| :   0.0139   Lambda : -0.805D-06
Largest |displ|/coords:  0.0062 (  10)  0.0050 (   4)  0.0038 (  13)
................................................................................
.............................. CYCLE  101 ......................................
................................................................................
   1    -41.1121063 -0.411121E+02  0.115E-02    9.32       0.0  T
   2    -41.1121064 -0.313756E-07  0.846E-03    9.32       2.7  T
   3    -41.1121064 -0.118521E-07  0.156E-03    9.32      14.7  T
   4    -41.1121064 -0.481713E-08  0.470E-04    9.32      48.8  T
   5    -41.1121064 -0.212225E-09  0.100E-04    9.32     229.2  T
speedup  1.29
cpu  time for SCC    0.00 s
wall time for SCC    0.00 s
speedup  1.03
cpu  time for grad    0.01 s
wall time for grad    0.01 s
 E :    -40.91384575  G :  0.000436    pred/act E change: -0.339D-06 -0.277D-06
Maxdispl :   0.0030   ||displ|| :   0.0052   Lambda : -0.343D-06
Largest |displ|/coords:  0.0030 (   2)  0.0018 (   1)  0.0017 (   5)
................................................................................
.............................. CYCLE  102 ......................................
................................................................................
   1    -41.1120777 -0.411121E+02  0.632E-03    9.32       0.0  T
   2    -41.1120777 -0.558294E-08  0.474E-03    9.32       4.8  T
   3    -41.1120777 -0.401848E-08  0.659E-04    9.32      34.8  T
   4    -41.1120777 -0.776801E-09  0.201E-04    9.32     114.2  T
speedup  1.15
cpu  time for SCC    0.00 s
wall time for SCC    0.00 s
speedup  0.99
cpu  time for grad    0.01 s
wall time for grad    0.01 s
 E :    -40.91384600  G :  0.000260    pred/act E change: -0.403D-06 -0.248D-06
Maxdispl :   0.0028   ||displ|| :   0.0070   Lambda : -0.289D-06
Largest |displ|/coords:  0.0028 (   2)  0.0026 (   4)  0.0022 (   6)
................................................................................
.............................. CYCLE  103 ......................................
................................................................................
   1    -41.1120504 -0.411121E+02  0.831E-03    9.32       0.0  T
   2    -41.1120504 -0.801455E-08  0.619E-03    9.32       3.7  T
   3    -41.1120504 -0.734602E-08  0.997E-04    9.32      23.0  T
   4    -41.1120504 -0.693056E-09  0.259E-04    9.32      88.7  T
speedup  1.20
cpu  time for SCC    0.00 s
wall time for SCC    0.00 s
speedup  0.99
cpu  time for grad    0.01 s
wall time for grad    0.01 s
 E :    -40.91384620  G :  0.000230    pred/act E change: -0.172D-06 -0.198D-06
Maxdispl :   0.0018   ||displ|| :   0.0047   Lambda : -0.128D-06
Largest |displ|/coords:  0.0018 (   4)  0.0016 (   8)  0.0015 (  10)
................................................................................
.............................. CYCLE  104 ......................................
................................................................................
   1    -41.1120454 -0.411120E+02  0.566E-03    9.31       0.0  T
   2    -41.1120454 -0.425455E-08  0.418E-03    9.31       5.5  T
   3    -41.1120454 -0.399264E-08  0.755E-04    9.31      30.4  T
   4    -41.1120454 -0.301284E-09  0.156E-04    9.31     147.4  T
speedup  1.15
cpu  time for SCC    0.00 s
wall time for SCC    0.00 s
speedup  0.98
cpu  time for grad    0.01 s
wall time for grad    0.01 s
 E :    -40.91384630  G :  0.000190    pred/act E change: -0.145D-06 -0.102D-06
Maxdispl :   0.0025   ||displ|| :   0.0060   Lambda : -0.136D-06
Largest |displ|/coords:  0.0025 (  25)  0.0019 (  10)  0.0018 (  13)
................................................................................
.............................. CYCLE  105 ......................................
................................................................................
   1    -41.1120443 -0.411120E+02  0.796E-03    9.31       0.0  T
   2    -41.1120443 -0.911328E-08  0.590E-03    9.31       3.9  T
   3    -41.1120443 -0.750308E-08  0.108E-03    9.31      21.2  T
   4    -41.1120443 -0.815149E-09  0.340E-04    9.31      67.5  T
   5    -41.1120443 -0.103888E-09  0.504E-05    9.31     455.6  T
speedup  1.29
cpu  time for SCC    0.00 s
wall time for SCC    0.00 s
speedup  1.05
cpu  time for grad    0.01 s
wall time for grad    0.01 s
 E :    -40.91384640  G :  0.000126    pred/act E change: -0.638D-07 -0.948D-07
Maxdispl :   0.0018   ||displ|| :   0.0039   Lambda : -0.662D-07
Largest |displ|/coords:  0.0018 (  25)  0.0011 (   2)  0.0011 (  21)

   *** GEOMETRY OPTIMIZATION CONVERGED AFTER 105 ITERATIONS ***

------------------------------------------------------------------------
 total energy gain (kcal):     -0.0231
------------------------------------------------------------------------
================
 final structure:
================
$coord
        3.14726029163453       -1.79640230358103       -0.57011938423566      S 
        1.99107183074756        0.58768207376547       -1.33679392137017      O 
        4.18160705522584       -1.73142305141003        1.93799894261087      O 
        1.36107751524679       -3.89931706770256       -0.93278025795396      O 
        5.38447398300070       -2.27979518680334       -2.48957784271762      O 
        6.35490416478837       -3.59848240409812       -1.73741381036263      H 
       -2.77938676905433        1.03950567783912       -2.89382688093068      O 
       -3.24947530011287        2.51830502059033       -1.87472799510550      H 
       -0.92691822303093        1.02663196859859       -2.89296847070055      H 
       -0.24448387719335        0.81947909337150        3.08250222131530      O 
        0.93716815116221        0.10752846852944        4.26817053506478      H 
        0.76235552656233        1.00605337910194        1.52745214687613      H 
       -3.14476397173554        4.59232381597060        0.73072537599612      O 
       -2.08592773375144        6.04237917169779        0.48661311265072      H 
       -2.35132336899694        3.57483428516958        2.02722107013916      H 
       -2.83900041866182       -2.37921550986004        0.32801420857886      O 
       -2.26699934746001       -1.30667597300422        1.77177901190096      H 
       -3.12366322231399       -1.03127682245453       -1.17637149052230      H 
       -1.10797628603465       -3.29213463570397       -0.25589657121088      H 
$end
 
 Bond Distances (Angstroems)
 ---------------------------
S1-O2=1.4596         S1-O3=1.4361         S1-O4=1.4726         S1-O5=1.5807         O2-S1=1.4596         O3-S1=1.4361         
O4-S1=1.4726         O5-S1=1.5807         O5-H6=0.9535         H6-O5=0.9535         O7-H8=0.9824         O7-H9=0.9803         
H8-O7=0.9824         H9-O7=0.9803         O10-H11=0.9626       O10-H12=0.9853       H11-O10=0.9626       H12-O10=0.9853       
O13-H14=0.9589       O13-H15=0.9679       H14-O13=0.9589       H15-O13=0.9679       O16-H17=0.9987       O16-H18=1.0795       
O16-H19=1.0807       H17-O16=0.9987       H18-O16=1.0795       H19-O16=1.0807       
 O  H  Rav=0.9950 sigma=0.0445  Rmin=0.9535  Rmax=1.0807    10
 S  O  Rav=1.4873 sigma=0.0555  Rmin=1.4361  Rmax=1.5807     4
 
 selected bond angles (degree)
 --------------------
O3-S1-O2=113.33                O4-S1-O2=110.36                O4-S1-O3=112.53                O5-S1-O2=105.97                
O5-S1-O3=108.20                O5-S1-O4=105.94                H6-O5-S1=104.69                H9-O7-H8=104.98                
H12-O10-H11=103.43             
 
 selected dihedral angles (degree)
 ---------------------------------
H6-O5-S1-O2=166.58            H6-O5-S1-O3= 44.74            H6-O5-S1-O4=283.85            
 
 CMA Distance (Angstroems)
 ---------------------------
R(CMA):  3.2701

========================================================================
 FINAL SINGLEPOINT CALCULATION ON OPTIMIZED GEOMETRY
========================================================================

 Ncao       : 52
 Nao        : 51
 Nshell     : 29
 Nel        : 64
 T(el)      :   300.0
 intcut     :    25.0
 scfconv/Eh :  0.100E-05
   qconv/e  :  0.100E-03
 intneglect :  0.100E-07
 broydamp   :      0.250
 iter      E             dE          RMSdq      gap      omega  full diag
   1    -41.1120443 -0.411120E+02  0.132E-05    9.31       0.0  T
   2    -41.1120443 -0.426326E-13  0.957E-06    9.31    2396.7  T
   3    -41.1120443 -0.170530E-12  0.363E-06    9.31    6316.2  T
speedup  1.05
cpu  time for SCC    0.00 s
wall time for SCC    0.00 s

   *** convergence criteria satisfied after 3 iterations ***

          eigenvalues
 #    :          20         21         22         23         24         25         26         27
 occ. :        2.000      2.000      2.000      2.000      2.000      2.000      2.000      2.000
 eps  :       -14.513    -14.266    -14.125    -13.623    -13.056    -12.838    -12.743    -12.659
 #    :          28         29         30         31         32         33         34         35
 occ. :        2.000      2.000      2.000      2.000      2.000      0.000      0.000      0.000
 eps  :       -12.603    -12.527    -12.335    -12.181    -11.950     -2.635     -0.701     -0.602
 #    :          36         37         38         39         40         41         42         43
 occ. :        0.000      0.000      0.000      0.000      0.000      0.000      0.000      0.000
 eps  :         0.330      1.051      1.831      2.429      3.889      4.403      5.467      6.471


   #   Z            q   n(s)   n(p)   n(d)      C6AA      α(0)
   1  16 S      1.661  1.585  1.793  0.960    89.648    15.936
   2   8 O     -0.742  1.765  4.977  0.000    29.876     7.328
   3   8 O     -0.722  1.766  4.956  0.000    29.324     7.260
   4   8 O     -0.729  1.775  4.954  0.000    29.419     7.275
   5   8 O     -0.575  1.746  4.829  0.000    24.572     6.692
   6   1 H      0.349  0.651  0.000  0.000     0.584     1.196
   7   8 O     -0.592  1.755  4.836  0.000    24.955     6.744
   8   1 H      0.341  0.659  0.000  0.000     0.610     1.227
   9   1 H      0.335  0.665  0.000  0.000     0.626     1.243
  10   8 O     -0.629  1.740  4.889  0.000    25.883     6.866
  11   1 H      0.314  0.686  0.000  0.000     0.680     1.295
  12   1 H      0.326  0.674  0.000  0.000     0.648     1.264
  13   8 O     -0.591  1.740  4.851  0.000    24.969     6.744
  14   1 H      0.292  0.708  0.000  0.000     0.744     1.355
  15   1 H      0.322  0.678  0.000  0.000     0.657     1.273
  16   8 O     -0.508  1.736  4.773  0.000    23.007     6.478
  17   1 H      0.366  0.634  0.000  0.000     0.554     1.169
  18   1 H      0.390  0.610  0.000  0.000     0.500     1.109
  19   1 H      0.391  0.609  0.000  0.000     0.495     1.102

 Mol. C6AA /au·bohr⁶  :       3376.923871
 Mol. C8AA /au·bohr⁸  :      76514.555054
 Mol. α(0) /au        :         83.558441

 
 Wiberg/Mayer (AO) data. WBOs > 0.1 written file <wbo>
 largest (>0.05) Wiberg bond orders for each atom
           total WBO             WBO to atom ...
     1  S   4.872    O    3 1.399    O    2 1.294    O    4 1.229    O    5 0.910
     2  O   1.735    S    1 1.294    O    3 0.112    O    4 0.106    H   12 0.063    O    5 0.060
     3  O   1.724    S    1 1.399    O    2 0.112    O    4 0.111    O    5 0.084
     4  O   1.776    S    1 1.229    H   19 0.202    O    3 0.111    O    2 0.106    O    5 0.067    O   16 0.058
     5  O   1.988    S    1 0.910    H    6 0.861    O    3 0.084    O    4 0.067    O    2 0.060
     6  H   0.878    O    5 0.861
     7  O   2.010    H    9 0.840    H    8 0.828    H   18 0.215    O   16 0.073
     8  H   0.884    O    7 0.828    O   13 0.054
     9  H   0.888    O    7 0.840
    10  O   1.887    H   11 0.886    H   12 0.819    H   17 0.076
    11  H   0.901    O   10 0.886
    12  H   0.894    O   10 0.819    O    2 0.063
    13  O   1.878    H   14 0.912    H   15 0.871    H    8 0.054
    14  H   0.915    O   13 0.912
    15  H   0.896    O   13 0.871
    16  O   2.232    H   17 0.786    H   19 0.634    H   18 0.629    O    7 0.073    O    4 0.058
    17  H   0.866    O   16 0.786    O   10 0.076
    18  H   0.848    O   16 0.629    O    7 0.215
    19  H   0.847    O   16 0.634    O    4 0.202
 MOs/occ written to file <molden.input>
 
molecular dipole:
                 x           y           z       tot (Debye)
 q only:       -0.766       0.410       0.442
   full:        0.316       0.460       0.521       1.941
molecular quadrupole (traceless):
                xx          xy          yy          xz          yz          zz
 q only:       -1.794      -0.907       4.093      -2.517       1.161      -2.299
  q+dip:       -2.987      -2.965       5.823      -3.509       1.795      -2.836
   full:       -2.663      -3.335       5.674      -3.747       1.740      -3.012

SCC energy    :     -41.1120443
rep           :       0.1981264
ES            :       0.2012245
AES           :      -0.0525191
AXC           :      -0.0099814
disp          :      -0.0136036
XB            :       0.0000000
fix           :       0.0000000
total E       :     -40.9138464
atomizationE  :       3.7080336     2326.83
(atE without considering molecular charge,
 total energy contains solvation terms)
H-L gap (eV)  :          9.3145
optimized geometry written to: xtbopt.xyz


------------------------------------------------------------------------
 * finished run on 2019/09/03 at 06:47:01.088     
------------------------------------------------------------------------
 total:
 * wall-time:     0 d,  0 h,  0 min,  1.954 sec
 *  cpu-time:     0 d,  0 h,  0 min,  1.594 sec
 * ratio c/w:     0.816 speedup
 SCF:
 * wall-time:     0 d,  0 h,  0 min,  0.098 sec
 *  cpu-time:     0 d,  0 h,  0 min,  0.092 sec
 * ratio c/w:     0.943 speedup
 ANC optimizer:
 * wall-time:     0 d,  0 h,  0 min,  1.502 sec
 *  cpu-time:     0 d,  0 h,  0 min,  1.484 sec
 * ratio c/w:     0.988 speedup

