      -----------------------------------------------------------      
     |                   =====================                   |     
     |                           x T B                           |     
     |                   =====================                   |     
     |                         S. Grimme                         |     
     |          Mulliken Center for Theoretical Chemistry        |     
     |                    University of Bonn                     |     
     |                 Version 6.0.1 (SAW181210)                 |     
      -----------------------------------------------------------      

   This program is distributed in the hope that it will be useful,
   but WITHOUT ANY WARRANTY; without even the implied warranty of
   MERCHANTABILITY or FITNESS FOR A PARTICULAR PURPOSE.
   
   FOR NON-COMMERCIAL, ACADEMIA USE ONLY.
   
   Cite this work as:
   S. Grimme, C. Bannwarth, P. Shushkov, J. Comput. Theory Chem., 2017,
   13, 1989-2009.
   C. Bannwarth, S. Ehlert and S. Grimme., ChemRxiv, 2018, preprint.
   http://doi.org/10.26434/chemrxiv.7246238.v1
   
   for sTDA-xTB:
   S. Grimme and C. Bannwarth, J. Chem. Phys., 2016, 145, 054103.
   
   in the mass-spec context:
   V. Asgeirsson, C. Bauer and S. Grimme, Chem. Sci., 2017, 8, 4879.
   
   if GBSA is used:
   P. Shushkov, F. März and S. Grimme, unpublished.
   
   for ANC optimizer:
   S. Grimme, unpublished.
   Rational Function algorithm used in ANCopt:
   F. Eckert, P. Pulay, H.-J. Werner, J. Comput. Chem., 1997, 18, 1473.
   
   with help from (in alphabetical order)
   C. Bannwarth, F. Bohle, G. Brandenburg, E. Caldeweyher, M. Checinski,
   S. Dohm, S. Ehlert, S. Ehrlich, F. März, H. Neugebauer, J. Pisarek,
   P. Pracht, P. Shushkov, and S. Spicher.
   
 * started run on 2019/09/03 at 06:59:53.105     
========================================================================
 # omp threads = 1
========================================================================
number of atoms            : 19
number of electrons        : 64
charge                     : 0
spin                       : .0
first test random number   : .3726

########################################################################
# WARNING! Please study the warnings concerning your input carefully
#  - XTBPATH is not set, using XTBHOME instead
#  - the use of '-opt' is discouraged, please use '--opt' next time
#  - the use of '-chrg' is discouraged, please use '--chrg' next time
#  - the use of '-uhf' is discouraged, please use '--uhf' next time
########################################################################

           ------------------------------------------------- 
          |                 G F N 2 - x T B                 |
          | Geometry, Frequencies, Noncovalent interactions |
          |            JCTC 2018 parametrisation            |
           ------------------------------------------------- 
      method parameters     
 k(s)        :  1.8500
 k(p)        :  2.2300
 k(d)        :  2.2300
 k(f)        :  2.0000
 kEN (H0ij)  : -2.0000
 D4 a1       :  0.5200
 D4 a2       :  5.0000
 D4 s6       :  1.0000
 D4 s8       :  2.7000
 D4 s9       :  5.0000
 alphaj      :  2.0000


            Z     q(EN)     CN     RAES       Cart. coordinates
     1  S   6.0    0.64    4.28    4.20    -0.09703     2.57992    -1.33383
     2  O   6.0   -0.30    1.17    1.80     0.41677     3.83990     1.13124
     3  O   6.0   -0.31    1.20    1.80     2.27582     1.41693    -2.30603
     4  O   6.0   -0.30    1.17    1.80    -2.04536     0.57873    -0.97693
     5  O   6.0   -0.25    2.08    1.84    -1.02250     4.45805    -3.15829
     6  H   1.0    0.15    1.21    1.47     0.23226     5.74783    -3.38884
     7  O   6.0   -0.28    2.01    1.83     5.92221    -1.24554    -0.18926
     8  H   1.0    0.15    0.97    1.43     7.16579    -1.99626    -1.28678
     9  H   1.0    0.18    1.04    1.43     4.69666    -0.48447    -1.29985
    10  O   6.0   -0.25    1.92    1.82    -8.21905    -1.85810    -1.25465
    11  H   1.0    0.15    0.97    1.43    -8.87324    -1.16780    -2.80712
    12  H   1.0    0.16    0.97    1.43    -6.47336    -1.34441    -1.19725
    13  O   6.0   -0.29    2.07    1.83    -0.82278    -3.27126     2.24316
    14  H   1.0    0.15    0.97    1.43    -2.01552    -4.59099     2.63086
    15  H   1.0    0.17    1.02    1.43    -1.59755    -2.29722     0.91440
    16  O   6.0   -0.21    2.90    2.54     2.68979    -0.11648     3.46743
    17  H   1.0    0.14    1.02    1.43     4.30243    -0.45933     2.58896
    18  H   1.0    0.15    1.03    1.43     2.07054     1.61610     3.14382
    19  H   1.0    0.15    1.07    1.44     1.39410    -1.40558     3.07898

  Z AO/shell   Hii/eV     exponent
  1     Wed Apr 25 08:07:45 CEST 2018   EN: 2.200 GM2: 0.406  GM3: 0.0800  RAES: 1.40
     1s    -10.707211    1.230000
  8     Wed Apr 25 08:07:45 CEST 2018   EN: 3.440 GM2: 0.452  GM3:-0.0517  RAES: 1.80
     2s    -20.229985    2.439742
     2p    -15.503117    2.137023
 16     Tue Apr 24 11:44:34 CEST 2018   EN: 2.580 GM2: 0.340  GM3:-0.0502  RAES: 3.10
     3s    -20.029654    1.981333
     3p    -11.377694    2.025643
     3d     -0.420282    1.702555
 no old-style atom pair restraining (fixing) potential

molecular fragmentation (1/2 indicates fragments):
1111112222222222222
# atoms in fragment 1/2:     6    13
 fragment masses (1/2) :       97.07       73.07
CMA distance (Bohr)    :   4.818
constraining FC (au)   :  0.0500
           ------------------------------------------------- 
          |        Self-Consistent Charge Iterations        |
           ------------------------------------------------- 

 Ncao       : 52
 Nao        : 51
 Nshell     : 29
 Nel        : 64
 T(el)      :   300.0
 intcut     :    25.0
 scfconv/Eh :  0.100E-05
   qconv/e  :  0.100E-03
 intneglect :  0.100E-07
 broydamp   :      0.250
 iter      E             dE          RMSdq      gap      omega  full diag
   1    -41.0069233 -0.410069E+02  0.768E+00   10.53       0.0  T
   2    -41.0480070 -0.410837E-01  0.554E+00   10.02       1.0  T
   3    -41.0792290 -0.312220E-01  0.146E+00    8.81       1.0  T
   4    -41.0836521 -0.442313E-02  0.607E-01    8.82       1.0  T
   5    -41.0842899 -0.637843E-03  0.330E-01    8.76       1.0  T
   6    -41.0846349 -0.344984E-03  0.143E-01    8.77       1.0  T
   7    -41.0847155 -0.806005E-04  0.520E-02    8.80       1.0  T
   8    -41.0847248 -0.924692E-05  0.323E-02    8.80       1.0  T
   9    -41.0847301 -0.535405E-05  0.647E-03    8.79       3.5  T
  10    -41.0847302 -0.109752E-06  0.187E-03    8.79      12.3  T
  11    -41.0847302 -0.973656E-08  0.857E-04    8.79      26.8  T
  12    -41.0847302 -0.229507E-08  0.437E-04    8.79      52.5  T
speedup  1.05
cpu  time for SCC    0.01 s
wall time for SCC    0.01 s

   *** convergence criteria satisfied after 12 iterations ***

          eigenvalues
 #    :          20         21         22         23         24         25         26         27
 occ. :        2.000      2.000      2.000      2.000      2.000      2.000      2.000      2.000
 eps  :       -14.156    -13.362    -13.038    -12.768    -12.579    -12.193    -11.843    -11.637
 #    :          28         29         30         31         32         33         34         35
 occ. :        2.000      2.000      2.000      2.000      2.000      0.000      0.000      0.000
 eps  :       -11.540    -11.528    -11.036    -11.016    -10.766     -1.975     -1.010     -0.022
 #    :          36         37         38         39         40         41         42         43
 occ. :        0.000      0.000      0.000      0.000      0.000      0.000      0.000      0.000
 eps  :         1.020      1.430      1.921      2.947      3.572      3.847      6.948      7.167


   #   Z            q   n(s)   n(p)   n(d)      C6AA      α(0)
   1  16 S      1.565  1.586  1.859  0.990    91.892    16.134
   2   8 O     -0.763  1.777  4.986  0.000    30.480     7.402
   3   8 O     -0.766  1.775  4.991  0.000    30.576     7.414
   4   8 O     -0.738  1.769  4.969  0.000    29.770     7.315
   5   8 O     -0.536  1.716  4.820  0.000    23.671     6.568
   6   1 H      0.358  0.642  0.000  0.000     0.561     1.172
   7   8 O     -0.627  1.729  4.898  0.000    25.835     6.860
   8   1 H      0.289  0.711  0.000  0.000     0.754     1.364
   9   1 H      0.336  0.664  0.000  0.000     0.621     1.238
  10   8 O     -0.576  1.740  4.836  0.000    24.613     6.696
  11   1 H      0.278  0.722  0.000  0.000     0.792     1.398
  12   1 H      0.297  0.703  0.000  0.000     0.731     1.343
  13   8 O     -0.608  1.722  4.886  0.000    25.389     6.801
  14   1 H      0.306  0.694  0.000  0.000     0.703     1.317
  15   1 H      0.336  0.664  0.000  0.000     0.621     1.238
  16   8 O     -0.409  1.636  4.773  0.000    20.965     6.184
  17   1 H      0.420  0.580  0.000  0.000     0.449     1.053
  18   1 H      0.411  0.589  0.000  0.000     0.465     1.071
  19   1 H      0.425  0.575  0.000  0.000     0.440     1.043

 Mol. C6AA /au·bohr⁶  :       3378.081515
 Mol. C8AA /au·bohr⁸  :      76702.189901
 Mol. α(0) /au        :         83.610149

 
 Wiberg/Mayer (AO) data. WBOs > 0.1 written file <wbo>
 largest (>0.05) Wiberg bond orders for each atom
           total WBO             WBO to atom ...
     1  S   4.950    O    4 1.336    O    3 1.295    O    2 1.285    O    5 1.003
     2  O   1.678    S    1 1.285    O    3 0.114    O    4 0.114    O    5 0.072    H   18 0.065
     3  O   1.666    S    1 1.295    O    2 0.114    O    4 0.114    O    5 0.072    H    9 0.051
     4  O   1.692    S    1 1.336    O    2 0.114    O    3 0.114    O    5 0.055
     5  O   2.055    S    1 1.003    H    6 0.847    O    3 0.072    O    2 0.072    O    4 0.055
     6  H   0.871    O    5 0.847
     7  O   1.833    H    8 0.904    H    9 0.832    H   17 0.051
     8  H   0.916    O    7 0.904
     9  H   0.887    O    7 0.832    O    3 0.051
    10  O   1.833    H   11 0.923    H   12 0.909
    11  H   0.923    O   10 0.923
    12  H   0.912    O   10 0.909
    13  O   1.878    H   14 0.892    H   15 0.845    H   19 0.091
    14  H   0.906    O   13 0.892
    15  H   0.887    O   13 0.845
    16  O   2.338    H   17 0.766    H   18 0.760    H   19 0.722
    17  H   0.823    O   16 0.766    O    7 0.051
    18  H   0.831    O   16 0.760    O    2 0.065
    19  H   0.819    O   16 0.722    O   13 0.091
 MOs/occ written to file <molden.input>
 
molecular dipole:
                 x           y           z       tot (Debye)
 q only:        1.716      -0.613       0.934
   full:        1.538      -0.039      -0.119       3.922
molecular quadrupole (traceless):
                xx          xy          yy          xz          yz          zz
 q only:       -5.592      -2.453       0.997       6.020      -6.576       4.595
  q+dip:       -8.176      -3.597       4.407       4.295      -8.271       3.769
   full:       -8.096      -3.628       4.369       4.528      -8.879       3.726

SCC energy    :     -41.0847302
rep           :       0.2163761
ES            :       0.2422074
AES           :      -0.0516009
AXC           :      -0.0108788
disp          :      -0.0114919
XB            :       0.0000000
fix           :       0.0000000
total E       :     -40.8682737
atomizationE  :       3.6624609     2298.23
(atE without considering molecular charge,
 total energy contains solvation terms)
H-L gap (eV)  :          8.7918
           ------------------------------------------------- 
          |                 ===============                 |
          |                   A N C O P T                   |
          |                 ===============                 |
          |          Approximate Normal Coordinate          |
          |           Rational Function Optimizer           |
           ------------------------------------------------- 
dumping coords to <xtbopt.coord> and <xtbopt.log>
 optlevel               2
 Maxcycle             380
 Maxmicro              25
 Econv         1.000000000000000E-007
 Gconv         2.000000000000000E-004
 Maxdispl       1.00000000000000     
 Hlow          5.000000000000000E-003
 S6             20.0000000000000     
 Nvar               51

generating ANC from model Hessian ...
 Shifting diagonal of input Hessian by   5.161997930469070E-003
 Lowest  eigenvalues of input Hessian
    0.005000    0.005156   -0.000000   -0.000000    0.000000    0.000000
    0.000000    0.000000    0.005179    0.005344    0.005461    0.005578
    0.005689    0.005841    0.006062    0.006922    0.007627    0.008584
 Highest eigenvalues
    1.452369    1.552797    1.560883    3.136922    3.209255    3.312669
 
cpu  time for ANC gen    0.00 s
wall time for ANC gen    0.01 s
................................................................................
.............................. CYCLE    1 ......................................
................................................................................
   1    -41.0847302 -0.410847E+02  0.113E-04    8.79       0.0  T
   2    -41.0847302 -0.169038E-10  0.833E-05    8.79     275.5  T
   3    -41.0847302 -0.112692E-10  0.335E-05    8.79     684.3  T
speedup  1.00
cpu  time for SCC    0.00 s
wall time for SCC    0.00 s
speedup  0.97
cpu  time for grad    0.01 s
wall time for grad    0.01 s
 E :    -40.86827370  G :  0.155000    pred/act E change:  0.000D+00  0.173D-07
Maxdispl :   0.3456   ||displ|| :   0.4705   Lambda : -0.209D-01
Largest |displ|/coords:  0.3456 (  20)  0.1385 (  16)  0.1295 (  23)
................................................................................
.............................. CYCLE    2 ......................................
................................................................................
   1    -41.0952386 -0.410952E+02  0.447E-01    8.93       0.0  T
   2    -41.0953640 -0.125355E-03  0.342E-01    8.97       1.0  T
   3    -41.0954176 -0.536044E-04  0.889E-02    9.05       1.0  T
   4    -41.0954368 -0.192452E-04  0.230E-02    9.04       1.0  T
   5    -41.0954376 -0.821793E-06  0.716E-03    9.04       3.2  T
   6    -41.0954377 -0.644247E-07  0.413E-03    9.04       5.6  T
   7    -41.0954377 -0.489613E-07  0.177E-03    9.04      13.0  T
speedup  0.91
cpu  time for SCC    0.00 s
wall time for SCC    0.00 s
speedup  0.98
cpu  time for grad    0.01 s
wall time for grad    0.01 s
 E :    -40.88649799  G :  0.103828    pred/act E change:  0.000D+00 -0.182D-01
Maxdispl :   0.4015   ||displ|| :   0.5105   Lambda : -0.154D-01
Largest |displ|/coords:  0.4015 (  20)  0.1565 (  23)  0.1265 (  19)
................................................................................
.............................. CYCLE    3 ......................................
................................................................................
   1    -41.1009999 -0.411010E+02  0.412E-01    9.08       0.0  T
   2    -41.1013120 -0.312075E-03  0.312E-01    9.11       1.0  T
   3    -41.1014507 -0.138730E-03  0.121E-01    9.17       1.0  T
   4    -41.1014719 -0.212198E-04  0.340E-02    9.16       1.0  T
   5    -41.1014733 -0.133113E-05  0.109E-02    9.16       2.1  T
   6    -41.1014734 -0.152717E-06  0.549E-03    9.16       4.2  T
   7    -41.1014735 -0.800477E-07  0.230E-03    9.16      10.0  T
speedup  1.16
cpu  time for SCC    0.00 s
wall time for SCC    0.00 s
speedup  1.09
cpu  time for grad    0.01 s
wall time for grad    0.01 s
 E :    -40.89802000  G :  0.066166    pred/act E change: -0.128D-01 -0.115D-01
Maxdispl :   0.1690   ||displ|| :   0.4022   Lambda : -0.535D-02
Largest |displ|/coords:  0.1690 (   8)  0.1457 (  10)  0.1327 (  20)
................................................................................
.............................. CYCLE    4 ......................................
................................................................................
   1    -41.1019755 -0.411020E+02  0.307E-01    9.02       0.0  T
   2    -41.1020603 -0.847771E-04  0.233E-01    8.99       1.0  T
   3    -41.1020948 -0.344780E-04  0.681E-02    8.94       1.0  T
   4    -41.1021058 -0.110441E-04  0.180E-02    8.93       1.3  T
   5    -41.1021064 -0.530693E-06  0.547E-03    8.94       4.2  T
   6    -41.1021064 -0.294044E-07  0.283E-03    8.94       8.1  T
speedup  1.00
cpu  time for SCC    0.00 s
wall time for SCC    0.00 s
speedup  1.00
cpu  time for grad    0.01 s
wall time for grad    0.01 s
 E :    -40.90216126  G :  0.044730    pred/act E change: -0.970D-02 -0.414D-02
Maxdispl :   0.2916   ||displ|| :   0.6021   Lambda : -0.600D-02
Largest |displ|/coords:  0.2916 (  15)  0.2687 (   8)  0.1661 (   5)
................................................................................
.............................. CYCLE    5 ......................................
................................................................................
   1    -41.1099446 -0.411099E+02  0.389E-01    8.72       0.0  T
   2    -41.1100707 -0.126057E-03  0.295E-01    8.70       1.0  T
   3    -41.1101210 -0.503364E-04  0.867E-02    8.64       1.0  T
   4    -41.1101357 -0.147169E-04  0.269E-02    8.64       1.0  T
   5    -41.1101366 -0.898109E-06  0.537E-03    8.64       4.3  T
   6    -41.1101367 -0.268377E-07  0.297E-03    8.64       7.7  T
speedup  1.08
cpu  time for SCC    0.00 s
wall time for SCC    0.00 s
speedup  1.03
cpu  time for grad    0.01 s
wall time for grad    0.01 s
 E :    -40.90548366  G :  0.025976    pred/act E change: -0.311D-02 -0.332D-02
Maxdispl :   0.2927   ||displ|| :   0.5995   Lambda : -0.430D-02
Largest |displ|/coords:  0.2927 (  16)  0.2712 (   8)  0.1886 (   5)
................................................................................
.............................. CYCLE    6 ......................................
................................................................................
   1    -41.0997242 -0.410997E+02  0.639E-01    8.42       0.0  T
   2    -41.0999112 -0.187010E-03  0.481E-01    8.39       1.0  T
   3    -41.0999937 -0.825026E-04  0.101E-01    8.33       1.0  T
   4    -41.1000210 -0.273593E-04  0.325E-02    8.33       1.0  T
   5    -41.1000229 -0.190687E-05  0.692E-03    8.34       3.3  T
   6    -41.1000230 -0.541885E-07  0.405E-03    8.34       5.7  T
   7    -41.1000230 -0.253077E-07  0.133E-03    8.34      17.2  T
speedup  0.93
cpu  time for SCC    0.00 s
wall time for SCC    0.00 s
speedup  0.97
cpu  time for grad    0.01 s
wall time for grad    0.01 s
 E :    -40.90546942  G :  0.053100    pred/act E change: -0.409D-02  0.142D-04
Maxdispl :   0.1864   ||displ|| :   0.3990   Lambda : -0.967D-02
Largest |displ|/coords:  0.1864 (  16)  0.1846 (  14)  0.1308 (  17)
................................................................................
.............................. CYCLE    7 ......................................
................................................................................
   1    -41.1139754 -0.411140E+02  0.694E-01    8.29       0.0  T
   2    -41.1142151 -0.239750E-03  0.523E-01    8.29       1.0  T
   3    -41.1143518 -0.136720E-03  0.108E-01    8.28       1.0  T
   4    -41.1143840 -0.321736E-04  0.329E-02    8.29       1.0  T
   5    -41.1143865 -0.244992E-05  0.922E-03    8.29       2.5  T
   6    -41.1143865 -0.283146E-07  0.478E-03    8.29       4.8  T
   7    -41.1143865 -0.314618E-07  0.123E-03    8.29      18.7  T
speedup  0.91
cpu  time for SCC    0.00 s
wall time for SCC    0.00 s
speedup  0.96
cpu  time for grad    0.01 s
wall time for grad    0.01 s
 E :    -40.90652314  G :  0.036921    pred/act E change: -0.292D-02 -0.105D-02
Maxdispl :   0.2198   ||displ|| :   0.3205   Lambda : -0.232D-02
Largest |displ|/coords:  0.2198 (   9)  0.1427 (   5)  0.1098 (   8)
................................................................................
.............................. CYCLE    8 ......................................
................................................................................
   1    -41.1105622 -0.411106E+02  0.356E-01    8.35       0.0  T
   2    -41.1106042 -0.420078E-04  0.268E-01    8.33       1.0  T
   3    -41.1106301 -0.259104E-04  0.434E-02    8.29       1.0  T
   4    -41.1106364 -0.633005E-05  0.113E-02    8.30       2.0  T
   5    -41.1106366 -0.189474E-06  0.377E-03    8.31       6.1  T
   6    -41.1106366 -0.982438E-08  0.212E-03    8.31      10.8  T
speedup  1.08
cpu  time for SCC    0.00 s
wall time for SCC    0.00 s
speedup  1.03
cpu  time for grad    0.01 s
wall time for grad    0.01 s
 E :    -40.90765830  G :  0.035361    pred/act E change: -0.560D-02 -0.114D-02
Maxdispl :   0.2958   ||displ|| :   0.5329   Lambda : -0.526D-02
Largest |displ|/coords:  0.2958 (   8)  0.1911 (   5)  0.1744 (  10)
................................................................................
.............................. CYCLE    9 ......................................
................................................................................
   1    -41.1071539 -0.411072E+02  0.714E-01    8.49       0.0  T
   2    -41.1074170 -0.263092E-03  0.535E-01    8.46       1.0  T
   3    -41.1075576 -0.140668E-03  0.110E-01    8.42       1.0  T
   4    -41.1075942 -0.366215E-04  0.324E-02    8.42       1.0  T
   5    -41.1075961 -0.185446E-05  0.796E-03    8.43       2.9  T
   6    -41.1075961 -0.462941E-07  0.515E-03    8.43       4.5  T
   7    -41.1075962 -0.296799E-07  0.111E-03    8.43      20.6  T
speedup  1.16
cpu  time for SCC    0.00 s
wall time for SCC    0.00 s
speedup  1.06
cpu  time for grad    0.01 s
wall time for grad    0.01 s
 E :    -40.90506273  G :  0.058820    pred/act E change: -0.128D-02  0.260D-02
Maxdispl :   0.1715   ||displ|| :   0.4751   Lambda : -0.135D-01
Largest |displ|/coords:  0.1715 (  14)  0.1678 (  11)  0.1643 (  10)
................................................................................
.............................. CYCLE   10 ......................................
................................................................................
   1    -41.1106493 -0.411106E+02  0.796E-01    8.10       0.0  T
   2    -41.1110252 -0.375949E-03  0.597E-01    8.11       1.0  T
   3    -41.1112246 -0.199405E-03  0.129E-01    8.13       1.0  T
   4    -41.1112766 -0.519755E-04  0.391E-02    8.12       1.0  T
   5    -41.1112789 -0.234657E-05  0.114E-02    8.12       2.0  T
   6    -41.1112790 -0.473494E-07  0.583E-03    8.12       3.9  T
   7    -41.1112790 -0.530588E-07  0.156E-03    8.12      14.7  T
speedup  0.91
cpu  time for SCC    0.00 s
wall time for SCC    0.00 s
speedup  0.96
cpu  time for grad    0.01 s
wall time for grad    0.01 s
 E :    -40.90698494  G :  0.044778    pred/act E change: -0.338D-02 -0.192D-02
Maxdispl :   0.0767   ||displ|| :   0.2172   Lambda : -0.342D-02
Largest |displ|/coords:  0.0767 (  20)  0.0731 (   9)  0.0670 (   3)
................................................................................
.............................. CYCLE   11 ......................................
................................................................................
   1    -41.1162558 -0.411163E+02  0.298E-01    8.39       0.0  T
   2    -41.1163346 -0.788007E-04  0.220E-01    8.38       1.0  T
   3    -41.1163698 -0.351785E-04  0.568E-02    8.38       1.0  T
   4    -41.1163789 -0.905523E-05  0.136E-02    8.39       1.7  T
   5    -41.1163790 -0.181502E-06  0.428E-03    8.39       5.4  T
   6    -41.1163791 -0.211474E-07  0.248E-03    8.39       9.3  T
speedup  1.08
cpu  time for SCC    0.00 s
wall time for SCC    0.00 s
speedup  1.02
cpu  time for grad    0.01 s
wall time for grad    0.01 s
 E :    -40.90853255  G :  0.013830    pred/act E change: -0.828D-02 -0.155D-02
Maxdispl :   0.1754   ||displ|| :   0.3401   Lambda : -0.154D-02
Largest |displ|/coords:  0.1754 (   8)  0.1330 (   7)  0.1101 (   3)
................................................................................
.............................. CYCLE   12 ......................................
................................................................................
   1    -41.1069888 -0.411070E+02  0.438E-01    8.32       0.0  T
   2    -41.1070328 -0.439780E-04  0.332E-01    8.33       1.0  T
   3    -41.1070634 -0.306120E-04  0.475E-02    8.36       1.0  T
   4    -41.1070698 -0.646271E-05  0.147E-02    8.34       1.6  T
   5    -41.1070702 -0.373953E-06  0.433E-03    8.34       5.3  T
   6    -41.1070702 -0.579787E-08  0.262E-03    8.34       8.7  T
   7    -41.1070702 -0.100052E-07  0.537E-04    8.34      42.7  T
speedup  0.93
cpu  time for SCC    0.00 s
wall time for SCC    0.00 s
speedup  0.96
cpu  time for grad    0.01 s
wall time for grad    0.01 s
 E :    -40.90838184  G :  0.033618    pred/act E change: -0.179D-02  0.151D-03
Maxdispl :   0.2433   ||displ|| :   0.3232   Lambda : -0.263D-02
Largest |displ|/coords:  0.2433 (   3)  0.1313 (   5)  0.0788 (   9)
................................................................................
.............................. CYCLE   13 ......................................
................................................................................
   1    -41.1096441 -0.411096E+02  0.578E-01    8.41       0.0  T
   2    -41.1097170 -0.728189E-04  0.440E-01    8.37       1.0  T
   3    -41.1097672 -0.502873E-04  0.528E-02    8.29       1.0  T
   4    -41.1097798 -0.125609E-04  0.941E-03    8.35       2.4  T
   5    -41.1097799 -0.611131E-07  0.582E-03    8.35       3.9  T
   6    -41.1097799 -0.142070E-07  0.217E-03    8.35      10.6  T
speedup  1.05
cpu  time for SCC    0.00 s
wall time for SCC    0.00 s
speedup  1.01
cpu  time for grad    0.01 s
wall time for grad    0.01 s
 E :    -40.90853226  G :  0.035439    pred/act E change: -0.860D-03 -0.150D-03
Maxdispl :   0.1441   ||displ|| :   0.2497   Lambda : -0.252D-02
Largest |displ|/coords:  0.1441 (  17)  0.0893 (  11)  0.0683 (   6)
................................................................................
.............................. CYCLE   14 ......................................
................................................................................
   1    -41.1161140 -0.411161E+02  0.323E-01    8.35       0.0  T
   2    -41.1161636 -0.496859E-04  0.241E-01    8.37       1.0  T
   3    -41.1161930 -0.293931E-04  0.523E-02    8.40       1.0  T
   4    -41.1161988 -0.577509E-05  0.151E-02    8.40       1.5  T
   5    -41.1161993 -0.500138E-06  0.429E-03    8.40       5.3  T
   6    -41.1161993 -0.681331E-08  0.240E-03    8.40       9.6  T
speedup  0.79
cpu  time for SCC    0.00 s
wall time for SCC    0.00 s
speedup  0.91
cpu  time for grad    0.01 s
wall time for grad    0.01 s
 E :    -40.90882466  G :  0.021041    pred/act E change: -0.145D-02 -0.292D-03
Maxdispl :   0.1435   ||displ|| :   0.2109   Lambda : -0.116D-02
Largest |displ|/coords:  0.1435 (   7)  0.0899 (   1)  0.0516 (  17)
................................................................................
.............................. CYCLE   15 ......................................
................................................................................
   1    -41.1126154 -0.411126E+02  0.221E-01    8.42       0.0  T
   2    -41.1126265 -0.111493E-04  0.165E-01    8.42       1.0  T
   3    -41.1126341 -0.754333E-05  0.254E-02    8.43       1.0  T
   4    -41.1126356 -0.151619E-05  0.872E-03    8.43       2.6  T
   5    -41.1126357 -0.109337E-06  0.278E-03    8.42       8.3  T
   6    -41.1126357 -0.434854E-08  0.168E-03    8.42      13.7  T
speedup  1.05
cpu  time for SCC    0.00 s
wall time for SCC    0.00 s
speedup  1.02
cpu  time for grad    0.01 s
wall time for grad    0.01 s
 E :    -40.90954966  G :  0.011538    pred/act E change: -0.134D-02 -0.725D-03
Maxdispl :   0.1459   ||displ|| :   0.2779   Lambda : -0.648D-03
Largest |displ|/coords:  0.1459 (   1)  0.1138 (   2)  0.0961 (   5)
................................................................................
.............................. CYCLE   16 ......................................
................................................................................
   1    -41.1126072 -0.411126E+02  0.252E-01    8.46       0.0  T
   2    -41.1126228 -0.156697E-04  0.191E-01    8.45       1.0  T
   3    -41.1126325 -0.963474E-05  0.308E-02    8.44       1.0  T
   4    -41.1126349 -0.242783E-05  0.825E-03    8.44       2.8  T
   5    -41.1126350 -0.117264E-06  0.218E-03    8.44      10.5  T
   6    -41.1126350 -0.317826E-09  0.125E-03    8.44      18.4  T
speedup  1.05
cpu  time for SCC    0.00 s
wall time for SCC    0.00 s
speedup  1.01
cpu  time for grad    0.01 s
wall time for grad    0.01 s
 E :    -40.90964458  G :  0.019950    pred/act E change: -0.604D-03 -0.949D-04
Maxdispl :   0.1211   ||displ|| :   0.2176   Lambda : -0.660D-03
Largest |displ|/coords:  0.1211 (   7)  0.0818 (   3)  0.0749 (   1)
................................................................................
.............................. CYCLE   17 ......................................
................................................................................
   1    -41.1101073 -0.411101E+02  0.196E-01    8.42       0.0  T
   2    -41.1101124 -0.516936E-05  0.148E-01    8.42       1.0  T
   3    -41.1101170 -0.459255E-05  0.136E-02    8.43       1.7  T
   4    -41.1101177 -0.634948E-06  0.465E-03    8.42       4.9  T
   5    -41.1101177 -0.221065E-07  0.207E-03    8.42      11.1  T
   6    -41.1101177 -0.351363E-08  0.963E-04    8.42      23.8  T
speedup  0.81
cpu  time for SCC    0.00 s
wall time for SCC    0.00 s
speedup  0.91
cpu  time for grad    0.01 s
wall time for grad    0.01 s
 E :    -40.91007748  G :  0.019451    pred/act E change: -0.349D-03 -0.433D-03
Maxdispl :   0.1826   ||displ|| :   0.3187   Lambda : -0.757D-03
Largest |displ|/coords:  0.1826 (   1)  0.1616 (   7)  0.1457 (   2)
................................................................................
.............................. CYCLE   18 ......................................
................................................................................
   1    -41.1107476 -0.411107E+02  0.254E-01    8.46       0.0  T
   2    -41.1107523 -0.469860E-05  0.191E-01    8.47       1.0  T
   3    -41.1107558 -0.355693E-05  0.140E-02    8.49       1.6  T
   4    -41.1107565 -0.653902E-06  0.543E-03    8.49       4.2  T
   5    -41.1107565 -0.287129E-07  0.187E-03    8.49      12.3  T
   6    -41.1107565 -0.203575E-08  0.922E-04    8.49      24.9  T
speedup  1.08
cpu  time for SCC    0.00 s
wall time for SCC    0.00 s
speedup  1.02
cpu  time for grad    0.01 s
wall time for grad    0.01 s
 E :    -40.91044594  G :  0.014719    pred/act E change: -0.346D-03 -0.368D-03
Maxdispl :   0.2257   ||displ|| :   0.4256   Lambda : -0.944D-03
Largest |displ|/coords:  0.2257 (   1)  0.1961 (   2)  0.1381 (   6)
................................................................................
.............................. CYCLE   19 ......................................
................................................................................
   1    -41.1100987 -0.411101E+02  0.242E-01    8.47       0.0  T
   2    -41.1101139 -0.152325E-04  0.183E-01    8.49       1.0  T
   3    -41.1101263 -0.124447E-04  0.259E-02    8.53       1.0  T
   4    -41.1101284 -0.207154E-05  0.944E-03    8.51       2.4  T
   5    -41.1101285 -0.108645E-06  0.321E-03    8.51       7.2  T
   6    -41.1101285 -0.652316E-08  0.176E-03    8.51      13.0  T
   7    -41.1101285 -0.451551E-08  0.508E-04    8.51      45.1  T
speedup  0.91
cpu  time for SCC    0.00 s
wall time for SCC    0.00 s
speedup  0.95
cpu  time for grad    0.01 s
wall time for grad    0.01 s
 E :    -40.91080198  G :  0.024107    pred/act E change: -0.417D-03 -0.356D-03
Maxdispl :   0.2104   ||displ|| :   0.4008   Lambda : -0.125D-02
Largest |displ|/coords:  0.2104 (   1)  0.1754 (   2)  0.1379 (   9)
................................................................................
.............................. CYCLE   20 ......................................
................................................................................
   1    -41.1087542 -0.411088E+02  0.291E-01    8.60       0.0  T
   2    -41.1087777 -0.235492E-04  0.218E-01    8.59       1.0  T
   3    -41.1087925 -0.147947E-04  0.335E-02    8.56       1.0  T
   4    -41.1087960 -0.345098E-05  0.863E-03    8.58       2.7  T
   5    -41.1087961 -0.102851E-06  0.326E-03    8.58       7.0  T
   6    -41.1087961 -0.522443E-08  0.178E-03    8.58      12.9  T
speedup  1.05
cpu  time for SCC    0.00 s
wall time for SCC    0.00 s
speedup  1.02
cpu  time for grad    0.01 s
wall time for grad    0.01 s
 E :    -40.91152788  G :  0.021059    pred/act E change: -0.557D-03 -0.726D-03
Maxdispl :   0.2021   ||displ|| :   0.3743   Lambda : -0.101D-02
Largest |displ|/coords:  0.2021 (   1)  0.1608 (   5)  0.1391 (   8)
................................................................................
.............................. CYCLE   21 ......................................
................................................................................
   1    -41.1140583 -0.411141E+02  0.197E-01    8.66       0.0  T
   2    -41.1140743 -0.159467E-04  0.147E-01    8.65       1.0  T
   3    -41.1140831 -0.879332E-05  0.272E-02    8.62       1.0  T
   4    -41.1140853 -0.218566E-05  0.985E-03    8.63       2.3  T
   5    -41.1140854 -0.148172E-06  0.263E-03    8.64       8.7  T
   6    -41.1140854 -0.319631E-08  0.155E-03    8.64      14.8  T
speedup  0.81
cpu  time for SCC    0.00 s
wall time for SCC    0.00 s
speedup  1.02
cpu  time for grad    0.01 s
wall time for grad    0.01 s
 E :    -40.91191395  G :  0.013020    pred/act E change: -0.723D-03 -0.386D-03
Maxdispl :   0.3179   ||displ|| :   0.5254   Lambda : -0.986D-03
Largest |displ|/coords:  0.3179 (   1)  0.2525 (   7)  0.2232 (   2)
................................................................................
.............................. CYCLE   22 ......................................
................................................................................
   1    -41.1062049 -0.411062E+02  0.325E-01    8.61       0.0  T
   2    -41.1062304 -0.254983E-04  0.244E-01    8.63       1.0  T
   3    -41.1062514 -0.209925E-04  0.337E-02    8.66       1.0  T
   4    -41.1062549 -0.347785E-05  0.115E-02    8.65       2.0  T
   5    -41.1062551 -0.166480E-06  0.452E-03    8.65       5.1  T
   6    -41.1062551 -0.173775E-07  0.244E-03    8.65       9.4  T
   7    -41.1062551 -0.103775E-07  0.529E-04    8.65      43.4  T
speedup  1.16
cpu  time for SCC    0.00 s
wall time for SCC    0.00 s
speedup  1.05
cpu  time for grad    0.01 s
wall time for grad    0.01 s
 E :    -40.91245464  G :  0.022416    pred/act E change: -0.574D-03 -0.541D-03
Maxdispl :   0.2015   ||displ|| :   0.3483   Lambda : -0.155D-02
Largest |displ|/coords:  0.2015 (   1)  0.1130 (   4)  0.1042 (   8)
................................................................................
.............................. CYCLE   23 ......................................
................................................................................
   1    -41.1093714 -0.411094E+02  0.264E-01    8.68       0.0  T
   2    -41.1094068 -0.353496E-04  0.197E-01    8.71       1.0  T
   3    -41.1094331 -0.262735E-04  0.400E-02    8.75       1.0  T
   4    -41.1094373 -0.420593E-05  0.120E-02    8.74       1.9  T
   5    -41.1094375 -0.194298E-06  0.449E-03    8.74       5.1  T
   6    -41.1094375 -0.134599E-07  0.227E-03    8.74      10.1  T
speedup  1.05
cpu  time for SCC    0.00 s
wall time for SCC    0.00 s
speedup  0.99
cpu  time for grad    0.01 s
wall time for grad    0.01 s
 E :    -40.91203119  G :  0.047380    pred/act E change: -0.629D-03  0.423D-03
Maxdispl :   0.0908   ||displ|| :   0.1840   Lambda : -0.253D-02
Largest |displ|/coords:  0.0908 (  10)  0.0761 (   5)  0.0645 (  13)
................................................................................
.............................. CYCLE   24 ......................................
................................................................................
   1    -41.1138066 -0.411138E+02  0.182E-01    8.86       0.0  T
   2    -41.1138352 -0.286031E-04  0.134E-01    8.84       1.0  T
   3    -41.1138541 -0.188900E-04  0.343E-02    8.79       1.0  T
   4    -41.1138570 -0.296578E-05  0.817E-03    8.81       2.8  T
   5    -41.1138571 -0.549663E-07  0.383E-03    8.81       6.0  T
   6    -41.1138571 -0.866561E-08  0.154E-03    8.81      14.9  T
speedup  1.05
cpu  time for SCC    0.00 s
wall time for SCC    0.00 s
speedup  1.01
cpu  time for grad    0.01 s
wall time for grad    0.01 s
 E :    -40.91314614  G :  0.013301    pred/act E change: -0.867D-03 -0.111D-02
Maxdispl :   0.1891   ||displ|| :   0.4353   Lambda : -0.145D-02
Largest |displ|/coords:  0.1891 (   2)  0.1874 (   7)  0.1803 (   1)
................................................................................
.............................. CYCLE   25 ......................................
................................................................................
   1    -41.1059616 -0.411060E+02  0.317E-01    8.76       0.0  T
   2    -41.1059831 -0.214918E-04  0.238E-01    8.76       1.0  T
   3    -41.1059961 -0.130329E-04  0.326E-02    8.76       1.0  T
   4    -41.1059995 -0.343554E-05  0.933E-03    8.77       2.5  T
   5    -41.1059997 -0.121844E-06  0.365E-03    8.77       6.3  T
   6    -41.1059997 -0.650365E-08  0.189E-03    8.77      12.1  T
   7    -41.1059997 -0.629989E-08  0.405E-04    8.77      56.7  T
speedup  0.93
cpu  time for SCC    0.00 s
wall time for SCC    0.00 s
speedup  0.95
cpu  time for grad    0.01 s
wall time for grad    0.01 s
 E :    -40.91283712  G :  0.028580    pred/act E change: -0.131D-02  0.309D-03
Maxdispl :   0.1179   ||displ|| :   0.1652   Lambda : -0.187D-02
Largest |displ|/coords:  0.1179 (  10)  0.0555 (   8)  0.0423 (  17)

generating ANC from model Hessian ...
 Shifting diagonal of input Hessian by   4.947109126734419E-003
 Lowest  eigenvalues of input Hessian
   -0.000000   -0.000000   -0.000000    0.000000    0.000000    0.000000
    0.005000    0.005309    0.005476    0.006067    0.006947    0.007185
    0.008231    0.009288    0.011260    0.017151    0.018668    0.022027
 Highest eigenvalues
    1.394662    1.395385    1.415821    2.678896    3.419565    3.615612
 
cpu  time for ANC gen    0.01 s
wall time for ANC gen    0.01 s
................................................................................
.............................. CYCLE   26 ......................................
................................................................................
   1    -41.1112152 -0.411112E+02  0.161E-01    8.81       0.0  T
   2    -41.1112228 -0.767096E-05  0.121E-01    8.80       1.0  T
   3    -41.1112282 -0.539723E-05  0.195E-02    8.79       1.2  T
   4    -41.1112292 -0.942945E-06  0.564E-03    8.79       4.1  T
   5    -41.1112292 -0.373625E-07  0.199E-03    8.80      11.5  T
   6    -41.1112292 -0.274170E-08  0.105E-03    8.80      21.9  T
   7    -41.1112292 -0.162355E-08  0.265E-04    8.79      86.4  T
   8    -41.1112292 -0.129084E-09  0.727E-05    8.79     315.5  T
speedup  1.02
cpu  time for SCC    0.01 s
wall time for SCC    0.00 s
speedup  0.87
cpu  time for grad    0.01 s
wall time for grad    0.01 s
 E :    -40.91385209  G :  0.009835    pred/act E change:  0.000D+00 -0.101D-02
Maxdispl :   0.2351   ||displ|| :   0.3612   Lambda : -0.113D-02
Largest |displ|/coords:  0.2351 (   4)  0.1380 (   1)  0.1157 (   7)
................................................................................
.............................. CYCLE   27 ......................................
................................................................................
   1    -41.1105309 -0.411105E+02  0.323E-01    8.82       0.0  T
   2    -41.1105503 -0.194074E-04  0.246E-01    8.83       1.0  T
   3    -41.1105746 -0.243574E-04  0.233E-02    8.87       1.0  T
   4    -41.1105762 -0.153982E-05  0.992E-03    8.85       2.3  T
   5    -41.1105763 -0.938796E-07  0.426E-03    8.85       5.4  T
   6    -41.1105763 -0.216166E-07  0.188E-03    8.85      12.2  T
   7    -41.1105763 -0.773795E-08  0.349E-04    8.85      65.7  T
speedup  0.91
cpu  time for SCC    0.00 s
wall time for SCC    0.00 s
speedup  1.04
cpu  time for grad    0.01 s
wall time for grad    0.01 s
 E :    -40.91436710  G :  0.018517    pred/act E change:  0.000D+00 -0.515D-03
Maxdispl :   0.1044   ||displ|| :   0.1886   Lambda : -0.647D-03
Largest |displ|/coords:  0.1044 (   7)  0.0842 (   6)  0.0783 (   4)
................................................................................
.............................. CYCLE   28 ......................................
................................................................................
   1    -41.1136986 -0.411137E+02  0.215E-01    8.92       0.0  T
   2    -41.1137045 -0.593418E-05  0.163E-01    8.91       1.0  T
   3    -41.1137102 -0.569217E-05  0.148E-02    8.89       1.6  T
   4    -41.1137109 -0.640458E-06  0.319E-03    8.91       7.2  T
   5    -41.1137109 -0.422359E-08  0.196E-03    8.91      11.7  T
   6    -41.1137109 -0.214176E-08  0.531E-04    8.91      43.2  T
speedup  0.81
cpu  time for SCC    0.00 s
wall time for SCC    0.00 s
speedup  0.90
cpu  time for grad    0.01 s
wall time for grad    0.01 s
 E :    -40.91478702  G :  0.008160    pred/act E change: -0.637D-03 -0.420D-03
Maxdispl :   0.1877   ||displ|| :   0.3932   Lambda : -0.717D-03
Largest |displ|/coords:  0.1877 (   6)  0.1843 (   7)  0.1361 (   2)
................................................................................
.............................. CYCLE   29 ......................................
................................................................................
   1    -41.1151331 -0.411151E+02  0.269E-01    8.98       0.0  T
   2    -41.1151424 -0.933746E-05  0.204E-01    8.98       1.0  T
   3    -41.1151541 -0.116995E-04  0.183E-02    8.98       1.3  T
   4    -41.1151547 -0.604829E-06  0.713E-03    8.99       3.2  T
   5    -41.1151548 -0.428420E-07  0.269E-03    8.99       8.5  T
   6    -41.1151548 -0.710745E-08  0.142E-03    8.99      16.2  T
speedup  1.05
cpu  time for SCC    0.00 s
wall time for SCC    0.00 s
speedup  1.00
cpu  time for grad    0.01 s
wall time for grad    0.01 s
 E :    -40.91526518  G :  0.006475    pred/act E change: -0.335D-03 -0.478D-03
Maxdispl :   0.2530   ||displ|| :   0.5144   Lambda : -0.621D-03
Largest |displ|/coords:  0.2530 (   4)  0.2250 (   1)  0.2098 (   6)
................................................................................
.............................. CYCLE   30 ......................................
................................................................................
   1    -41.1082614 -0.411083E+02  0.357E-01    8.96       0.0  T
   2    -41.1082849 -0.234129E-04  0.270E-01    8.98       1.0  T
   3    -41.1083115 -0.266163E-04  0.283E-02    9.04       1.0  T
   4    -41.1083137 -0.223393E-05  0.931E-03    9.01       2.5  T
   5    -41.1083138 -0.754930E-07  0.475E-03    9.01       4.8  T
   6    -41.1083138 -0.267635E-07  0.204E-03    9.01      11.2  T
   7    -41.1083138 -0.614526E-08  0.407E-04    9.01      56.3  T
speedup  0.93
cpu  time for SCC    0.00 s
wall time for SCC    0.00 s
speedup  1.05
cpu  time for grad    0.01 s
wall time for grad    0.01 s
 E :    -40.91534945  G :  0.021172    pred/act E change: -0.414D-03 -0.843D-04
Maxdispl :   0.1613   ||displ|| :   0.1869   Lambda : -0.773D-03
Largest |displ|/coords:  0.1613 (   4)  0.0582 (   1)  0.0492 (   2)
................................................................................
.............................. CYCLE   31 ......................................
................................................................................
   1    -41.1141758 -0.411142E+02  0.178E-01    9.11       0.0  T
   2    -41.1141822 -0.640908E-05  0.135E-01    9.10       1.0  T
   3    -41.1141870 -0.482884E-05  0.170E-02    9.08       1.3  T
   4    -41.1141879 -0.928571E-06  0.378E-03    9.09       6.1  T
   5    -41.1141879 -0.125949E-07  0.199E-03    9.09      11.6  T
speedup  1.29
cpu  time for SCC    0.00 s
wall time for SCC    0.00 s
speedup  1.08
cpu  time for grad    0.01 s
wall time for grad    0.01 s
 E :    -40.91572470  G :  0.006590    pred/act E change: -0.393D-03 -0.375D-03
Maxdispl :   0.1209   ||displ|| :   0.2220   Lambda : -0.234D-03
Largest |displ|/coords:  0.1209 (   1)  0.1178 (   5)  0.0898 (   2)
................................................................................
.............................. CYCLE   32 ......................................
................................................................................
   1    -41.1147139 -0.411147E+02  0.139E-01    9.14       0.0  T
   2    -41.1147165 -0.252055E-05  0.105E-01    9.15       1.0  T
   3    -41.1147192 -0.276840E-05  0.896E-03    9.16       2.6  T
   4    -41.1147195 -0.227892E-06  0.335E-03    9.16       6.8  T
   5    -41.1147195 -0.755797E-08  0.141E-03    9.16      16.3  T
   6    -41.1147195 -0.159586E-08  0.575E-04    9.16      39.9  T
speedup  0.79
cpu  time for SCC    0.00 s
wall time for SCC    0.00 s
speedup  0.97
cpu  time for grad    0.01 s
wall time for grad    0.01 s
 E :    -40.91588078  G :  0.005554    pred/act E change: -0.400D-03 -0.156D-03
Maxdispl :   0.2522   ||displ|| :   0.3990   Lambda : -0.262D-03
Largest |displ|/coords:  0.2522 (   1)  0.1469 (   5)  0.1397 (   6)
................................................................................
.............................. CYCLE   33 ......................................
................................................................................
   1    -41.1141104 -0.411141E+02  0.191E-01    9.23       0.0  T
   2    -41.1141172 -0.672871E-05  0.145E-01    9.24       1.0  T
   3    -41.1141248 -0.760883E-05  0.157E-02    9.27       1.5  T
   4    -41.1141254 -0.633650E-06  0.513E-03    9.26       4.5  T
   5    -41.1141254 -0.214602E-07  0.245E-03    9.26       9.3  T
   6    -41.1141254 -0.682823E-08  0.975E-04    9.26      23.5  T
speedup  1.08
cpu  time for SCC    0.00 s
wall time for SCC    0.00 s
speedup  1.01
cpu  time for grad    0.01 s
wall time for grad    0.01 s
 E :    -40.91603986  G :  0.007459    pred/act E change: -0.123D-03 -0.159D-03
Maxdispl :   0.1845   ||displ|| :   0.2719   Lambda : -0.207D-03
Largest |displ|/coords:  0.1845 (   1)  0.1159 (   7)  0.0970 (   5)
................................................................................
.............................. CYCLE   34 ......................................
................................................................................
   1    -41.1164722 -0.411165E+02  0.123E-01    9.33       0.0  T
   2    -41.1164761 -0.394719E-05  0.926E-02    9.33       1.0  T
   3    -41.1164794 -0.328231E-05  0.129E-02    9.31       1.8  T
   4    -41.1164799 -0.511934E-06  0.510E-03    9.32       4.5  T
   5    -41.1164799 -0.246847E-07  0.160E-03    9.32      14.4  T
   6    -41.1164799 -0.209224E-08  0.910E-04    9.32      25.2  T
speedup  1.05
cpu  time for SCC    0.00 s
wall time for SCC    0.00 s
speedup  0.99
cpu  time for grad    0.01 s
wall time for grad    0.01 s
 E :    -40.91610942  G :  0.006593    pred/act E change: -0.152D-03 -0.696D-04
Maxdispl :   0.0852   ||displ|| :   0.1166   Lambda : -0.723D-04
Largest |displ|/coords:  0.0852 (   1)  0.0559 (   5)  0.0281 (   7)
................................................................................
.............................. CYCLE   35 ......................................
................................................................................
   1    -41.1155551 -0.411156E+02  0.697E-02    9.31       0.0  T
   2    -41.1155561 -0.995063E-06  0.529E-02    9.31       1.0  T
   3    -41.1155569 -0.869368E-06  0.623E-03    9.32       3.7  T
   4    -41.1155571 -0.120572E-06  0.145E-03    9.32      15.9  T
   5    -41.1155571 -0.267748E-08  0.637E-04    9.32      36.0  T
speedup  0.94
cpu  time for SCC    0.00 s
wall time for SCC    0.00 s
speedup  0.94
cpu  time for grad    0.01 s
wall time for grad    0.01 s
 E :    -40.91615343  G :  0.003717    pred/act E change: -0.111D-03 -0.440D-04
Maxdispl :   0.0705   ||displ|| :   0.1146   Lambda : -0.568D-04
Largest |displ|/coords:  0.0705 (   5)  0.0579 (   2)  0.0440 (   1)
................................................................................
.............................. CYCLE   36 ......................................
................................................................................
   1    -41.1143220 -0.411143E+02  0.666E-02    9.32       0.0  T
   2    -41.1143232 -0.117896E-05  0.502E-02    9.32       1.0  T
   3    -41.1143243 -0.111862E-05  0.741E-03    9.32       3.1  T
   4    -41.1143245 -0.136255E-06  0.201E-03    9.32      11.4  T
   5    -41.1143245 -0.332675E-08  0.896E-04    9.32      25.6  T
   6    -41.1143245 -0.813564E-09  0.401E-04    9.32      57.2  T
speedup  1.05
cpu  time for SCC    0.00 s
wall time for SCC    0.00 s
speedup  1.08
cpu  time for grad    0.01 s
wall time for grad    0.01 s
 E :    -40.91616142  G :  0.005304    pred/act E change: -0.367D-04 -0.800D-05
Maxdispl :   0.0486   ||displ|| :   0.0768   Lambda : -0.654D-04
Largest |displ|/coords:  0.0486 (   2)  0.0358 (   1)  0.0357 (   8)
................................................................................
.............................. CYCLE   37 ......................................
................................................................................
   1    -41.1156629 -0.411157E+02  0.407E-02    9.33       0.0  T
   2    -41.1156635 -0.620562E-06  0.303E-02    9.33       1.0  T
   3    -41.1156639 -0.456561E-06  0.623E-03    9.32       3.7  T
   4    -41.1156640 -0.743151E-07  0.184E-03    9.32      12.5  T
   5    -41.1156640 -0.382897E-08  0.658E-04    9.32      34.9  T
speedup  0.94
cpu  time for SCC    0.00 s
wall time for SCC    0.00 s
speedup  0.94
cpu  time for grad    0.01 s
wall time for grad    0.01 s
 E :    -40.91619876  G :  0.002924    pred/act E change: -0.288D-04 -0.373D-04
Maxdispl :   0.0770   ||displ|| :   0.1223   Lambda : -0.401D-04
Largest |displ|/coords:  0.0770 (   1)  0.0610 (   2)  0.0411 (   5)
................................................................................
.............................. CYCLE   38 ......................................
................................................................................
   1    -41.1153138 -0.411153E+02  0.684E-02    9.30       0.0  T
   2    -41.1153143 -0.505727E-06  0.515E-02    9.30       1.0  T
   3    -41.1153148 -0.521890E-06  0.468E-03    9.29       4.9  T
   4    -41.1153149 -0.531058E-07  0.188E-03    9.29      12.2  T
   5    -41.1153149 -0.349548E-08  0.664E-04    9.29      34.6  T
   6    -41.1153149 -0.393584E-09  0.353E-04    9.29      65.0  T
speedup  1.05
cpu  time for SCC    0.00 s
wall time for SCC    0.00 s
speedup  0.97
cpu  time for grad    0.01 s
wall time for grad    0.01 s
 E :    -40.91622306  G :  0.002532    pred/act E change: -0.329D-04 -0.243D-04
Maxdispl :   0.1195   ||displ|| :   0.1535   Lambda : -0.358D-04
Largest |displ|/coords:  0.1195 (   2)  0.0708 (   1)  0.0356 (   5)
................................................................................
.............................. CYCLE   39 ......................................
................................................................................
   1    -41.1158214 -0.411158E+02  0.819E-02    9.30       0.0  T
   2    -41.1158221 -0.627239E-06  0.614E-02    9.30       1.0  T
   3    -41.1158226 -0.505950E-06  0.676E-03    9.29       3.4  T
   4    -41.1158226 -0.764357E-07  0.205E-03    9.29      11.2  T
   5    -41.1158226 -0.395089E-08  0.690E-04    9.29      33.3  T
   6    -41.1158226 -0.263441E-09  0.407E-04    9.29      56.3  T
speedup  0.79
cpu  time for SCC    0.00 s
wall time for SCC    0.00 s
speedup  0.97
cpu  time for grad    0.01 s
wall time for grad    0.01 s
 E :    -40.91624803  G :  0.003060    pred/act E change: -0.204D-04 -0.250D-04
Maxdispl :   0.1521   ||displ|| :   0.2260   Lambda : -0.416D-04
Largest |displ|/coords:  0.1521 (   2)  0.1178 (   1)  0.0755 (   5)
................................................................................
.............................. CYCLE   40 ......................................
................................................................................
   1    -41.1149449 -0.411149E+02  0.114E-01    9.29       0.0  T
   2    -41.1149458 -0.922871E-06  0.855E-02    9.29       1.0  T
   3    -41.1149467 -0.924268E-06  0.695E-03    9.28       3.3  T
   4    -41.1149468 -0.851957E-07  0.244E-03    9.28       9.4  T
   5    -41.1149468 -0.432866E-08  0.845E-04    9.28      27.2  T
   6    -41.1149468 -0.403169E-09  0.474E-04    9.28      48.4  T
speedup  1.05
cpu  time for SCC    0.00 s
wall time for SCC    0.00 s
speedup  0.97
cpu  time for grad    0.01 s
wall time for grad    0.01 s
 E :    -40.91627019  G :  0.003624    pred/act E change: -0.183D-04 -0.222D-04
Maxdispl :   0.0956   ||displ|| :   0.1219   Lambda : -0.301D-04
Largest |displ|/coords:  0.0956 (   2)  0.0594 (   1)  0.0221 (   5)
................................................................................
.............................. CYCLE   41 ......................................
................................................................................
   1    -41.1151515 -0.411152E+02  0.826E-02    9.30       0.0  T
   2    -41.1151519 -0.442192E-06  0.623E-02    9.30       1.0  T
   3    -41.1151524 -0.530639E-06  0.417E-03    9.30       5.5  T
   4    -41.1151525 -0.272511E-07  0.160E-03    9.30      14.3  T
   5    -41.1151525 -0.155872E-08  0.631E-04    9.30      36.4  T
   6    -41.1151525 -0.261437E-09  0.249E-04    9.30      92.0  T
speedup  1.05
cpu  time for SCC    0.00 s
wall time for SCC    0.00 s
speedup  1.06
cpu  time for grad    0.01 s
wall time for grad    0.01 s
 E :    -40.91629309  G :  0.003311    pred/act E change: -0.219D-04 -0.229D-04
Maxdispl :   0.1183   ||displ|| :   0.1542   Lambda : -0.436D-04
Largest |displ|/coords:  0.1183 (   2)  0.0726 (   1)  0.0376 (   3)
................................................................................
.............................. CYCLE   42 ......................................
................................................................................
   1    -41.1153685 -0.411154E+02  0.124E-01    9.32       0.0  T
   2    -41.1153698 -0.124817E-05  0.933E-02    9.32       1.0  T
   3    -41.1153710 -0.127915E-05  0.650E-03    9.33       3.5  T
   4    -41.1153711 -0.116052E-06  0.259E-03    9.32       8.9  T
   5    -41.1153711 -0.453310E-08  0.983E-04    9.32      23.3  T
   6    -41.1153712 -0.340670E-09  0.429E-04    9.32      53.5  T
speedup  1.03
cpu  time for SCC    0.00 s
wall time for SCC    0.00 s
speedup  0.95
cpu  time for grad    0.01 s
wall time for grad    0.01 s
 E :    -40.91632203  G :  0.002704    pred/act E change: -0.153D-04 -0.289D-04
Maxdispl :   0.0311   ||displ|| :   0.0634   Lambda : -0.257D-04
Largest |displ|/coords:  0.0311 (   1)  0.0295 (   3)  0.0196 (   2)
................................................................................
.............................. CYCLE   43 ......................................
................................................................................
   1    -41.1158677 -0.411159E+02  0.515E-02    9.33       0.0  T
   2    -41.1158683 -0.600678E-06  0.385E-02    9.33       1.0  T
   3    -41.1158686 -0.390385E-06  0.532E-03    9.33       4.3  T
   4    -41.1158687 -0.862483E-07  0.136E-03    9.33      16.9  T
   5    -41.1158687 -0.144326E-08  0.533E-04    9.33      43.1  T
   6    -41.1158687 -0.227480E-09  0.278E-04    9.33      82.5  T
speedup  1.05
cpu  time for SCC    0.00 s
wall time for SCC    0.00 s
speedup  1.08
cpu  time for grad    0.01 s
wall time for grad    0.01 s
 E :    -40.91633549  G :  0.001663    pred/act E change: -0.223D-04 -0.135D-04
Maxdispl :   0.1362   ||displ|| :   0.1946   Lambda : -0.250D-04
Largest |displ|/coords:  0.1362 (   2)  0.0864 (   1)  0.0651 (   3)
................................................................................
.............................. CYCLE   44 ......................................
................................................................................
   1    -41.1146526 -0.411147E+02  0.141E-01    9.31       0.0  T
   2    -41.1146539 -0.130683E-05  0.106E-01    9.31       1.0  T
   3    -41.1146554 -0.144654E-05  0.668E-03    9.31       3.4  T
   4    -41.1146554 -0.934360E-07  0.314E-03    9.31       7.3  T
   5    -41.1146555 -0.519632E-08  0.995E-04    9.31      23.1  T
   6    -41.1146555 -0.564995E-09  0.515E-04    9.31      44.6  T
speedup  0.81
cpu  time for SCC    0.00 s
wall time for SCC    0.00 s
speedup  0.97
cpu  time for grad    0.01 s
wall time for grad    0.01 s
 E :    -40.91632801  G :  0.006900    pred/act E change: -0.129D-04  0.747D-05
Maxdispl :   0.0769   ||displ|| :   0.1068   Lambda : -0.523D-04
Largest |displ|/coords:  0.0769 (   2)  0.0613 (   1)  0.0226 (   3)
................................................................................
.............................. CYCLE   45 ......................................
................................................................................
   1    -41.1157631 -0.411158E+02  0.803E-02    9.32       0.0  T
   2    -41.1157638 -0.744630E-06  0.605E-02    9.32       1.0  T
   3    -41.1157644 -0.608152E-06  0.532E-03    9.31       4.3  T
   4    -41.1157645 -0.946630E-07  0.148E-03    9.31      15.5  T
   5    -41.1157645 -0.114908E-08  0.714E-04    9.31      32.1  T
speedup  0.97
cpu  time for SCC    0.00 s
wall time for SCC    0.00 s
speedup  0.95
cpu  time for grad    0.01 s
wall time for grad    0.01 s
 E :    -40.91635251  G :  0.001596    pred/act E change: -0.130D-04 -0.245D-04
Maxdispl :   0.0256   ||displ|| :   0.0400   Lambda : -0.952D-05
Largest |displ|/coords:  0.0256 (   3)  0.0157 (   9)  0.0147 (   6)
................................................................................
.............................. CYCLE   46 ......................................
................................................................................
   1    -41.1158310 -0.411158E+02  0.301E-02    9.31       0.0  T
   2    -41.1158311 -0.102755E-06  0.226E-02    9.31       1.0  T
   3    -41.1158312 -0.957238E-07  0.211E-03    9.30      10.9  T
   4    -41.1158312 -0.110073E-07  0.819E-04    9.30      28.0  T
   5    -41.1158312 -0.603400E-09  0.271E-04    9.30      84.6  T
speedup  1.25
cpu  time for SCC    0.00 s
wall time for SCC    0.00 s
speedup  1.00
cpu  time for grad    0.01 s
wall time for grad    0.01 s
 E :    -40.91636086  G :  0.001607    pred/act E change: -0.264D-04 -0.835D-05
Maxdispl :   0.1471   ||displ|| :   0.2630   Lambda : -0.453D-04
Largest |displ|/coords:  0.1471 (   3)  0.1028 (   2)  0.1017 (   5)
................................................................................
.............................. CYCLE   47 ......................................
................................................................................
   1    -41.1149967 -0.411150E+02  0.179E-01    9.26       0.0  T
   2    -41.1149995 -0.277276E-05  0.135E-01    9.25       1.0  T
   3    -41.1150023 -0.281413E-05  0.110E-02    9.23       2.1  T
   4    -41.1150026 -0.264851E-06  0.489E-03    9.23       4.7  T
   5    -41.1150026 -0.205772E-07  0.154E-03    9.24      14.9  T
   6    -41.1150026 -0.152990E-08  0.878E-04    9.24      26.1  T
   7    -41.1150026 -0.975135E-09  0.198E-04    9.24     115.6  T
speedup  0.89
cpu  time for SCC    0.00 s
wall time for SCC    0.00 s
speedup  1.00
cpu  time for grad    0.01 s
wall time for grad    0.01 s
 E :    -40.91638014  G :  0.004292    pred/act E change: -0.477D-05 -0.193D-04
Maxdispl :   0.0248   ||displ|| :   0.0417   Lambda : -0.219D-04
Largest |displ|/coords:  0.0248 (   1)  0.0241 (   2)  0.0144 (   5)
................................................................................
.............................. CYCLE   48 ......................................
................................................................................
   1    -41.1158068 -0.411158E+02  0.263E-02    9.26       0.0  T
   2    -41.1158070 -0.119908E-06  0.196E-02    9.26       1.2  T
   3    -41.1158071 -0.935441E-07  0.267E-03    9.26       8.6  T
   4    -41.1158071 -0.143709E-07  0.807E-04    9.26      28.4  T
speedup  0.80
cpu  time for SCC    0.00 s
wall time for SCC    0.00 s
speedup  1.03
cpu  time for grad    0.01 s
wall time for grad    0.01 s
 E :    -40.91639376  G :  0.002231    pred/act E change: -0.242D-04 -0.136D-04
Maxdispl :   0.0571   ||displ|| :   0.1004   Lambda : -0.191D-04
Largest |displ|/coords:  0.0571 (   3)  0.0425 (   6)  0.0373 (   5)
................................................................................
.............................. CYCLE   49 ......................................
................................................................................
   1    -41.1160164 -0.411160E+02  0.736E-02    9.26       0.0  T
   2    -41.1160169 -0.530550E-06  0.555E-02    9.26       1.0  T
   3    -41.1160176 -0.630569E-06  0.510E-03    9.26       4.5  T
   4    -41.1160176 -0.376018E-07  0.207E-03    9.26      11.1  T
   5    -41.1160176 -0.314223E-08  0.613E-04    9.26      37.5  T
   6    -41.1160176 -0.269019E-09  0.366E-04    9.26      62.6  T
speedup  0.81
cpu  time for SCC    0.00 s
wall time for SCC    0.00 s
speedup  0.97
cpu  time for grad    0.01 s
wall time for grad    0.01 s
 E :    -40.91641035  G :  0.002507    pred/act E change: -0.110D-04 -0.166D-04
Maxdispl :   0.2114   ||displ|| :   0.3645   Lambda : -0.716D-04
Largest |displ|/coords:  0.2114 (   3)  0.1507 (   6)  0.1360 (   5)
................................................................................
.............................. CYCLE   50 ......................................
................................................................................
   1    -41.1155235 -0.411155E+02  0.265E-01    9.23       0.0  T
   2    -41.1155301 -0.666352E-05  0.199E-01    9.23       1.0  T
   3    -41.1155380 -0.783081E-05  0.188E-02    9.22       1.2  T
   4    -41.1155385 -0.498348E-06  0.773E-03    9.22       3.0  T
   5    -41.1155385 -0.428179E-07  0.240E-03    9.22       9.6  T
   6    -41.1155385 -0.407836E-08  0.137E-03    9.22      16.7  T
   7    -41.1155385 -0.182832E-08  0.212E-04    9.22     108.3  T
   8    -41.1155385 -0.464340E-10  0.594E-05    9.22     386.5  T
speedup  1.00
cpu  time for SCC    0.01 s
wall time for SCC    0.01 s
speedup  1.05
cpu  time for grad    0.01 s
wall time for grad    0.01 s
 E :    -40.91645216  G :  0.006083    pred/act E change: -0.967D-05 -0.418D-04
Maxdispl :   0.0922   ||displ|| :   0.1901   Lambda : -0.915D-04
Largest |displ|/coords:  0.0922 (   5)  0.0888 (   6)  0.0706 (   3)
................................................................................
.............................. CYCLE   51 ......................................
................................................................................
   1    -41.1163520 -0.411164E+02  0.127E-01    9.23       0.0  T
   2    -41.1163549 -0.298273E-05  0.946E-02    9.23       1.0  T
   3    -41.1163575 -0.258122E-05  0.141E-02    9.22       1.6  T
   4    -41.1163579 -0.354540E-06  0.483E-03    9.22       4.8  T
   5    -41.1163579 -0.257759E-07  0.140E-03    9.22      16.4  T
   6    -41.1163579 -0.187461E-08  0.825E-04    9.22      27.8  T
speedup  0.79
cpu  time for SCC    0.00 s
wall time for SCC    0.00 s
speedup  0.98
cpu  time for grad    0.01 s
wall time for grad    0.01 s
 E :    -40.91644548  G :  0.009314    pred/act E change: -0.405D-04  0.667D-05
Maxdispl :   0.0736   ||displ|| :   0.1070   Lambda : -0.116D-03
Largest |displ|/coords:  0.0736 (   3)  0.0457 (   1)  0.0242 (   7)
................................................................................
.............................. CYCLE   52 ......................................
................................................................................
   1    -41.1169579 -0.411170E+02  0.102E-01    9.25       0.0  T
   2    -41.1169597 -0.178979E-05  0.776E-02    9.25       1.0  T
   3    -41.1169617 -0.195250E-05  0.922E-03    9.26       2.5  T
   4    -41.1169618 -0.153418E-06  0.326E-03    9.26       7.0  T
   5    -41.1169618 -0.921160E-08  0.111E-03    9.25      20.7  T
   6    -41.1169618 -0.858080E-09  0.603E-04    9.25      38.0  T
speedup  0.79
cpu  time for SCC    0.00 s
wall time for SCC    0.00 s
speedup  0.99
cpu  time for grad    0.01 s
wall time for grad    0.01 s
 E :    -40.91650960  G :  0.003934    pred/act E change: -0.474D-04 -0.641D-04
Maxdispl :   0.1086   ||displ|| :   0.2206   Lambda : -0.480D-04
Largest |displ|/coords:  0.1086 (   3)  0.1059 (   6)  0.0896 (   5)

generating ANC from model Hessian ...
 Shifting diagonal of input Hessian by   4.608949871964674E-003
 Lowest  eigenvalues of input Hessian
   -0.000000   -0.000000    0.000000    0.000000    0.000000    0.000000
    0.005000    0.005144    0.005822    0.006319    0.007231    0.008282
    0.009257    0.010226    0.015766    0.016302    0.017948    0.018941
 Highest eigenvalues
    1.397771    1.403435    1.410527    2.634823    3.430152    3.603563
 
cpu  time for ANC gen    0.01 s
wall time for ANC gen    0.01 s
................................................................................
.............................. CYCLE   53 ......................................
................................................................................
   1    -41.1146970 -0.411147E+02  0.146E-01    9.18       0.0  T
   2    -41.1146994 -0.241475E-05  0.109E-01    9.18       1.0  T
   3    -41.1147021 -0.271595E-05  0.126E-02    9.18       1.8  T
   4    -41.1147023 -0.182765E-06  0.413E-03    9.17       5.6  T
   5    -41.1147023 -0.178625E-07  0.133E-03    9.17      17.3  T
   6    -41.1147023 -0.124441E-08  0.813E-04    9.17      28.2  T
   7    -41.1147023 -0.713541E-09  0.150E-04    9.17     153.0  T
speedup  0.91
cpu  time for SCC    0.00 s
wall time for SCC    0.00 s
speedup  1.01
cpu  time for grad    0.01 s
wall time for grad    0.01 s
 E :    -40.91651508  G :  0.009103    pred/act E change:  0.000D+00 -0.547D-05
Maxdispl :   0.0519   ||displ|| :   0.0723   Lambda : -0.112D-03
Largest |displ|/coords:  0.0519 (   3)  0.0325 (   5)  0.0180 (   6)
................................................................................
.............................. CYCLE   54 ......................................
................................................................................
   1    -41.1162855 -0.411163E+02  0.682E-02    9.22       0.0  T
   2    -41.1162861 -0.612123E-06  0.509E-02    9.22       1.0  T
   3    -41.1162867 -0.513243E-06  0.613E-03    9.21       3.7  T
   4    -41.1162867 -0.750122E-07  0.180E-03    9.22      12.8  T
   5    -41.1162867 -0.406285E-08  0.740E-04    9.22      31.0  T
speedup  0.97
cpu  time for SCC    0.00 s
wall time for SCC    0.00 s
speedup  0.95
cpu  time for grad    0.01 s
wall time for grad    0.01 s
 E :    -40.91658763  G :  0.003622    pred/act E change:  0.000D+00 -0.726D-04
Maxdispl :   0.0619   ||displ|| :   0.1163   Lambda : -0.107D-03
Largest |displ|/coords:  0.0619 (   3)  0.0556 (   6)  0.0544 (   7)
................................................................................
.............................. CYCLE   55 ......................................
................................................................................
   1    -41.1179361 -0.411179E+02  0.177E-01    9.27       0.0  T
   2    -41.1179397 -0.364943E-05  0.135E-01    9.26       1.0  T
   3    -41.1179431 -0.340586E-05  0.138E-02    9.25       1.7  T
   4    -41.1179435 -0.392585E-06  0.449E-03    9.26       5.1  T
   5    -41.1179435 -0.152770E-07  0.109E-03    9.26      21.0  T
   6    -41.1179435 -0.791616E-10  0.614E-04    9.26      37.4  T
   7    -41.1179435 -0.351562E-09  0.111E-04    9.26     206.3  T
speedup  1.14
cpu  time for SCC    0.00 s
wall time for SCC    0.00 s
speedup  1.00
cpu  time for grad    0.01 s
wall time for grad    0.01 s
 E :    -40.91664100  G :  0.002453    pred/act E change: -0.564D-04 -0.534D-04
Maxdispl :   0.1152   ||displ|| :   0.1506   Lambda : -0.734D-04
Largest |displ|/coords:  0.1152 (   3)  0.0588 (   6)  0.0463 (   7)
................................................................................
.............................. CYCLE   56 ......................................
................................................................................
   1    -41.1176432 -0.411176E+02  0.165E-01    9.28       0.0  T
   2    -41.1176448 -0.163933E-05  0.124E-01    9.28       1.0  T
   3    -41.1176467 -0.184865E-05  0.101E-02    9.29       2.3  T
   4    -41.1176468 -0.107269E-06  0.359E-03    9.29       6.4  T
   5    -41.1176468 -0.741804E-08  0.114E-03    9.29      20.1  T
   6    -41.1176468 -0.699707E-09  0.660E-04    9.29      34.8  T
   7    -41.1176468 -0.325123E-09  0.113E-04    9.29     203.2  T
speedup  1.16
cpu  time for SCC    0.00 s
wall time for SCC    0.00 s
speedup  1.01
cpu  time for grad    0.01 s
wall time for grad    0.01 s
 E :    -40.91668765  G :  0.005944    pred/act E change: -0.542D-04 -0.467D-04
Maxdispl :   0.1164   ||displ|| :   0.1352   Lambda : -0.710D-04
Largest |displ|/coords:  0.1164 (   3)  0.0390 (   8)  0.0303 (   4)
................................................................................
.............................. CYCLE   57 ......................................
................................................................................
   1    -41.1175551 -0.411176E+02  0.106E-01    9.29       0.0  T
   2    -41.1175561 -0.106326E-05  0.790E-02    9.29       1.0  T
   3    -41.1175572 -0.104467E-05  0.990E-03    9.29       2.3  T
   4    -41.1175573 -0.958297E-07  0.218E-03    9.29      10.5  T
   5    -41.1175573 -0.677758E-08  0.913E-04    9.29      25.1  T
speedup  0.97
cpu  time for SCC    0.00 s
wall time for SCC    0.00 s
speedup  1.07
cpu  time for grad    0.01 s
wall time for grad    0.01 s
 E :    -40.91673039  G :  0.003659    pred/act E change: -0.375D-04 -0.427D-04
Maxdispl :   0.1737   ||displ|| :   0.2214   Lambda : -0.754D-04
Largest |displ|/coords:  0.1737 (   3)  0.0902 (   4)  0.0623 (   8)
................................................................................
.............................. CYCLE   58 ......................................
................................................................................
   1    -41.1161123 -0.411161E+02  0.193E-01    9.25       0.0  T
   2    -41.1161156 -0.330548E-05  0.145E-01    9.25       1.0  T
   3    -41.1161196 -0.399256E-05  0.153E-02    9.26       1.5  T
   4    -41.1161198 -0.181268E-06  0.346E-03    9.26       6.6  T
   5    -41.1161198 -0.118626E-07  0.167E-03    9.26      13.7  T
   6    -41.1161198 -0.250242E-08  0.875E-04    9.26      26.2  T
   7    -41.1161198 -0.842697E-09  0.203E-04    9.26     112.8  T
speedup  0.93
cpu  time for SCC    0.00 s
wall time for SCC    0.00 s
speedup  1.01
cpu  time for grad    0.01 s
wall time for grad    0.01 s
 E :    -40.91677836  G :  0.006851    pred/act E change: -0.361D-04 -0.480D-04
Maxdispl :   0.2264   ||displ|| :   0.3110   Lambda : -0.162D-03
Largest |displ|/coords:  0.2264 (   3)  0.1544 (   4)  0.1016 (   8)
................................................................................
.............................. CYCLE   59 ......................................
................................................................................
   1    -41.1149281 -0.411149E+02  0.211E-01    9.16       0.0  T
   2    -41.1149334 -0.536152E-05  0.157E-01    9.16       1.0  T
   3    -41.1149392 -0.574018E-05  0.221E-02    9.16       1.0  T
   4    -41.1149396 -0.424455E-06  0.588E-03    9.17       3.9  T
   5    -41.1149396 -0.408940E-07  0.205E-03    9.17      11.2  T
   6    -41.1149396 -0.351672E-08  0.118E-03    9.17      19.4  T
speedup  0.79
cpu  time for SCC    0.00 s
wall time for SCC    0.00 s
speedup  0.99
cpu  time for grad    0.01 s
wall time for grad    0.01 s
 E :    -40.91685092  G :  0.008714    pred/act E change: -0.395D-04 -0.726D-04
Maxdispl :   0.0649   ||displ|| :   0.0907   Lambda : -0.884D-04
Largest |displ|/coords:  0.0649 (   3)  0.0322 (   5)  0.0268 (   7)
................................................................................
.............................. CYCLE   60 ......................................
................................................................................
   1    -41.1156467 -0.411156E+02  0.765E-02    9.17       0.0  T
   2    -41.1156475 -0.855886E-06  0.576E-02    9.17       1.0  T
   3    -41.1156483 -0.763032E-06  0.760E-03    9.17       3.0  T
   4    -41.1156484 -0.109254E-06  0.260E-03    9.17       8.8  T
   5    -41.1156484 -0.542673E-08  0.802E-04    9.17      28.6  T
speedup  0.97
cpu  time for SCC    0.00 s
wall time for SCC    0.00 s
speedup  0.93
cpu  time for grad    0.01 s
wall time for grad    0.01 s
 E :    -40.91691186  G :  0.007846    pred/act E change: -0.890D-04 -0.609D-04
Maxdispl :   0.0618   ||displ|| :   0.1205   Lambda : -0.178D-03
Largest |displ|/coords:  0.0618 (   4)  0.0523 (  13)  0.0493 (  18)
................................................................................
.............................. CYCLE   61 ......................................
................................................................................
   1    -41.1200128 -0.411200E+02  0.872E-02    9.28       0.0  T
   2    -41.1200164 -0.365247E-05  0.644E-02    9.27       1.0  T
   3    -41.1200183 -0.185044E-05  0.171E-02    9.25       1.3  T
   4    -41.1200187 -0.422416E-06  0.472E-03    9.25       4.9  T
   5    -41.1200187 -0.366306E-07  0.146E-03    9.26      15.7  T
   6    -41.1200187 -0.140781E-08  0.816E-04    9.26      28.1  T
speedup  1.05
cpu  time for SCC    0.00 s
wall time for SCC    0.00 s
speedup  0.99
cpu  time for grad    0.01 s
wall time for grad    0.01 s
 E :    -40.91696500  G :  0.006175    pred/act E change: -0.446D-04 -0.531D-04
Maxdispl :   0.3739   ||displ|| :   0.4755   Lambda : -0.237D-03
Largest |displ|/coords:  0.3739 (   3)  0.2115 (   4)  0.1245 (   8)
................................................................................
.............................. CYCLE   62 ......................................
................................................................................
   1    -41.1159754 -0.411160E+02  0.356E-01    9.11       0.0  T
   2    -41.1159936 -0.181733E-04  0.267E-01    9.12       1.0  T
   3    -41.1160115 -0.178798E-04  0.361E-02    9.15       1.0  T
   4    -41.1160134 -0.195746E-05  0.126E-02    9.14       1.8  T
   5    -41.1160136 -0.156044E-06  0.416E-03    9.14       5.5  T
   6    -41.1160136 -0.126812E-07  0.238E-03    9.14       9.7  T
   7    -41.1160136 -0.809568E-08  0.580E-04    9.14      39.6  T
speedup  1.16
cpu  time for SCC    0.00 s
wall time for SCC    0.00 s
speedup  1.04
cpu  time for grad    0.01 s
wall time for grad    0.01 s
 E :    -40.91705935  G :  0.015522    pred/act E change: -0.901D-04 -0.943D-04
Maxdispl :   0.0363   ||displ|| :   0.0556   Lambda : -0.224D-03
Largest |displ|/coords:  0.0363 (   7)  0.0156 (   6)  0.0152 (  13)
................................................................................
.............................. CYCLE   63 ......................................
................................................................................
   1    -41.1167475 -0.411167E+02  0.782E-02    9.16       0.0  T
   2    -41.1167495 -0.207494E-05  0.591E-02    9.15       1.0  T
   3    -41.1167511 -0.152635E-05  0.105E-02    9.14       2.2  T
   4    -41.1167513 -0.275670E-06  0.330E-03    9.14       7.0  T
   5    -41.1167513 -0.170095E-07  0.103E-03    9.15      22.2  T
   6    -41.1167514 -0.624851E-09  0.567E-04    9.15      40.4  T
speedup  1.05
cpu  time for SCC    0.00 s
wall time for SCC    0.00 s
speedup  0.99
cpu  time for grad    0.01 s
wall time for grad    0.01 s
 E :    -40.91718214  G :  0.007182    pred/act E change: -0.145D-03 -0.123D-03
Maxdispl :   0.1805   ||displ|| :   0.2637   Lambda : -0.158D-03
Largest |displ|/coords:  0.1805 (   3)  0.1343 (   4)  0.0860 (  13)
................................................................................
.............................. CYCLE   64 ......................................
................................................................................
   1    -41.1166696 -0.411167E+02  0.165E-01    9.13       0.0  T
   2    -41.1166737 -0.407302E-05  0.123E-01    9.13       1.0  T
   3    -41.1166776 -0.395265E-05  0.175E-02    9.14       1.3  T
   4    -41.1166781 -0.450808E-06  0.661E-03    9.14       3.5  T
   5    -41.1166781 -0.360238E-07  0.181E-03    9.14      12.7  T
   6    -41.1166781 -0.232334E-08  0.117E-03    9.14      19.6  T
speedup  1.05
cpu  time for SCC    0.00 s
wall time for SCC    0.00 s
speedup  0.99
cpu  time for grad    0.01 s
wall time for grad    0.01 s
 E :    -40.91731773  G :  0.008003    pred/act E change: -0.112D-03 -0.136D-03
Maxdispl :   0.2988   ||displ|| :   0.4756   Lambda : -0.405D-03
Largest |displ|/coords:  0.2988 (   3)  0.2576 (   4)  0.1689 (  13)
................................................................................
.............................. CYCLE   65 ......................................
................................................................................
   1    -41.1182242 -0.411182E+02  0.312E-01    9.23       0.0  T
   2    -41.1182373 -0.131317E-04  0.232E-01    9.23       1.0  T
   3    -41.1182513 -0.139763E-04  0.367E-02    9.25       1.0  T
   4    -41.1182525 -0.119279E-05  0.120E-02    9.25       1.9  T
   5    -41.1182526 -0.128045E-06  0.353E-03    9.25       6.5  T
   6    -41.1182526 -0.814356E-08  0.229E-03    9.25      10.0  T
   7    -41.1182526 -0.545761E-08  0.336E-04    9.25      68.2  T
speedup  0.91
cpu  time for SCC    0.00 s
wall time for SCC    0.00 s
speedup  1.03
cpu  time for grad    0.01 s
wall time for grad    0.01 s
 E :    -40.91757509  G :  0.009687    pred/act E change: -0.845D-04 -0.257D-03
Maxdispl :   0.4374   ||displ|| :   0.5823   Lambda : -0.300D-03
Largest |displ|/coords:  0.4374 (   3)  0.2546 (   4)  0.1676 (  13)
................................................................................
.............................. CYCLE   66 ......................................
................................................................................
   1    -41.1112425 -0.411112E+02  0.376E-01    8.97       0.0  T
   2    -41.1112691 -0.265727E-04  0.280E-01    8.98       1.0  T
   3    -41.1112915 -0.223811E-04  0.453E-02    9.01       1.0  T
   4    -41.1112947 -0.327630E-05  0.167E-02    9.01       1.4  T
   5    -41.1112950 -0.273656E-06  0.466E-03    9.00       4.9  T
   6    -41.1112950 -0.197438E-07  0.300E-03    9.00       7.7  T
   7    -41.1112950 -0.144753E-07  0.814E-04    9.00      28.2  T
speedup  0.93
cpu  time for SCC    0.00 s
wall time for SCC    0.00 s
speedup  0.93
cpu  time for grad    0.01 s
[...]
   3    -41.1193458 -0.330558E-08  0.797E-04    9.34      28.8  T
   4    -41.1193458 -0.159168E-08  0.364E-04    9.34      63.1  T
speedup  1.11
cpu  time for SCC    0.00 s
wall time for SCC    0.00 s
speedup  1.07
cpu  time for grad    0.01 s
wall time for grad    0.01 s
 E :    -40.92136197  G :  0.000301    pred/act E change: -0.276D-06 -0.373D-06
Maxdispl :   0.0047   ||displ|| :   0.0085   Lambda : -0.325D-06
Largest |displ|/coords:  0.0047 (   2)  0.0038 (   1)  0.0023 (  25)
................................................................................
.............................. CYCLE  143 ......................................
................................................................................
   1    -41.1193516 -0.411194E+02  0.562E-03    9.34       0.0  T
   2    -41.1193516 -0.128441E-07  0.419E-03    9.34       5.5  T
   3    -41.1193516 -0.346587E-08  0.961E-04    9.34      23.9  T
   4    -41.1193516 -0.189739E-08  0.356E-04    9.34      64.5  T
speedup  0.77
cpu  time for SCC    0.00 s
wall time for SCC    0.00 s
speedup  0.96
cpu  time for grad    0.01 s
wall time for grad    0.01 s
 E :    -40.92136221  G :  0.000268    pred/act E change: -0.266D-06 -0.245D-06
Maxdispl :   0.0041   ||displ|| :   0.0076   Lambda : -0.324D-06
Largest |displ|/coords:  0.0041 (   2)  0.0029 (   1)  0.0025 (  25)
................................................................................
.............................. CYCLE  144 ......................................
................................................................................
   1    -41.1193588 -0.411194E+02  0.584E-03    9.34       0.0  T
   2    -41.1193588 -0.144853E-07  0.434E-03    9.34       5.3  T
   3    -41.1193588 -0.415744E-08  0.105E-03    9.34      21.9  T
   4    -41.1193588 -0.196953E-08  0.355E-04    9.34      64.7  T
   5    -41.1193588 -0.117026E-09  0.563E-05    9.34     407.6  T
speedup  0.94
cpu  time for SCC    0.00 s
wall time for SCC    0.00 s
speedup  1.01
cpu  time for grad    0.01 s
wall time for grad    0.01 s
 E :    -40.92136245  G :  0.000298    pred/act E change: -0.160D-06 -0.235D-06
Maxdispl :   0.0027   ||displ|| :   0.0071   Lambda : -0.300D-06
Largest |displ|/coords:  0.0027 (   2)  0.0025 (   1)  0.0025 (  25)
................................................................................
.............................. CYCLE  145 ......................................
................................................................................
   1    -41.1193587 -0.411194E+02  0.637E-03    9.34       0.0  T
   2    -41.1193588 -0.133450E-07  0.472E-03    9.34       4.9  T
   3    -41.1193588 -0.423674E-08  0.105E-03    9.34      21.9  T
   4    -41.1193588 -0.195763E-08  0.315E-04    9.34      72.9  T
   5    -41.1193588 -0.101402E-09  0.583E-05    9.34     393.4  T
speedup  0.94
cpu  time for SCC    0.00 s
wall time for SCC    0.00 s
speedup  1.02
cpu  time for grad    0.01 s
wall time for grad    0.01 s
 E :    -40.92136266  G :  0.000340    pred/act E change: -0.162D-06 -0.214D-06
Maxdispl :   0.0019   ||displ|| :   0.0052   Lambda : -0.252D-06
Largest |displ|/coords:  0.0019 (  14)  0.0019 (  25)  0.0018 (   3)
................................................................................
.............................. CYCLE  146 ......................................
................................................................................
   1    -41.1193622 -0.411194E+02  0.558E-03    9.34       0.0  T
   2    -41.1193622 -0.714120E-08  0.415E-03    9.34       5.5  T
   3    -41.1193622 -0.304212E-08  0.785E-04    9.34      29.2  T
   4    -41.1193622 -0.117127E-08  0.209E-04    9.34     109.6  T
speedup  1.20
cpu  time for SCC    0.00 s
wall time for SCC    0.00 s
speedup  1.10
cpu  time for grad    0.01 s
wall time for grad    0.01 s
 E :    -40.92136285  G :  0.000328    pred/act E change: -0.152D-06 -0.186D-06
Maxdispl :   0.0021   ||displ|| :   0.0047   Lambda : -0.242D-06
Largest |displ|/coords:  0.0021 (   5)  0.0017 (  14)  0.0017 (  25)

generating ANC from model Hessian ...
 Shifting diagonal of input Hessian by   4.277479639815090E-003
 Lowest  eigenvalues of input Hessian
   -0.000000   -0.000000   -0.000000    0.000000    0.000000    0.000000
    0.005000    0.005492    0.006383    0.007255    0.008501    0.008647
    0.010884    0.014397    0.014802    0.017279    0.019798    0.025405
 Highest eigenvalues
    1.387693    1.407166    1.411946    2.584874    3.414786    3.676143
 
cpu  time for ANC gen    0.01 s
wall time for ANC gen    0.01 s
................................................................................
.............................. CYCLE  147 ......................................
................................................................................
   1    -41.1193702 -0.411194E+02  0.542E-03    9.34       0.0  T
   2    -41.1193702 -0.583833E-08  0.406E-03    9.34       5.7  T
   3    -41.1193702 -0.290138E-08  0.713E-04    9.34      32.2  T
   4    -41.1193702 -0.103830E-08  0.151E-04    9.34     151.6  T
speedup  1.15
cpu  time for SCC    0.00 s
wall time for SCC    0.00 s
speedup  1.08
cpu  time for grad    0.01 s
wall time for grad    0.01 s
 E :    -40.92136303  G :  0.000262    pred/act E change:  0.000D+00 -0.180D-06
Maxdispl :   0.0026   ||displ|| :   0.0038   Lambda : -0.188D-06
Largest |displ|/coords:  0.0026 (   1)  0.0022 (   4)  0.0009 (   8)
................................................................................
.............................. CYCLE  148 ......................................
................................................................................
   1    -41.1193652 -0.411194E+02  0.358E-03    9.34       0.0  T
   2    -41.1193652 -0.106100E-08  0.269E-03    9.34       8.5  T
   3    -41.1193652 -0.922476E-09  0.249E-04    9.34      92.1  T
   4    -41.1193652 -0.139728E-09  0.104E-04    9.34     219.8  T
speedup  0.80
cpu  time for SCC    0.00 s
wall time for SCC    0.00 s
speedup  0.98
cpu  time for grad    0.01 s
wall time for grad    0.01 s
 E :    -40.92136317  G :  0.000166    pred/act E change:  0.000D+00 -0.140D-06
Maxdispl :   0.0062   ||displ|| :   0.0082   Lambda : -0.289D-06
Largest |displ|/coords:  0.0062 (   1)  0.0027 (   8)  0.0022 (   3)
................................................................................
.............................. CYCLE  149 ......................................
................................................................................
   1    -41.1193589 -0.411194E+02  0.779E-03    9.34       0.0  T
   2    -41.1193589 -0.454087E-08  0.585E-03    9.34       3.9  T
   3    -41.1193589 -0.359853E-08  0.474E-04    9.34      48.4  T
   4    -41.1193589 -0.626322E-09  0.206E-04    9.34     111.4  T
speedup  0.77
cpu  time for SCC    0.00 s
wall time for SCC    0.00 s
speedup  0.96
cpu  time for grad    0.01 s
wall time for grad    0.01 s
 E :    -40.92136333  G :  0.000186    pred/act E change: -0.938D-07 -0.160D-06
Maxdispl :   0.0065   ||displ|| :   0.0075   Lambda : -0.178D-06
Largest |displ|/coords:  0.0065 (   1)  0.0017 (   7)  0.0014 (   9)
................................................................................
.............................. CYCLE  150 ......................................
................................................................................
   1    -41.1193582 -0.411194E+02  0.625E-03    9.34       0.0  T
   2    -41.1193582 -0.312554E-08  0.471E-03    9.34       4.9  T
   3    -41.1193582 -0.321482E-08  0.358E-04    9.34      64.1  T
   4    -41.1193582 -0.287756E-09  0.163E-04    9.34     141.0  T
speedup  1.15
cpu  time for SCC    0.00 s
wall time for SCC    0.00 s
speedup  1.08
cpu  time for grad    0.01 s
wall time for grad    0.01 s
 E :    -40.92136343  G :  0.000219    pred/act E change: -0.145D-06 -0.982D-07
Maxdispl :   0.0060   ||displ|| :   0.0066   Lambda : -0.144D-06
Largest |displ|/coords:  0.0060 (   1)  0.0011 (   7)  0.0011 (   3)
................................................................................
.............................. CYCLE  151 ......................................
................................................................................
   1    -41.1193579 -0.411194E+02  0.473E-03    9.34       0.0  T
   2    -41.1193579 -0.217344E-08  0.357E-03    9.34       6.4  T
   3    -41.1193579 -0.226651E-08  0.333E-04    9.34      68.9  T
   4    -41.1193579 -0.199570E-09  0.132E-04    9.34     173.3  T
speedup  0.80
cpu  time for SCC    0.00 s
wall time for SCC    0.00 s
speedup  0.95
cpu  time for grad    0.01 s
wall time for grad    0.01 s
 E :    -40.92136354  G :  0.000165    pred/act E change: -0.890D-07 -0.116D-06
Maxdispl :   0.0103   ||displ|| :   0.0115   Lambda : -0.203D-06
Largest |displ|/coords:  0.0103 (   1)  0.0021 (   2)  0.0019 (   7)
................................................................................
.............................. CYCLE  152 ......................................
................................................................................
   1    -41.1193530 -0.411194E+02  0.730E-03    9.34       0.0  T
   2    -41.1193530 -0.678035E-08  0.551E-03    9.34       4.2  T
   3    -41.1193530 -0.590988E-08  0.610E-04    9.34      37.6  T
   4    -41.1193530 -0.843436E-09  0.263E-04    9.34      87.2  T
speedup  1.15
cpu  time for SCC    0.00 s
wall time for SCC    0.00 s
speedup  1.08
cpu  time for grad    0.01 s
wall time for grad    0.01 s
 E :    -40.92136367  G :  0.000119    pred/act E change: -0.719D-07 -0.124D-06
Maxdispl :   0.0030   ||displ|| :   0.0038   Lambda : -0.488D-07
Largest |displ|/coords:  0.0030 (   1)  0.0016 (   2)  0.0008 (   5)
................................................................................
.............................. CYCLE  153 ......................................
................................................................................
   1    -41.1193525 -0.411194E+02  0.232E-03    9.34       0.0  T
   2    -41.1193525 -0.111271E-08  0.175E-03    9.34      13.1  T
   3    -41.1193525 -0.835897E-09  0.261E-04    9.34      88.0  T
   4    -41.1193525 -0.158096E-09  0.110E-04    9.34     208.8  T
speedup  0.77
cpu  time for SCC    0.00 s
wall time for SCC    0.00 s
speedup  0.96
cpu  time for grad    0.01 s
wall time for grad    0.01 s
 E :    -40.92136371  G :  0.000101    pred/act E change: -0.101D-06 -0.461D-07
Maxdispl :   0.0058   ||displ|| :   0.0085   Lambda : -0.110D-06
Largest |displ|/coords:  0.0058 (   1)  0.0045 (   2)  0.0019 (   5)

   *** GEOMETRY OPTIMIZATION CONVERGED AFTER 153 ITERATIONS ***

------------------------------------------------------------------------
 total energy gain (kcal):     -0.0004
------------------------------------------------------------------------
================
 final structure:
================
$coord
        0.27616999007728        1.90239074246868       -1.78152654978576      S 
       -0.79134389758359        2.41889283124715        0.73832829023626      O 
        2.66273889567524        3.15838976702763       -2.16936926751207      O 
        0.32190931487774       -0.78173499022304       -2.28635766687479      O 
       -1.67859351542682        3.10449788619373       -3.71452557093309      O 
       -1.09642668882062        4.79406193585256       -3.93853676731845      H 
        4.97586414976836       -0.40225585533416        0.43082567080633      O 
        4.91493909245046       -1.77300684600461       -0.75961514555860      H 
        4.43106393292696        1.09820971735801       -0.52358765607130      H 
       -4.92467342649705       -0.51743403123869        0.56262606566798      O 
       -3.63741553436659        0.79481894711587        0.70837314135333      H 
       -5.56175994298758       -0.40827558178558       -1.12983162416989      H 
       -1.25354676215124       -3.89946301665599        1.22346403045265      O 
       -2.95429011676840       -3.16241268325139        1.33933813797709      H 
       -0.62733572878187       -3.21391631363755       -0.38881986799451      H 
        1.31956329009258       -0.75776388699139        3.55430434784822      O 
        2.99851484806665       -0.76035508059470        2.59184150681328      H 
        0.39875966589177        0.74725065125171        2.74555572348551      H 
        0.22586241475000       -2.34189421132679        2.79751320184286      H 
$end
 
 Bond Distances (Angstroems)
 ---------------------------
S1-O2=1.4737         S1-O3=1.4418         S1-O4=1.4455         S1-O5=1.5878         O2-S1=1.4737         O3-S1=1.4418         
O4-S1=1.4455         O5-S1=1.5878         O5-H6=0.9531         H6-O5=0.9531         O7-H8=0.9613         O7-H9=0.9842         
H8-O7=0.9613         H9-O7=0.9842         O10-H11=0.9758       O10-H12=0.9587       H11-O10=0.9758       H12-O10=0.9587       
O13-H14=0.9828       O13-H15=0.9846       H14-O13=0.9828       H15-O13=0.9846       O16-H17=1.0241       O16-H18=1.0271       
O16-H19=1.0946       H17-O16=1.0241       H18-O16=1.0271       H19-O16=1.0946       
 O  H  Rav=0.9946 sigma=0.0409  Rmin=0.9531  Rmax=1.0946    10
 S  O  Rav=1.4872 sigma=0.0594  Rmin=1.4418  Rmax=1.5878     4
 
 selected bond angles (degree)
 --------------------
O3-S1-O2=112.28                O4-S1-O2=110.85                O4-S1-O3=114.33                O5-S1-O2=105.00                
O5-S1-O3=107.11                O5-S1-O4=106.59                H6-O5-S1=104.20                H9-O7-H8=105.23                
H12-O10-H11=106.05             
 
 selected dihedral angles (degree)
 ---------------------------------
H6-O5-S1-O2= 89.93            H6-O5-S1-O3=330.39            H6-O5-S1-O4=207.60            
 
 CMA Distance (Angstroems)
 ---------------------------
R(CMA):  2.4507

========================================================================
 FINAL SINGLEPOINT CALCULATION ON OPTIMIZED GEOMETRY
========================================================================

 Ncao       : 52
 Nao        : 51
 Nshell     : 29
 Nel        : 64
 T(el)      :   300.0
 intcut     :    25.0
 scfconv/Eh :  0.100E-05
   qconv/e  :  0.100E-03
 intneglect :  0.100E-07
 broydamp   :      0.250
 iter      E             dE          RMSdq      gap      omega  full diag
   1    -41.1193525 -0.411194E+02  0.434E-05    9.34       0.0  T
   2    -41.1193525 -0.110134E-11  0.278E-05    9.34     824.0  T
   3    -41.1193525 -0.717648E-12  0.740E-06    9.34    3098.6  T
speedup  1.11
cpu  time for SCC    0.00 s
wall time for SCC    0.00 s

   *** convergence criteria satisfied after 3 iterations ***

          eigenvalues
 #    :          20         21         22         23         24         25         26         27
 occ. :        2.000      2.000      2.000      2.000      2.000      2.000      2.000      2.000
 eps  :       -14.606    -14.459    -14.052    -13.815    -13.034    -12.917    -12.882    -12.861
 #    :          28         29         30         31         32         33         34         35
 occ. :        2.000      2.000      2.000      2.000      2.000      0.000      0.000      0.000
 eps  :       -12.670    -12.512    -12.409    -12.292    -12.186     -2.847     -0.884     -0.464
 #    :          36         37         38         39         40         41         42         43
 occ. :        0.000      0.000      0.000      0.000      0.000      0.000      0.000      0.000
 eps  :         0.487      0.650      1.660      2.917      3.972      4.263      5.770      6.651


   #   Z            q   n(s)   n(p)   n(d)      C6AA      α(0)
   1  16 S      1.689  1.584  1.776  0.951    89.020    15.880
   2   8 O     -0.759  1.780  4.980  0.000    30.367     7.389
   3   8 O     -0.733  1.775  4.958  0.000    29.628     7.298
   4   8 O     -0.732  1.760  4.972  0.000    29.602     7.295
   5   8 O     -0.592  1.748  4.844  0.000    24.957     6.744
   6   1 H      0.350  0.650  0.000  0.000     0.581     1.194
   7   8 O     -0.599  1.738  4.861  0.000    25.163     6.770
   8   1 H      0.309  0.691  0.000  0.000     0.693     1.308
   9   1 H      0.330  0.670  0.000  0.000     0.638     1.254
  10   8 O     -0.607  1.739  4.868  0.000    25.349     6.795
  11   1 H      0.314  0.686  0.000  0.000     0.680     1.296
  12   1 H      0.289  0.711  0.000  0.000     0.755     1.365
  13   8 O     -0.587  1.755  4.832  0.000    24.830     6.728
  14   1 H      0.343  0.657  0.000  0.000     0.604     1.221
  15   1 H      0.340  0.660  0.000  0.000     0.612     1.229
  16   8 O     -0.504  1.729  4.775  0.000    22.913     6.465
  17   1 H      0.378  0.622  0.000  0.000     0.527     1.141
  18   1 H      0.378  0.622  0.000  0.000     0.526     1.140
  19   1 H      0.391  0.609  0.000  0.000     0.497     1.105

 Mol. C6AA /au·bohr⁶  :       3382.642377
 Mol. C8AA /au·bohr⁸  :      76586.085679
 Mol. α(0) /au        :         83.615649

 
 Wiberg/Mayer (AO) data. WBOs > 0.1 written file <wbo>
 largest (>0.05) Wiberg bond orders for each atom
           total WBO             WBO to atom ...
     1  S   4.848    O    4 1.355    O    3 1.345    O    2 1.216    O    5 0.894
     2  O   1.739    S    1 1.216    H   18 0.123    O    4 0.111    O    3 0.105    O    5 0.067
     3  O   1.736    S    1 1.345    O    4 0.112    O    2 0.105    O    5 0.078    H    9 0.061
     4  O   1.726    S    1 1.355    O    3 0.112    O    2 0.111    O    5 0.065    H   15 0.052
     5  O   1.972    S    1 0.894    H    6 0.861    O    3 0.078    O    2 0.067    O    4 0.065
     6  H   0.877    O    5 0.861
     7  O   1.933    H    8 0.899    H    9 0.823    H   17 0.125
     8  H   0.904    O    7 0.899
     9  H   0.891    O    7 0.823    O    3 0.061
    10  O   1.862    H   12 0.913    H   11 0.849
    11  H   0.901    O   10 0.849
    12  H   0.917    O   10 0.913
    13  O   2.028    H   14 0.830    H   15 0.826    H   19 0.238    O   16 0.077
    14  H   0.882    O   13 0.830
    15  H   0.884    O   13 0.826    O    4 0.052
    16  O   2.240    H   17 0.728    H   18 0.725    H   19 0.606    O   13 0.077
    17  H   0.857    O   16 0.728    O    7 0.125
    18  H   0.857    O   16 0.725    O    2 0.123
    19  H   0.847    O   16 0.606    O   13 0.238
 MOs/occ written to file <molden.input>
 
molecular dipole:
                 x           y           z       tot (Debye)
 q only:       -0.053      -0.456       0.336
   full:       -0.243       0.229      -0.632       1.817
molecular quadrupole (traceless):
                xx          xy          yy          xz          yz          zz
 q only:       -2.173      -5.273       1.547       3.834      -2.611       0.627
  q+dip:       -3.078      -6.489       3.208       3.482      -2.526      -0.130
   full:       -3.190      -6.562       3.271       3.758      -2.913      -0.081

SCC energy    :     -41.1193525
rep           :       0.1979055
ES            :       0.1984953
AES           :      -0.0554672
AXC           :      -0.0101551
disp          :      -0.0144258
XB            :       0.0000000
fix           :       0.0000000
total E       :     -40.9213637
atomizationE  :       3.7155509     2331.54
(atE without considering molecular charge,
 total energy contains solvation terms)
H-L gap (eV)  :          9.3390
optimized geometry written to: xtbopt.xyz


------------------------------------------------------------------------
 * finished run on 2019/09/03 at 06:59:55.391     
------------------------------------------------------------------------
 total:
 * wall-time:     0 d,  0 h,  0 min,  2.284 sec
 *  cpu-time:     0 d,  0 h,  0 min,  2.262 sec
 * ratio c/w:     0.990 speedup
 SCF:
 * wall-time:     0 d,  0 h,  0 min,  0.094 sec
 *  cpu-time:     0 d,  0 h,  0 min,  0.091 sec
 * ratio c/w:     0.966 speedup
 ANC optimizer:
 * wall-time:     0 d,  0 h,  0 min,  2.167 sec
 *  cpu-time:     0 d,  0 h,  0 min,  2.151 sec
 * ratio c/w:     0.992 speedup

