      -----------------------------------------------------------      
     |                   =====================                   |     
     |                           x T B                           |     
     |                   =====================                   |     
     |                         S. Grimme                         |     
     |          Mulliken Center for Theoretical Chemistry        |     
     |                    University of Bonn                     |     
     |                 Version 6.0.1 (SAW181210)                 |     
      -----------------------------------------------------------      

   This program is distributed in the hope that it will be useful,
   but WITHOUT ANY WARRANTY; without even the implied warranty of
   MERCHANTABILITY or FITNESS FOR A PARTICULAR PURPOSE.
   
   FOR NON-COMMERCIAL, ACADEMIA USE ONLY.
   
   Cite this work as:
   S. Grimme, C. Bannwarth, P. Shushkov, J. Comput. Theory Chem., 2017,
   13, 1989-2009.
   C. Bannwarth, S. Ehlert and S. Grimme., ChemRxiv, 2018, preprint.
   http://doi.org/10.26434/chemrxiv.7246238.v1
   
   for sTDA-xTB:
   S. Grimme and C. Bannwarth, J. Chem. Phys., 2016, 145, 054103.
   
   in the mass-spec context:
   V. Asgeirsson, C. Bauer and S. Grimme, Chem. Sci., 2017, 8, 4879.
   
   if GBSA is used:
   P. Shushkov, F. März and S. Grimme, unpublished.
   
   for ANC optimizer:
   S. Grimme, unpublished.
   Rational Function algorithm used in ANCopt:
   F. Eckert, P. Pulay, H.-J. Werner, J. Comput. Chem., 1997, 18, 1473.
   
   with help from (in alphabetical order)
   C. Bannwarth, F. Bohle, G. Brandenburg, E. Caldeweyher, M. Checinski,
   S. Dohm, S. Ehlert, S. Ehrlich, F. März, H. Neugebauer, J. Pisarek,
   P. Pracht, P. Shushkov, and S. Spicher.
   
 * started run on 2019/09/03 at 07:13:05.289     
========================================================================
 # omp threads = 1
========================================================================
number of atoms            : 19
number of electrons        : 64
charge                     : 0
spin                       : .0
first test random number   : .7880

########################################################################
# WARNING! Please study the warnings concerning your input carefully
#  - XTBPATH is not set, using XTBHOME instead
#  - the use of '-opt' is discouraged, please use '--opt' next time
#  - the use of '-chrg' is discouraged, please use '--chrg' next time
#  - the use of '-uhf' is discouraged, please use '--uhf' next time
########################################################################

           ------------------------------------------------- 
          |                 G F N 2 - x T B                 |
          | Geometry, Frequencies, Noncovalent interactions |
          |            JCTC 2018 parametrisation            |
           ------------------------------------------------- 
      method parameters     
 k(s)        :  1.8500
 k(p)        :  2.2300
 k(d)        :  2.2300
 k(f)        :  2.0000
 kEN (H0ij)  : -2.0000
 D4 a1       :  0.5200
 D4 a2       :  5.0000
 D4 s6       :  1.0000
 D4 s8       :  2.7000
 D4 s9       :  5.0000
 alphaj      :  2.0000


            Z     q(EN)     CN     RAES       Cart. coordinates
     1  S   6.0    0.65    4.27    4.17     1.11760     3.20249     1.64026
     2  O   6.0   -0.31    1.20    1.80     0.86277     3.30236    -1.16210
     3  O   6.0   -0.31    1.23    1.80    -1.42637     3.44147     2.82314
     4  O   6.0   -0.30    1.18    1.80     2.27469     0.74764     2.39058
     5  O   6.0   -0.24    2.08    1.84     2.73685     5.28952     2.49750
     6  H   1.0    0.15    1.21    1.47     1.99204     6.87161     2.01446
     7  O   6.0   -0.29    2.09    1.84    -0.15462    -3.57234     1.33437
     8  H   1.0    0.17    1.04    1.43     0.09359    -4.18064    -0.36356
     9  H   1.0    0.18    1.03    1.43     1.19067    -2.37932     1.61985
    10  O   6.0   -0.28    2.02    1.83     0.59229    -4.41784    -3.55956
    11  H   1.0    0.17    1.04    1.44     0.45905    -2.69948    -4.14615
    12  H   1.0    0.15    0.97    1.43     1.40455    -5.32662    -4.91195
    13  O   6.0   -0.29    2.02    1.83     0.39259     0.32813    -5.19270
    14  H   1.0    0.18    1.05    1.44     0.61951     1.34458    -3.69940
    15  H   1.0    0.15    0.97    1.43     0.08431     1.51352    -6.53970
    16  O   6.0   -0.21    2.88    2.51    -3.44720    -0.92266     3.70765
    17  H   1.0    0.15    1.07    1.44    -2.42901    -2.10613     2.68172
    18  H   1.0    0.12    0.96    1.43    -3.32734    -1.29719     5.53395
    19  H   1.0    0.16    1.08    1.44    -3.03597     0.86088     3.33163

  Z AO/shell   Hii/eV     exponent
  1     Wed Apr 25 08:07:45 CEST 2018   EN: 2.200 GM2: 0.406  GM3: 0.0800  RAES: 1.40
     1s    -10.707211    1.230000
  8     Wed Apr 25 08:07:45 CEST 2018   EN: 3.440 GM2: 0.452  GM3:-0.0517  RAES: 1.80
     2s    -20.229985    2.439742
     2p    -15.503117    2.137023
 16     Tue Apr 24 11:44:34 CEST 2018   EN: 2.580 GM2: 0.340  GM3:-0.0502  RAES: 3.10
     3s    -20.029654    1.981333
     3p    -11.377694    2.025643
     3d     -0.420282    1.702555
 no old-style atom pair restraining (fixing) potential

molecular fragmentation (1/2 indicates fragments):
1111112222222222222
# atoms in fragment 1/2:     6    13
 fragment masses (1/2) :       97.07       73.07
CMA distance (Bohr)    :   6.149
constraining FC (au)   :  0.0500
           ------------------------------------------------- 
          |        Self-Consistent Charge Iterations        |
           ------------------------------------------------- 

 Ncao       : 52
 Nao        : 51
 Nshell     : 29
 Nel        : 64
 T(el)      :   300.0
 intcut     :    25.0
 scfconv/Eh :  0.100E-05
   qconv/e  :  0.100E-03
 intneglect :  0.100E-07
 broydamp   :      0.250
 iter      E             dE          RMSdq      gap      omega  full diag
   1    -41.0069162 -0.410069E+02  0.768E+00   10.53       0.0  T
   2    -41.0474958 -0.405797E-01  0.555E+00   10.00       1.0  T
   3    -41.0789141 -0.314183E-01  0.147E+00    8.59       1.0  T
   4    -41.0832342 -0.432012E-02  0.610E-01    8.62       1.0  T
   5    -41.0838759 -0.641657E-03  0.337E-01    8.54       1.0  T
   6    -41.0842414 -0.365585E-03  0.149E-01    8.56       1.0  T
   7    -41.0843297 -0.882732E-04  0.556E-02    8.61       1.0  T
   8    -41.0843417 -0.119365E-04  0.294E-02    8.61       1.0  T
   9    -41.0843447 -0.308976E-05  0.147E-02    8.61       1.6  T
  10    -41.0843458 -0.102183E-05  0.259E-03    8.60       8.9  T
  11    -41.0843458 -0.159254E-07  0.113E-03    8.60      20.2  T
  12    -41.0843458 -0.444280E-08  0.487E-04    8.60      47.1  T
  13    -41.0843458 -0.884533E-09  0.123E-04    8.60     186.1  T
speedup  1.07
cpu  time for SCC    0.01 s
wall time for SCC    0.01 s

   *** convergence criteria satisfied after 13 iterations ***

          eigenvalues
 #    :          20         21         22         23         24         25         26         27
 occ. :        2.000      2.000      2.000      2.000      2.000      2.000      2.000      2.000
 eps  :       -13.399    -12.954    -12.817    -12.627    -12.015    -11.798    -11.499    -11.487
 #    :          28         29         30         31         32         33         34         35
 occ. :        2.000      2.000      2.000      2.000      2.000      0.000      0.000      0.000
 eps  :       -11.366    -11.335    -11.024    -10.884    -10.648     -2.045     -1.145      0.028
 #    :          36         37         38         39         40         41         42         43
 occ. :        0.000      0.000      0.000      0.000      0.000      0.000      0.000      0.000
 eps  :         1.077      1.446      1.755      3.499      3.880      4.954      6.087      7.443


   #   Z            q   n(s)   n(p)   n(d)      C6AA      α(0)
   1  16 S      1.570  1.584  1.857  0.989    91.770    16.123
   2   8 O     -0.751  1.777  4.974  0.000    30.136     7.360
   3   8 O     -0.766  1.771  4.995  0.000    30.572     7.413
   4   8 O     -0.726  1.769  4.957  0.000    29.438     7.275
   5   8 O     -0.537  1.717  4.819  0.000    23.697     6.572
   6   1 H      0.358  0.642  0.000  0.000     0.562     1.173
   7   8 O     -0.640  1.733  4.908  0.000    26.169     6.904
   8   1 H      0.342  0.658  0.000  0.000     0.606     1.223
   9   1 H      0.328  0.672  0.000  0.000     0.642     1.258
  10   8 O     -0.615  1.739  4.875  0.000    25.537     6.820
  11   1 H      0.336  0.664  0.000  0.000     0.622     1.239
  12   1 H      0.278  0.722  0.000  0.000     0.790     1.396
  13   8 O     -0.616  1.735  4.881  0.000    25.578     6.826
  14   1 H      0.333  0.667  0.000  0.000     0.630     1.247
  15   1 H      0.279  0.721  0.000  0.000     0.788     1.394
  16   8 O     -0.399  1.640  4.759  0.000    20.773     6.156
  17   1 H      0.425  0.575  0.000  0.000     0.441     1.043
  18   1 H      0.381  0.619  0.000  0.000     0.521     1.134
  19   1 H      0.419  0.581  0.000  0.000     0.451     1.055

 Mol. C6AA /au·bohr⁶  :       3379.279217
 Mol. C8AA /au·bohr⁸  :      76745.099799
 Mol. α(0) /au        :         83.611495

 
 Wiberg/Mayer (AO) data. WBOs > 0.1 written file <wbo>
 largest (>0.05) Wiberg bond orders for each atom
           total WBO             WBO to atom ...
     1  S   4.949    O    4 1.351    O    2 1.309    O    3 1.253    O    5 1.001
     2  O   1.678    S    1 1.309    O    4 0.117    O    3 0.109    O    5 0.075
     3  O   1.694    S    1 1.253    O    4 0.113    O    2 0.109    H   19 0.109    O    5 0.068
     4  O   1.705    S    1 1.351    O    2 0.117    O    3 0.113    O    5 0.055
     5  O   2.054    S    1 1.001    H    6 0.848    O    2 0.075    O    3 0.068    O    4 0.055
     6  H   0.871    O    5 0.848
     7  O   1.894    H    9 0.851    H    8 0.829    H   17 0.123
     8  H   0.883    O    7 0.829
     9  H   0.892    O    7 0.851
    10  O   1.838    H   12 0.912    H   11 0.839
    11  H   0.887    O   10 0.839
    12  H   0.922    O   10 0.912
    13  O   1.835    H   15 0.910    H   14 0.836
    14  H   0.889    O   13 0.836
    15  H   0.922    O   13 0.910
    16  O   2.336    H   18 0.850    H   19 0.708    H   17 0.691
    17  H   0.819    O   16 0.691    O    7 0.123
    18  H   0.855    O   16 0.850
    19  H   0.824    O   16 0.708    O    3 0.109
 MOs/occ written to file <molden.input>
 
molecular dipole:
                 x           y           z       tot (Debye)
 q only:       -1.718      -0.605       1.222
   full:       -1.118       0.358       1.044       3.993
molecular quadrupole (traceless):
                xx          xy          yy          xz          yz          zz
 q only:       -5.420       3.771      -2.761     -12.854      -3.006       8.181
  q+dip:       -9.346       4.021      -0.374     -12.228      -0.957       9.719
   full:       -9.928       4.192       0.173     -12.184      -0.756       9.755

SCC energy    :     -41.0843458
rep           :       0.2164306
ES            :       0.2442161
AES           :      -0.0536778
AXC           :      -0.0108783
disp          :      -0.0116427
XB            :       0.0000000
fix           :       0.0000000
total E       :     -40.8678042
atomizationE  :       3.6619914     2297.93
(atE without considering molecular charge,
 total energy contains solvation terms)
H-L gap (eV)  :          8.6025
           ------------------------------------------------- 
          |                 ===============                 |
          |                   A N C O P T                   |
          |                 ===============                 |
          |          Approximate Normal Coordinate          |
          |           Rational Function Optimizer           |
           ------------------------------------------------- 
dumping coords to <xtbopt.coord> and <xtbopt.log>
 optlevel               2
 Maxcycle             380
 Maxmicro              25
 Econv         1.000000000000000E-007
 Gconv         2.000000000000000E-004
 Maxdispl       1.00000000000000     
 Hlow          5.000000000000000E-003
 S6             20.0000000000000     
 Nvar               51

generating ANC from model Hessian ...
 Shifting diagonal of input Hessian by   5.052339867966954E-003
 Lowest  eigenvalues of input Hessian
    0.005000   -0.000000   -0.000000   -0.000000   -0.000000    0.000000
    0.000000    0.005286    0.005554    0.005981    0.007178    0.007763
    0.007873    0.008613    0.009562    0.013573    0.015148    0.015532
 Highest eigenvalues
    1.452997    1.547497    1.563032    3.139481    3.217440    3.314342
 
cpu  time for ANC gen    0.01 s
wall time for ANC gen    0.00 s
................................................................................
.............................. CYCLE    1 ......................................
................................................................................
   1    -41.0843458 -0.410843E+02  0.808E-05    8.60       0.0  T
   2    -41.0843458 -0.788702E-11  0.645E-05    8.60     355.4  T
   3    -41.0843458 -0.111982E-10  0.264E-05    8.60     870.1  T
speedup  1.00
cpu  time for SCC    0.00 s
wall time for SCC    0.00 s
speedup  0.97
cpu  time for grad    0.01 s
wall time for grad    0.01 s
 E :    -40.86780418  G :  0.178125    pred/act E change:  0.000D+00  0.318D-07
Maxdispl :   0.2089   ||displ|| :   0.3664   Lambda : -0.217D-01
Largest |displ|/coords:  0.2089 (  19)  0.1353 (  23)  0.1143 (  22)
................................................................................
.............................. CYCLE    2 ......................................
................................................................................
   1    -41.0934508 -0.410935E+02  0.353E-01    8.87       0.0  T
   2    -41.0936547 -0.203849E-03  0.267E-01    8.92       1.0  T
   3    -41.0937472 -0.924824E-04  0.106E-01    9.01       1.0  T
   4    -41.0937599 -0.127531E-04  0.242E-02    9.01       1.0  T
   5    -41.0937613 -0.134734E-05  0.731E-03    9.01       3.1  T
   6    -41.0937613 -0.541116E-07  0.398E-03    9.01       5.8  T
   7    -41.0937613 -0.273008E-07  0.165E-03    9.01      13.9  T
speedup  1.14
cpu  time for SCC    0.00 s
wall time for SCC    0.00 s
speedup  1.06
cpu  time for grad    0.01 s
wall time for grad    0.01 s
 E :    -40.88599656  G :  0.119296    pred/act E change:  0.000D+00 -0.182D-01
Maxdispl :   0.1507   ||displ|| :   0.3426   Lambda : -0.136D-01
Largest |displ|/coords:  0.1507 (  23)  0.1344 (  19)  0.1125 (  20)
................................................................................
.............................. CYCLE    3 ......................................
................................................................................
   1    -41.0997164 -0.410997E+02  0.293E-01    9.13       0.0  T
   2    -41.0999732 -0.256853E-03  0.219E-01    9.16       1.0  T
   3    -41.1000912 -0.118016E-03  0.109E-01    9.22       1.0  T
   4    -41.1000983 -0.704515E-05  0.255E-02    9.23       1.0  T
   5    -41.1000994 -0.115425E-05  0.831E-03    9.22       2.8  T
   6    -41.1000995 -0.757051E-07  0.416E-03    9.22       5.5  T
   7    -41.1000996 -0.300102E-07  0.171E-03    9.22      13.4  T
speedup  1.16
cpu  time for SCC    0.00 s
wall time for SCC    0.00 s
speedup  1.09
cpu  time for grad    0.01 s
wall time for grad    0.01 s
 E :    -40.89683531  G :  0.076676    pred/act E change: -0.123D-01 -0.108D-01
Maxdispl :   0.0887   ||displ|| :   0.2756   Lambda : -0.635D-02
Largest |displ|/coords:  0.0887 (  23)  0.0849 (  11)  0.0805 (   2)
................................................................................
.............................. CYCLE    4 ......................................
................................................................................
   1    -41.1014595 -0.411015E+02  0.266E-01    9.25       0.0  T
   2    -41.1016436 -0.184103E-03  0.199E-01    9.27       1.0  T
   3    -41.1017267 -0.830526E-04  0.894E-02    9.29       1.0  T
   4    -41.1017337 -0.704577E-05  0.206E-02    9.29       1.1  T
   5    -41.1017345 -0.753151E-06  0.687E-03    9.29       3.3  T
   6    -41.1017345 -0.494766E-07  0.342E-03    9.29       6.7  T
   7    -41.1017346 -0.184760E-07  0.132E-03    9.29      17.4  T
speedup  1.14
cpu  time for SCC    0.00 s
wall time for SCC    0.00 s
speedup  1.08
cpu  time for grad    0.01 s
wall time for grad    0.01 s
 E :    -40.90170297  G :  0.047145    pred/act E change: -0.759D-02 -0.487D-02
Maxdispl :   0.1472   ||displ|| :   0.3677   Lambda : -0.524D-02
Largest |displ|/coords:  0.1472 (   2)  0.1398 (  10)  0.1245 (   7)
................................................................................
.............................. CYCLE    5 ......................................
................................................................................
   1    -41.1033742 -0.411034E+02  0.317E-01    9.18       0.0  T
   2    -41.1036246 -0.250473E-03  0.235E-01    9.17       1.0  T
   3    -41.1037353 -0.110671E-03  0.102E-01    9.17       1.0  T
   4    -41.1037464 -0.110912E-04  0.233E-02    9.17       1.0  T
   5    -41.1037472 -0.814140E-06  0.781E-03    9.17       2.9  T
   6    -41.1037473 -0.591012E-07  0.393E-03    9.17       5.8  T
   7    -41.1037473 -0.220568E-07  0.145E-03    9.17      15.9  T
speedup  1.14
cpu  time for SCC    0.00 s
wall time for SCC    0.00 s
speedup  1.06
cpu  time for grad    0.01 s
wall time for grad    0.01 s
 E :    -40.90506780  G :  0.012715    pred/act E change: -0.342D-02 -0.336D-02
Maxdispl :   0.2241   ||displ|| :   0.4253   Lambda : -0.193D-02
Largest |displ|/coords:  0.2241 (   7)  0.1594 (  10)  0.1351 (   2)
................................................................................
.............................. CYCLE    6 ......................................
................................................................................
   1    -41.0934094 -0.410934E+02  0.521E-01    8.87       0.0  T
   2    -41.0935402 -0.130786E-03  0.393E-01    8.91       1.0  T
   3    -41.0936053 -0.650597E-04  0.721E-02    9.00       1.0  T
   4    -41.0936278 -0.225722E-04  0.171E-02    8.98       1.3  T
   5    -41.0936282 -0.341633E-06  0.588E-03    8.97       3.9  T
   6    -41.0936282 -0.221976E-07  0.291E-03    8.97       7.9  T
   7    -41.0936282 -0.103866E-07  0.886E-04    8.97      25.9  T
speedup  0.93
cpu  time for SCC    0.00 s
wall time for SCC    0.00 s
speedup  0.98
cpu  time for grad    0.01 s
wall time for grad    0.01 s
 E :    -40.90521442  G :  0.042056    pred/act E change: -0.297D-02 -0.147D-03
Maxdispl :   0.2414   ||displ|| :   0.4225   Lambda : -0.397D-02
Largest |displ|/coords:  0.2414 (   3)  0.1806 (   1)  0.1416 (  10)
................................................................................
.............................. CYCLE    7 ......................................
................................................................................
   1    -41.1001899 -0.411002E+02  0.484E-01    8.86       0.0  T
   2    -41.1003128 -0.122901E-03  0.363E-01    8.82       1.0  T
   3    -41.1003822 -0.693808E-04  0.723E-02    8.73       1.0  T
   4    -41.1004011 -0.188282E-04  0.158E-02    8.78       1.4  T
   5    -41.1004013 -0.296561E-06  0.678E-03    8.78       3.4  T
   6    -41.1004014 -0.271616E-07  0.320E-03    8.78       7.2  T
   7    -41.1004014 -0.113998E-07  0.730E-04    8.78      31.4  T
speedup  0.93
cpu  time for SCC    0.00 s
wall time for SCC    0.00 s
speedup  0.97
cpu  time for grad    0.01 s
wall time for grad    0.01 s
 E :    -40.90607351  G :  0.030284    pred/act E change: -0.114D-02 -0.859D-03
Maxdispl :   0.1578   ||displ|| :   0.2600   Lambda : -0.178D-02
Largest |displ|/coords:  0.1578 (   9)  0.0839 (   3)  0.0792 (  10)
................................................................................
.............................. CYCLE    8 ......................................
................................................................................
   1    -41.1036616 -0.411037E+02  0.337E-01    8.94       0.0  T
   2    -41.1037114 -0.497956E-04  0.252E-01    8.95       1.0  T
   3    -41.1037358 -0.243820E-04  0.446E-02    8.97       1.0  T
   4    -41.1037439 -0.814016E-05  0.114E-02    8.96       2.0  T
   5    -41.1037441 -0.145962E-06  0.434E-03    8.96       5.3  T
   6    -41.1037441 -0.140060E-07  0.207E-03    8.96      11.1  T
speedup  1.05
cpu  time for SCC    0.00 s
wall time for SCC    0.00 s
speedup  1.00
cpu  time for grad    0.01 s
wall time for grad    0.01 s
 E :    -40.90632666  G :  0.027804    pred/act E change: -0.234D-02 -0.253D-03
Maxdispl :   0.1312   ||displ|| :   0.2218   Lambda : -0.180D-02
Largest |displ|/coords:  0.1312 (   7)  0.0623 (   9)  0.0595 (   4)
................................................................................
.............................. CYCLE    9 ......................................
................................................................................
   1    -41.0994371 -0.410994E+02  0.358E-01    9.07       0.0  T
   2    -41.0994870 -0.498484E-04  0.269E-01    9.07       1.0  T
   3    -41.0995140 -0.270466E-04  0.471E-02    9.08       1.0  T
   4    -41.0995218 -0.777438E-05  0.110E-02    9.08       2.1  T
   5    -41.0995220 -0.166144E-06  0.404E-03    9.08       5.7  T
   6    -41.0995220 -0.132958E-07  0.217E-03    9.08      10.5  T
speedup  0.81
cpu  time for SCC    0.00 s
wall time for SCC    0.00 s
speedup  0.92
cpu  time for grad    0.01 s
wall time for grad    0.01 s
 E :    -40.90693521  G :  0.020863    pred/act E change: -0.952D-03 -0.609D-03
Maxdispl :   0.1622   ||displ|| :   0.3240   Lambda : -0.144D-02
Largest |displ|/coords:  0.1622 (   8)  0.1579 (   1)  0.1046 (   9)
................................................................................
.............................. CYCLE   10 ......................................
................................................................................
   1    -41.0989276 -0.410989E+02  0.281E-01    8.95       0.0  T
   2    -41.0989579 -0.302607E-04  0.212E-01    8.96       1.0  T
   3    -41.0989775 -0.196258E-04  0.366E-02    9.00       1.0  T
   4    -41.0989823 -0.476799E-05  0.105E-02    8.99       2.2  T
   5    -41.0989825 -0.187473E-06  0.392E-03    8.99       5.8  T
   6    -41.0989825 -0.969222E-08  0.201E-03    8.99      11.4  T
speedup  1.08
cpu  time for SCC    0.00 s
wall time for SCC    0.00 s
speedup  1.03
cpu  time for grad    0.01 s
wall time for grad    0.01 s
 E :    -40.90745579  G :  0.014447    pred/act E change: -0.944D-03 -0.521D-03
Maxdispl :   0.1227   ||displ|| :   0.2782   Lambda : -0.883D-03
Largest |displ|/coords:  0.1227 (   1)  0.1139 (   6)  0.0957 (  11)
................................................................................
.............................. CYCLE   11 ......................................
................................................................................
   1    -41.0979154 -0.410979E+02  0.184E-01    8.95       0.0  T
   2    -41.0979303 -0.149143E-04  0.137E-01    8.95       1.0  T
   3    -41.0979378 -0.742492E-05  0.258E-02    8.95       1.0  T
   4    -41.0979401 -0.237999E-05  0.701E-03    8.95       3.3  T
   5    -41.0979402 -0.477242E-07  0.225E-03    8.95      10.2  T
   6    -41.0979402 -0.490913E-08  0.119E-03    8.95      19.3  T
speedup  0.79
cpu  time for SCC    0.00 s
wall time for SCC    0.00 s
speedup  0.80
cpu  time for grad    0.01 s
wall time for grad    0.01 s
 E :    -40.90782191  G :  0.016166    pred/act E change: -0.795D-03 -0.366D-03
Maxdispl :   0.1196   ||displ|| :   0.2359   Lambda : -0.824D-03
Largest |displ|/coords:  0.1196 (   1)  0.0936 (   2)  0.0810 (   4)
................................................................................
.............................. CYCLE   12 ......................................
................................................................................
   1    -41.1027783 -0.411028E+02  0.146E-01    9.10       0.0  T
   2    -41.1027844 -0.604248E-05  0.108E-01    9.10       1.0  T
   3    -41.1027872 -0.287159E-05  0.197E-02    9.11       1.2  T
   4    -41.1027880 -0.815464E-06  0.618E-03    9.11       3.7  T
   5    -41.1027881 -0.440603E-07  0.149E-03    9.11      15.4  T
   6    -41.1027881 -0.272932E-08  0.860E-04    9.11      26.7  T
speedup  1.08
cpu  time for SCC    0.00 s
wall time for SCC    0.00 s
speedup  1.03
cpu  time for grad    0.01 s
wall time for grad    0.01 s
 E :    -40.90823494  G :  0.009708    pred/act E change: -0.476D-03 -0.413D-03
Maxdispl :   0.1579   ||displ|| :   0.3070   Lambda : -0.706D-03
Largest |displ|/coords:  0.1579 (   7)  0.1107 (   1)  0.0897 (   8)
................................................................................
.............................. CYCLE   13 ......................................
................................................................................
   1    -41.1004191 -0.411004E+02  0.189E-01    9.24       0.0  T
   2    -41.1004378 -0.186982E-04  0.143E-01    9.25       1.0  T
   3    -41.1004519 -0.140777E-04  0.286E-02    9.27       1.0  T
   4    -41.1004546 -0.269645E-05  0.107E-02    9.27       2.1  T
   5    -41.1004547 -0.132866E-06  0.329E-03    9.27       7.0  T
   6    -41.1004547 -0.104360E-07  0.186E-03    9.27      12.3  T
   7    -41.1004547 -0.455689E-08  0.479E-04    9.27      47.9  T
speedup  0.93
cpu  time for SCC    0.00 s
wall time for SCC    0.00 s
speedup  0.97
cpu  time for grad    0.01 s
wall time for grad    0.01 s
 E :    -40.90850235  G :  0.015398    pred/act E change: -0.435D-03 -0.267D-03
Maxdispl :   0.1204   ||displ|| :   0.2496   Lambda : -0.583D-03
Largest |displ|/coords:  0.1204 (   1)  0.1096 (  10)  0.0986 (   8)
................................................................................
.............................. CYCLE   14 ......................................
................................................................................
   1    -41.1010590 -0.411011E+02  0.159E-01    9.24       0.0  T
   2    -41.1010678 -0.881246E-05  0.121E-01    9.25       1.0  T
   3    -41.1010751 -0.736827E-05  0.213E-02    9.25       1.1  T
   4    -41.1010763 -0.115303E-05  0.787E-03    9.25       2.9  T
   5    -41.1010764 -0.720036E-07  0.216E-03    9.25      10.6  T
   6    -41.1010764 -0.349520E-08  0.130E-03    9.25      17.6  T
speedup  1.08
cpu  time for SCC    0.00 s
wall time for SCC    0.00 s
speedup  1.02
cpu  time for grad    0.01 s
wall time for grad    0.01 s
 E :    -40.90874055  G :  0.013312    pred/act E change: -0.386D-03 -0.238D-03
Maxdispl :   0.0922   ||displ|| :   0.1718   Lambda : -0.362D-03
Largest |displ|/coords:  0.0922 (   2)  0.0596 (   8)  0.0524 (   4)
................................................................................
.............................. CYCLE   15 ......................................
................................................................................
   1    -41.1005373 -0.411005E+02  0.126E-01    9.20       0.0  T
   2    -41.1005462 -0.887900E-05  0.938E-02    9.20       1.0  T
   3    -41.1005510 -0.482734E-05  0.192E-02    9.21       1.2  T
   4    -41.1005523 -0.126695E-05  0.572E-03    9.21       4.0  T
   5    -41.1005524 -0.396998E-07  0.201E-03    9.21      11.4  T
   6    -41.1005524 -0.415556E-08  0.106E-03    9.21      21.7  T
speedup  0.79
cpu  time for SCC    0.00 s
wall time for SCC    0.00 s
speedup  0.91
cpu  time for grad    0.01 s
wall time for grad    0.01 s
 E :    -40.90889894  G :  0.012705    pred/act E change: -0.310D-03 -0.158D-03
Maxdispl :   0.0477   ||displ|| :   0.1127   Lambda : -0.278D-03
Largest |displ|/coords:  0.0477 (   4)  0.0353 (   5)  0.0344 (  14)
................................................................................
.............................. CYCLE   16 ......................................
................................................................................
   1    -41.1037747 -0.411038E+02  0.669E-02    9.27       0.0  T
   2    -41.1037791 -0.436211E-05  0.498E-02    9.27       1.0  T
   3    -41.1037817 -0.258476E-05  0.142E-02    9.27       1.6  T
   4    -41.1037821 -0.419729E-06  0.560E-03    9.27       4.1  T
   5    -41.1037821 -0.426126E-07  0.136E-03    9.27      16.8  T
   6    -41.1037821 -0.181951E-08  0.740E-04    9.27      31.0  T
speedup  1.08
cpu  time for SCC    0.00 s
wall time for SCC    0.00 s
speedup  1.02
cpu  time for grad    0.01 s
wall time for grad    0.01 s
 E :    -40.90902648  G :  0.012347    pred/act E change: -0.186D-03 -0.128D-03
Maxdispl :   0.1227   ||displ|| :   0.2807   Lambda : -0.486D-03
Largest |displ|/coords:  0.1227 (   7)  0.1024 (  10)  0.0838 (  17)
................................................................................
.............................. CYCLE   17 ......................................
................................................................................
   1    -41.1006409 -0.411006E+02  0.203E-01    9.29       0.0  T
   2    -41.1006642 -0.233632E-04  0.154E-01    9.29       1.0  T
   3    -41.1006805 -0.162657E-04  0.323E-02    9.29       1.0  T
   4    -41.1006838 -0.332342E-05  0.123E-02    9.29       1.9  T
   5    -41.1006840 -0.207595E-06  0.377E-03    9.29       6.1  T
   6    -41.1006840 -0.128025E-07  0.220E-03    9.29      10.4  T
   7    -41.1006841 -0.551918E-08  0.454E-04    9.29      50.5  T
speedup  0.91
cpu  time for SCC    0.00 s
wall time for SCC    0.00 s
speedup  0.95
cpu  time for grad    0.01 s
wall time for grad    0.01 s
 E :    -40.90933157  G :  0.014046    pred/act E change: -0.141D-03 -0.305D-03
Maxdispl :   0.1210   ||displ|| :   0.3295   Lambda : -0.666D-03
Largest |displ|/coords:  0.1210 (   8)  0.1080 (   7)  0.1067 (   5)
................................................................................
.............................. CYCLE   18 ......................................
................................................................................
   1    -41.1009409 -0.411009E+02  0.244E-01    9.33       0.0  T
   2    -41.1009836 -0.427358E-04  0.186E-01    9.33       1.0  T
   3    -41.1010165 -0.329330E-04  0.453E-02    9.32       1.0  T
   4    -41.1010220 -0.552330E-05  0.175E-02    9.32       1.3  T
   5    -41.1010224 -0.368323E-06  0.518E-03    9.32       4.4  T
   6    -41.1010224 -0.294494E-07  0.299E-03    9.32       7.7  T
   7    -41.1010225 -0.109442E-07  0.700E-04    9.32      32.8  T
speedup  1.11
cpu  time for SCC    0.01 s
wall time for SCC    0.00 s
speedup  1.05
cpu  time for grad    0.01 s
wall time for grad    0.01 s
 E :    -40.90981812  G :  0.018646    pred/act E change: -0.262D-03 -0.487D-03
Maxdispl :   0.1769   ||displ|| :   0.4398   Lambda : -0.108D-02
Largest |displ|/coords:  0.1769 (   7)  0.1476 (   8)  0.1443 (  17)
................................................................................
.............................. CYCLE   19 ......................................
................................................................................
   1    -41.1022666 -0.411023E+02  0.318E-01    9.20       0.0  T
   2    -41.1023917 -0.125049E-03  0.238E-01    9.20       1.0  T
   3    -41.1024672 -0.755112E-04  0.717E-02    9.20       1.0  T
   4    -41.1024823 -0.150858E-04  0.212E-02    9.20       1.1  T
   5    -41.1024827 -0.443411E-06  0.774E-03    9.20       3.0  T
   6    -41.1024828 -0.662358E-07  0.396E-03    9.20       5.8  T
   7    -41.1024828 -0.103140E-07  0.105E-03    9.20      21.8  T
   8    -41.1024828 -0.193262E-08  0.241E-04    9.20      95.2  T
speedup  1.04
cpu  time for SCC    0.00 s
wall time for SCC    0.00 s
speedup  1.01
cpu  time for grad    0.01 s
wall time for grad    0.01 s
 E :    -40.91053645  G :  0.026910    pred/act E change: -0.369D-03 -0.718D-03
Maxdispl :   0.1261   ||displ|| :   0.3437   Lambda : -0.162D-02
Largest |displ|/coords:  0.1261 (  20)  0.1254 (   1)  0.1220 (  17)
................................................................................
.............................. CYCLE   20 ......................................
................................................................................
   1    -41.1134670 -0.411135E+02  0.265E-01    9.21       0.0  T
   2    -41.1135779 -0.110954E-03  0.195E-01    9.21       1.0  T
   3    -41.1136374 -0.595173E-04  0.664E-02    9.21       1.0  T
   4    -41.1136473 -0.989240E-05  0.191E-02    9.21       1.2  T
   5    -41.1136477 -0.372303E-06  0.655E-03    9.21       3.5  T
   6    -41.1136477 -0.282319E-07  0.310E-03    9.21       7.4  T
   7    -41.1136477 -0.590798E-08  0.916E-04    9.21      25.0  T
speedup  1.16
cpu  time for SCC    0.00 s
wall time for SCC    0.00 s
speedup  1.06
cpu  time for grad    0.01 s
wall time for grad    0.01 s
 E :    -40.91141543  G :  0.031857    pred/act E change: -0.645D-03 -0.879D-03
Maxdispl :   0.1811   ||displ|| :   0.3223   Lambda : -0.236D-02
Largest |displ|/coords:  0.1811 (   5)  0.1164 (   3)  0.1073 (  16)
................................................................................
.............................. CYCLE   21 ......................................
................................................................................
   1    -41.1142477 -0.411142E+02  0.223E-01    9.03       0.0  T
   2    -41.1143120 -0.643294E-04  0.163E-01    9.04       1.0  T
   3    -41.1143452 -0.332078E-04  0.489E-02    9.04       1.0  T
   4    -41.1143510 -0.581533E-05  0.141E-02    9.04       1.6  T
   5    -41.1143512 -0.178129E-06  0.464E-03    9.04       4.9  T
   6    -41.1143512 -0.192763E-07  0.222E-03    9.04      10.3  T
speedup  1.08
cpu  time for SCC    0.00 s
wall time for SCC    0.00 s
speedup  1.02
cpu  time for grad    0.01 s
wall time for grad    0.01 s
 E :    -40.91262130  G :  0.034290    pred/act E change: -0.908D-03 -0.121D-02
Maxdispl :   0.1614   ||displ|| :   0.3811   Lambda : -0.269D-02
Largest |displ|/coords:  0.1614 (   2)  0.1243 (  17)  0.1213 (   4)
................................................................................
.............................. CYCLE   22 ......................................
................................................................................
   1    -41.1090879 -0.411091E+02  0.311E-01    9.14       0.0  T
   2    -41.1091300 -0.420689E-04  0.234E-01    9.14       1.0  T
   3    -41.1091587 -0.287043E-04  0.432E-02    9.13       1.0  T
   4    -41.1091643 -0.560580E-05  0.167E-02    9.14       1.4  T
   5    -41.1091646 -0.310444E-06  0.540E-03    9.13       4.3  T
   6    -41.1091646 -0.242933E-07  0.309E-03    9.14       7.4  T
speedup  1.08
cpu  time for SCC    0.00 s
wall time for SCC    0.00 s
speedup  1.02
cpu  time for grad    0.01 s
wall time for grad    0.01 s
 E :    -40.91347333  G :  0.030520    pred/act E change: -0.130D-02 -0.852D-03
Maxdispl :   0.0768   ||displ|| :   0.2081   Lambda : -0.222D-02
Largest |displ|/coords:  0.0768 (   5)  0.0598 (  11)  0.0592 (  18)
................................................................................
.............................. CYCLE   23 ......................................
................................................................................
   1    -41.1134475 -0.411134E+02  0.220E-01    9.39       0.0  T
   2    -41.1134741 -0.266445E-04  0.164E-01    9.38       1.0  T
   3    -41.1134904 -0.163014E-04  0.353E-02    9.36       1.0  T
   4    -41.1134937 -0.330165E-05  0.139E-02    9.37       1.6  T
   5    -41.1134939 -0.179225E-06  0.321E-03    9.37       7.1  T
   6    -41.1134939 -0.998693E-08  0.198E-03    9.37      11.6  T
speedup  0.81
cpu  time for SCC    0.00 s
wall time for SCC    0.00 s
speedup  1.02
cpu  time for grad    0.01 s
wall time for grad    0.01 s
 E :    -40.91402187  G :  0.025885    pred/act E change: -0.154D-02 -0.549D-03
Maxdispl :   0.1429   ||displ|| :   0.2412   Lambda : -0.170D-02
Largest |displ|/coords:  0.1429 (   1)  0.0808 (  10)  0.0639 (   5)
................................................................................
.............................. CYCLE   24 ......................................
................................................................................
   1    -41.1135946 -0.411136E+02  0.176E-01    9.26       0.0  T
   2    -41.1136107 -0.161050E-04  0.130E-01    9.26       1.0  T
   3    -41.1136226 -0.119325E-04  0.315E-02    9.25       1.0  T
   4    -41.1136243 -0.160797E-05  0.810E-03    9.25       2.8  T
   5    -41.1136243 -0.817083E-07  0.317E-03    9.25       7.2  T
   6    -41.1136243 -0.118999E-07  0.159E-03    9.25      14.4  T
speedup  1.08
cpu  time for SCC    0.00 s
wall time for SCC    0.00 s
speedup  1.02
cpu  time for grad    0.01 s
wall time for grad    0.01 s
 E :    -40.91454555  G :  0.014602    pred/act E change: -0.116D-02 -0.524D-03
Maxdispl :   0.1024   ||displ|| :   0.2794   Lambda : -0.134D-02
Largest |displ|/coords:  0.1024 (  10)  0.0917 (   8)  0.0878 (  19)
................................................................................
.............................. CYCLE   25 ......................................
................................................................................
   1    -41.1108237 -0.411108E+02  0.233E-01    9.29       0.0  T
   2    -41.1108825 -0.588189E-04  0.173E-01    9.29       1.0  T
   3    -41.1109199 -0.374210E-04  0.534E-02    9.28       1.0  T
   4    -41.1109262 -0.625424E-05  0.127E-02    9.29       1.8  T
   5    -41.1109264 -0.275700E-06  0.536E-03    9.29       4.3  T
   6    -41.1109265 -0.235124E-07  0.227E-03    9.29      10.1  T
   7    -41.1109265 -0.862973E-08  0.705E-04    9.29      32.5  T
speedup  1.04
cpu  time for SCC    0.00 s
wall time for SCC    0.00 s
speedup  0.98
cpu  time for grad    0.01 s
wall time for grad    0.01 s
 E :    -40.91405486  G :  0.028655    pred/act E change: -0.902D-03  0.491D-03
Maxdispl :   0.0813   ||displ|| :   0.2269   Lambda : -0.187D-02
Largest |displ|/coords:  0.0813 (  17)  0.0741 (   7)  0.0614 (   6)

generating ANC from model Hessian ...
 Shifting diagonal of input Hessian by   5.092525553013131E-003
 Lowest  eigenvalues of input Hessian
    0.005000   -0.000000    0.000000    0.000000    0.000000    0.000000
    0.000000    0.005460    0.006785    0.007004    0.008573    0.010452
    0.012664    0.013919    0.015448    0.020416    0.022914    0.025614
 Highest eigenvalues
    1.391981    1.403034    1.411109    2.592676    3.542575    3.621084
 
cpu  time for ANC gen    0.01 s
wall time for ANC gen    0.01 s
................................................................................
.............................. CYCLE   26 ......................................
................................................................................
   1    -41.1138277 -0.411138E+02  0.189E-01    9.30       0.0  T
   2    -41.1138609 -0.332720E-04  0.143E-01    9.30       1.0  T
   3    -41.1138897 -0.288062E-04  0.400E-02    9.31       1.0  T
   4    -41.1138932 -0.344184E-05  0.123E-02    9.30       1.9  T
   5    -41.1138933 -0.135750E-06  0.394E-03    9.31       5.8  T
   6    -41.1138933 -0.102317E-07  0.200E-03    9.31      11.5  T
   7    -41.1138933 -0.385250E-08  0.638E-04    9.31      36.0  T
   8    -41.1138933 -0.525070E-09  0.154E-04    9.31     148.7  T
speedup  0.96
cpu  time for SCC    0.00 s
wall time for SCC    0.01 s
speedup  0.93
cpu  time for grad    0.01 s
wall time for grad    0.01 s
 E :    -40.91493113  G :  0.012488    pred/act E change:  0.000D+00 -0.876D-03
Maxdispl :   0.1009   ||displ|| :   0.1926   Lambda : -0.578D-03
Largest |displ|/coords:  0.1009 (   1)  0.0978 (   3)  0.0748 (   5)
................................................................................
.............................. CYCLE   27 ......................................
................................................................................
   1    -41.1130866 -0.411131E+02  0.103E-01    9.29       0.0  T
   2    -41.1130927 -0.616670E-05  0.764E-02    9.29       1.0  T
   3    -41.1130951 -0.233859E-05  0.161E-02    9.29       1.4  T
   4    -41.1130960 -0.919214E-06  0.323E-03    9.29       7.1  T
   5    -41.1130960 -0.969303E-08  0.125E-03    9.29      18.3  T
   6    -41.1130960 -0.131951E-08  0.685E-04    9.29      33.5  T
speedup  1.03
cpu  time for SCC    0.00 s
wall time for SCC    0.00 s
speedup  1.00
cpu  time for grad    0.01 s
wall time for grad    0.01 s
 E :    -40.91523042  G :  0.005999    pred/act E change:  0.000D+00 -0.299D-03
Maxdispl :   0.1593   ||displ|| :   0.1900   Lambda : -0.309D-03
Largest |displ|/coords:  0.1593 (   1)  0.0469 (   5)  0.0426 (   8)
................................................................................
.............................. CYCLE   28 ......................................
................................................................................
   1    -41.1123490 -0.411123E+02  0.122E-01    9.28       0.0  T
   2    -41.1123537 -0.476633E-05  0.916E-02    9.28       1.0  T
   3    -41.1123557 -0.194678E-05  0.157E-02    9.28       1.5  T
   4    -41.1123566 -0.877503E-06  0.453E-03    9.28       5.1  T
   5    -41.1123566 -0.191887E-07  0.141E-03    9.28      16.3  T
   6    -41.1123566 -0.181536E-08  0.809E-04    9.28      28.4  T
speedup  1.05
cpu  time for SCC    0.00 s
wall time for SCC    0.00 s
speedup  1.01
cpu  time for grad    0.01 s
wall time for grad    0.01 s
 E :    -40.91535668  G :  0.005231    pred/act E change: -0.299D-03 -0.126D-03
Maxdispl :   0.0379   ||displ|| :   0.0506   Lambda : -0.727D-04
Largest |displ|/coords:  0.0379 (   1)  0.0191 (   5)  0.0113 (  15)
................................................................................
.............................. CYCLE   29 ......................................
................................................................................
   1    -41.1126647 -0.411127E+02  0.389E-02    9.28       0.0  T
   2    -41.1126650 -0.266108E-06  0.292E-02    9.28       1.0  T
   3    -41.1126652 -0.197233E-06  0.405E-03    9.28       5.7  T
   4    -41.1126652 -0.378303E-07  0.141E-03    9.28      16.3  T
   5    -41.1126652 -0.130604E-08  0.351E-04    9.28      65.4  T
speedup  0.94
cpu  time for SCC    0.00 s
wall time for SCC    0.00 s
speedup  0.98
cpu  time for grad    0.01 s
wall time for grad    0.01 s
 E :    -40.91541419  G :  0.003254    pred/act E change: -0.160D-03 -0.575D-04
Maxdispl :   0.1555   ||displ|| :   0.1684   Lambda : -0.109D-03
Largest |displ|/coords:  0.1555 (   1)  0.0274 (   3)  0.0230 (  15)
................................................................................
.............................. CYCLE   30 ......................................
................................................................................
   1    -41.1125443 -0.411125E+02  0.121E-01    9.28       0.0  T
   2    -41.1125458 -0.147506E-05  0.913E-02    9.28       1.0  T
   3    -41.1125472 -0.142507E-05  0.101E-02    9.28       2.3  T
   4    -41.1125474 -0.159108E-06  0.361E-03    9.28       6.3  T
   5    -41.1125474 -0.830013E-08  0.102E-03    9.28      22.6  T
   6    -41.1125474 -0.835172E-09  0.626E-04    9.28      36.6  T
   7    -41.1125474 -0.368871E-09  0.151E-04    9.28     152.3  T
speedup  0.93
cpu  time for SCC    0.00 s
wall time for SCC    0.00 s
speedup  1.03
cpu  time for grad    0.01 s
wall time for grad    0.01 s
 E :    -40.91548320  G :  0.002584    pred/act E change: -0.365D-04 -0.690D-04
Maxdispl :   0.1096   ||displ|| :   0.1162   Lambda : -0.316D-04
Largest |displ|/coords:  0.1096 (   1)  0.0160 (   2)  0.0131 (   4)
................................................................................
.............................. CYCLE   31 ......................................
................................................................................
   1    -41.1124023 -0.411124E+02  0.810E-02    9.28       0.0  T
   2    -41.1124027 -0.462715E-06  0.610E-02    9.28       1.0  T
   3    -41.1124033 -0.526822E-06  0.513E-03    9.28       4.5  T
   4    -41.1124033 -0.365906E-07  0.173E-03    9.28      13.3  T
   5    -41.1124033 -0.240993E-08  0.658E-04    9.28      34.9  T
   6    -41.1124033 -0.396469E-09  0.364E-04    9.28      63.0  T
speedup  1.05
cpu  time for SCC    0.00 s
wall time for SCC    0.00 s
speedup  0.97
cpu  time for grad    0.01 s
wall time for grad    0.01 s
 E :    -40.91550626  G :  0.002984    pred/act E change: -0.560D-04 -0.231D-04
Maxdispl :   0.1169   ||displ|| :   0.1284   Lambda : -0.300D-04
Largest |displ|/coords:  0.1169 (   1)  0.0365 (   2)  0.0185 (   4)
................................................................................
.............................. CYCLE   32 ......................................
................................................................................
   1    -41.1124645 -0.411125E+02  0.866E-02    9.29       0.0  T
   2    -41.1124650 -0.436619E-06  0.653E-02    9.29       1.0  T
   3    -41.1124655 -0.491095E-06  0.429E-03    9.29       5.3  T
   4    -41.1124655 -0.355456E-07  0.190E-03    9.29      12.1  T
   5    -41.1124655 -0.250768E-08  0.616E-04    9.29      37.2  T
   6    -41.1124655 -0.344222E-09  0.319E-04    9.29      71.9  T
speedup  1.05
cpu  time for SCC    0.00 s
wall time for SCC    0.00 s
speedup  0.98
cpu  time for grad    0.01 s
wall time for grad    0.01 s
 E :    -40.91552735  G :  0.002288    pred/act E change: -0.160D-04 -0.211D-04
Maxdispl :   0.1137   ||displ|| :   0.1342   Lambda : -0.244D-04
Largest |displ|/coords:  0.1137 (   1)  0.0594 (   2)  0.0194 (   4)
................................................................................
.............................. CYCLE   33 ......................................
................................................................................
   1    -41.1123646 -0.411124E+02  0.904E-02    9.30       0.0  T
   2    -41.1123652 -0.546466E-06  0.682E-02    9.30       1.0  T
   3    -41.1123658 -0.587622E-06  0.468E-03    9.30       4.9  T
   4    -41.1123658 -0.529831E-07  0.224E-03    9.30      10.3  T
   5    -41.1123658 -0.387779E-08  0.692E-04    9.30      33.2  T
   6    -41.1123658 -0.429658E-09  0.384E-04    9.30      59.8  T
speedup  1.05
cpu  time for SCC    0.00 s
wall time for SCC    0.00 s
speedup  1.08
cpu  time for grad    0.01 s
wall time for grad    0.01 s
 E :    -40.91554474  G :  0.002428    pred/act E change: -0.152D-04 -0.174D-04
Maxdispl :   0.1170   ||displ|| :   0.1739   Lambda : -0.361D-04
Largest |displ|/coords:  0.1170 (   2)  0.1167 (   1)  0.0249 (   3)
................................................................................
.............................. CYCLE   34 ......................................
................................................................................
   1    -41.1128473 -0.411128E+02  0.104E-01    9.31       0.0  T
   2    -41.1128480 -0.690829E-06  0.786E-02    9.31       1.0  T
   3    -41.1128486 -0.596386E-06  0.657E-03    9.30       3.5  T
   4    -41.1128486 -0.854608E-07  0.306E-03    9.30       7.5  T
   5    -41.1128486 -0.539093E-08  0.732E-04    9.30      31.3  T
   6    -41.1128486 -0.438540E-09  0.475E-04    9.30      48.3  T
speedup  0.79
cpu  time for SCC    0.00 s
wall time for SCC    0.00 s
speedup  0.97
cpu  time for grad    0.01 s
wall time for grad    0.01 s
 E :    -40.91556613  G :  0.003084    pred/act E change: -0.124D-04 -0.214D-04
Maxdispl :   0.1482   ||displ|| :   0.2158   Lambda : -0.332D-04
Largest |displ|/coords:  0.1482 (   1)  0.1394 (   2)  0.0307 (   4)
................................................................................
.............................. CYCLE   35 ......................................
................................................................................
   1    -41.1120265 -0.411120E+02  0.136E-01    9.31       0.0  T
   2    -41.1120278 -0.135565E-05  0.103E-01    9.31       1.0  T
   3    -41.1120292 -0.142377E-05  0.868E-03    9.31       2.6  T
   4    -41.1120294 -0.138374E-06  0.339E-03    9.31       6.8  T
   5    -41.1120294 -0.867873E-08  0.116E-03    9.31      19.8  T
   6    -41.1120294 -0.124636E-08  0.673E-04    9.31      34.1  T
   7    -41.1120294 -0.593538E-09  0.128E-04    9.31     179.3  T
speedup  0.91
cpu  time for SCC    0.00 s
wall time for SCC    0.00 s
speedup  1.02
cpu  time for grad    0.01 s
wall time for grad    0.01 s
 E :    -40.91558437  G :  0.004480    pred/act E change: -0.186D-04 -0.182D-04
Maxdispl :   0.1184   ||displ|| :   0.1339   Lambda : -0.432D-04
Largest |displ|/coords:  0.1184 (   2)  0.0349 (   6)  0.0306 (   1)
................................................................................
.............................. CYCLE   36 ......................................
................................................................................
   1    -41.1126758 -0.411127E+02  0.597E-02    9.30       0.0  T
   2    -41.1126765 -0.644867E-06  0.443E-02    9.30       1.0  T
   3    -41.1126770 -0.489983E-06  0.713E-03    9.30       3.2  T
   4    -41.1126770 -0.743362E-07  0.163E-03    9.30      14.1  T
   5    -41.1126770 -0.285949E-08  0.662E-04    9.30      34.7  T
speedup  1.29
cpu  time for SCC    0.00 s
wall time for SCC    0.00 s
speedup  1.10
cpu  time for grad    0.01 s
wall time for grad    0.01 s
 E :    -40.91561188  G :  0.004045    pred/act E change: -0.174D-04 -0.275D-04
Maxdispl :   0.2870   ||displ|| :   0.3390   Lambda : -0.735D-04
Largest |displ|/coords:  0.2870 (   2)  0.1437 (   1)  0.0620 (   3)
................................................................................
.............................. CYCLE   37 ......................................
................................................................................
   1    -41.1116306 -0.411116E+02  0.187E-01    9.29       0.0  T
   2    -41.1116327 -0.206329E-05  0.140E-01    9.29       1.0  T
   3    -41.1116349 -0.215243E-05  0.132E-02    9.29       1.7  T
   4    -41.1116350 -0.187479E-06  0.348E-03    9.29       6.6  T
   5    -41.1116351 -0.105488E-07  0.159E-03    9.29      14.4  T
   6    -41.1116351 -0.244466E-08  0.761E-04    9.29      30.2  T
speedup  0.81
cpu  time for SCC    0.00 s
wall time for SCC    0.00 s
speedup  1.02
cpu  time for grad    0.01 s
wall time for grad    0.01 s
 E :    -40.91564401  G :  0.005356    pred/act E change: -0.220D-04 -0.321D-04
Maxdispl :   0.1283   ||displ|| :   0.1647   Lambda : -0.569D-04
Largest |displ|/coords:  0.1283 (   2)  0.0834 (   1)  0.0417 (   6)
................................................................................
.............................. CYCLE   38 ......................................
................................................................................
   1    -41.1116194 -0.411116E+02  0.777E-02    9.29       0.0  T
   2    -41.1116201 -0.715547E-06  0.582E-02    9.29       1.0  T
   3    -41.1116206 -0.569746E-06  0.675E-03    9.29       3.4  T
   4    -41.1116207 -0.973766E-07  0.172E-03    9.29      13.4  T
   5    -41.1116207 -0.341194E-08  0.777E-04    9.29      29.5  T
speedup  1.25
cpu  time for SCC    0.00 s
wall time for SCC    0.00 s
speedup  1.10
cpu  time for grad    0.01 s
wall time for grad    0.01 s
 E :    -40.91568353  G :  0.003597    pred/act E change: -0.410D-04 -0.395D-04
Maxdispl :   0.1625   ||displ|| :   0.2078   Lambda : -0.683D-04
Largest |displ|/coords:  0.1625 (   2)  0.0935 (   1)  0.0545 (   6)
................................................................................
.............................. CYCLE   39 ......................................
................................................................................
   1    -41.1129264 -0.411129E+02  0.959E-02    9.29       0.0  T
   2    -41.1129277 -0.130695E-05  0.718E-02    9.29       1.0  T
   3    -41.1129287 -0.956182E-06  0.890E-03    9.29       2.6  T
   4    -41.1129288 -0.182079E-06  0.228E-03    9.29      10.1  T
   5    -41.1129288 -0.521380E-08  0.957E-04    9.29      24.0  T
   6    -41.1129288 -0.745565E-09  0.500E-04    9.29      45.8  T
speedup  0.79
cpu  time for SCC    0.00 s
wall time for SCC    0.00 s
speedup  0.98
cpu  time for grad    0.01 s
wall time for grad    0.01 s
 E :    -40.91572243  G :  0.003519    pred/act E change: -0.292D-04 -0.389D-04
Maxdispl :   0.4691   ||displ|| :   0.6185   Lambda : -0.917D-04
Largest |displ|/coords:  0.4691 (   2)  0.3541 (   1)  0.1051 (   6)
................................................................................
.............................. CYCLE   40 ......................................
................................................................................
   1    -41.1087952 -0.411088E+02  0.315E-01    9.28       0.0  T
   2    -41.1088027 -0.756531E-05  0.236E-01    9.28       1.0  T
   3    -41.1088094 -0.667361E-05  0.220E-02    9.28       1.0  T
   4    -41.1088104 -0.963565E-06  0.671E-03    9.28       3.4  T
   5    -41.1088104 -0.379644E-07  0.309E-03    9.28       7.4  T
   6    -41.1088104 -0.861326E-08  0.154E-03    9.28      14.9  T
   7    -41.1088104 -0.310418E-08  0.313E-04    9.28      73.4  T
   8    -41.1088104 -0.162565E-09  0.897E-05    9.28     255.9  T
speedup  1.00
cpu  time for SCC    0.01 s
wall time for SCC    0.00 s
speedup  0.95
cpu  time for grad    0.01 s
wall time for grad    0.01 s
 E :    -40.91565249  G :  0.013516    pred/act E change: -0.356D-04  0.699D-04
Maxdispl :   0.1760   ||displ|| :   0.2521   Lambda : -0.290D-03
Largest |displ|/coords:  0.1760 (   2)  0.1579 (   1)  0.0508 (   4)
................................................................................
.............................. CYCLE   41 ......................................
................................................................................
   1    -41.1128066 -0.411128E+02  0.146E-01    9.29       0.0  T
   2    -41.1128103 -0.373170E-05  0.110E-01    9.29       1.0  T
   3    -41.1128127 -0.235918E-05  0.144E-02    9.30       1.6  T
   4    -41.1128133 -0.575977E-06  0.384E-03    9.30       6.0  T
   5    -41.1128133 -0.183219E-07  0.164E-03    9.30      14.0  T
   6    -41.1128133 -0.157302E-08  0.897E-04    9.30      25.6  T
speedup  1.05
cpu  time for SCC    0.00 s
wall time for SCC    0.00 s
speedup  1.01
cpu  time for grad    0.01 s
wall time for grad    0.01 s
 E :    -40.91577752  G :  0.002821    pred/act E change: -0.634D-04 -0.125D-03
Maxdispl :   0.0772   ||displ|| :   0.0946   Lambda : -0.260D-04
Largest |displ|/coords:  0.0772 (   2)  0.0357 (   1)  0.0196 (   6)
................................................................................
.............................. CYCLE   42 ......................................
................................................................................
   1    -41.1130070 -0.411130E+02  0.504E-02    9.30       0.0  T
   2    -41.1130071 -0.198867E-06  0.379E-02    9.30       1.0  T
   3    -41.1130074 -0.204913E-06  0.342E-03    9.30       6.7  T
   4    -41.1130074 -0.197624E-07  0.133E-03    9.30      17.3  T
   5    -41.1130074 -0.155369E-08  0.437E-04    9.30      52.5  T
   6    -41.1130074 -0.151701E-09  0.253E-04    9.30      90.6  T
speedup  1.08
cpu  time for SCC    0.00 s
wall time for SCC    0.00 s
speedup  0.99
cpu  time for grad    0.01 s
wall time for grad    0.01 s
 E :    -40.91579938  G :  0.002100    pred/act E change: -0.154D-03 -0.219D-04
Maxdispl :   0.4072   ||displ|| :   0.5065   Lambda : -0.934D-04
Largest |displ|/coords:  0.4072 (   2)  0.2151 (   1)  0.1011 (   6)
................................................................................
.............................. CYCLE   43 ......................................
................................................................................
   1    -41.1120110 -0.411120E+02  0.251E-01    9.32       0.0  T
   2    -41.1120148 -0.380789E-05  0.189E-01    9.32       1.0  T
   3    -41.1120193 -0.451322E-05  0.154E-02    9.32       1.5  T
   4    -41.1120196 -0.288862E-06  0.639E-03    9.32       3.6  T
   5    -41.1120196 -0.304708E-07  0.209E-03    9.32      11.0  T
   6    -41.1120196 -0.355238E-08  0.120E-03    9.32      19.1  T
   7    -41.1120196 -0.145470E-08  0.166E-04    9.32     138.6  T
   8    -41.1120196 -0.766676E-10  0.601E-05    9.32     381.6  T
speedup  1.02
cpu  time for SCC    0.00 s
wall time for SCC    0.00 s
speedup  1.06
cpu  time for grad    0.01 s
wall time for grad    0.01 s
 E :    -40.91585020  G :  0.006552    pred/act E change: -0.131D-04 -0.508D-04
Maxdispl :   0.0550   ||displ|| :   0.0801   Lambda : -0.399D-04
Largest |displ|/coords:  0.0550 (   2)  0.0293 (   1)  0.0241 (   3)
................................................................................
.............................. CYCLE   44 ......................................
................................................................................
   1    -41.1130030 -0.411130E+02  0.383E-02    9.32       0.0  T
   2    -41.1130033 -0.312687E-06  0.286E-02    9.32       1.0  T
   3    -41.1130036 -0.214153E-06  0.403E-03    9.32       5.7  T
   4    -41.1130036 -0.425194E-07  0.101E-03    9.32      22.8  T
   5    -41.1130036 -0.949271E-09  0.432E-04    9.32      53.1  T
speedup  0.94
cpu  time for SCC    0.00 s
wall time for SCC    0.00 s
speedup  0.96
cpu  time for grad    0.01 s
wall time for grad    0.01 s
 E :    -40.91588095  G :  0.004279    pred/act E change: -0.587D-04 -0.307D-04
Maxdispl :   0.3134   ||displ|| :   0.3955   Lambda : -0.774D-04
Largest |displ|/coords:  0.3134 (   2)  0.1427 (   1)  0.0816 (   6)
................................................................................
.............................. CYCLE   45 ......................................
................................................................................
   1    -41.1132826 -0.411133E+02  0.190E-01    9.32       0.0  T
   2    -41.1132850 -0.235401E-05  0.142E-01    9.32       1.0  T
   3    -41.1132874 -0.247899E-05  0.129E-02    9.32       1.8  T
   4    -41.1132876 -0.203736E-06  0.365E-03    9.32       6.3  T
   5    -41.1132877 -0.120717E-07  0.159E-03    9.32      14.5  T
   6    -41.1132877 -0.253803E-08  0.893E-04    9.32      25.7  T
speedup  0.81
cpu  time for SCC    0.00 s
wall time for SCC    0.00 s
speedup  1.01
cpu  time for grad    0.01 s
wall time for grad    0.01 s
 E :    -40.91593886  G :  0.004318    pred/act E change: -0.201D-04 -0.579D-04
Maxdispl :   0.3346   ||displ|| :   0.4831   Lambda : -0.127D-03
Largest |displ|/coords:  0.3346 (   2)  0.1920 (   1)  0.1320 (   7)
................................................................................
.............................. CYCLE   46 ......................................
................................................................................
   1    -41.1142097 -0.411142E+02  0.233E-01    9.29       0.0  T
   2    -41.1142145 -0.484231E-05  0.175E-01    9.30       1.0  T
   3    -41.1142198 -0.530045E-05  0.183E-02    9.30       1.3  T
   4    -41.1142202 -0.421567E-06  0.622E-03    9.30       3.7  T
   5    -41.1142203 -0.350156E-07  0.231E-03    9.30       9.9  T
   6    -41.1142203 -0.512383E-08  0.139E-03    9.30      16.5  T
speedup  1.08
cpu  time for SCC    0.00 s
wall time for SCC    0.00 s
speedup  0.99
cpu  time for grad    0.01 s
wall time for grad    0.01 s
 E :    -40.91601550  G :  0.006834    pred/act E change: -0.447D-04 -0.766D-04
Maxdispl :   0.4220   ||displ|| :   0.5568   Lambda : -0.126D-03
Largest |displ|/coords:  0.4220 (   2)  0.1753 (   1)  0.1329 (   7)
................................................................................
.............................. CYCLE   47 ......................................
................................................................................
   1    -41.1113401 -0.411113E+02  0.271E-01    9.25       0.0  T
   2    -41.1113454 -0.522359E-05  0.202E-01    9.26       1.0  T
   3    -41.1113505 -0.514006E-05  0.219E-02    9.26       1.0  T
   4    -41.1113510 -0.474981E-06  0.658E-03    9.26       3.5  T
   5    -41.1113510 -0.397104E-07  0.227E-03    9.26      10.1  T
   6    -41.1113510 -0.482311E-08  0.139E-03    9.26      16.5  T
speedup  1.05
cpu  time for SCC    0.00 s
wall time for SCC    0.00 s
speedup  1.00
cpu  time for grad    0.01 s
wall time for grad    0.01 s
 E :    -40.91606584  G :  0.010158    pred/act E change: -0.785D-04 -0.503D-04
Maxdispl :   0.1498   ||displ|| :   0.3269   Lambda : -0.420D-03
Largest |displ|/coords:  0.1498 (   2)  0.1257 (   7)  0.1029 (   8)
................................................................................
.............................. CYCLE   48 ......................................
................................................................................
   1    -41.1159742 -0.411160E+02  0.194E-01    9.20       0.0  T
   2    -41.1159896 -0.154714E-04  0.141E-01    9.20       1.0  T
   3    -41.1159983 -0.862327E-05  0.332E-02    9.21       1.0  T
   4    -41.1159997 -0.144403E-05  0.103E-02    9.21       2.2  T
   5    -41.1159998 -0.141293E-06  0.257E-03    9.21       8.9  T
   6    -41.1159998 -0.536352E-08  0.162E-03    9.21      14.2  T
speedup  1.05
cpu  time for SCC    0.00 s
wall time for SCC    0.00 s
speedup  1.00
cpu  time for grad    0.01 s
wall time for grad    0.01 s
 E :    -40.91592095  G :  0.021968    pred/act E change: -0.825D-04  0.145D-03
Maxdispl :   0.1447   ||displ|| :   0.1684   Lambda : -0.635D-03
Largest |displ|/coords:  0.1447 (   1)  0.0468 (   3)  0.0421 (   2)
................................................................................
.............................. CYCLE   49 ......................................
................................................................................
   1    -41.1141854 -0.411142E+02  0.108E-01    9.25       0.0  T
   2    -41.1141922 -0.677720E-05  0.805E-02    9.24       1.0  T
   3    -41.1141962 -0.406399E-05  0.189E-02    9.24       1.2  T
   4    -41.1141970 -0.763244E-06  0.551E-03    9.24       4.2  T
   5    -41.1141971 -0.622373E-07  0.175E-03    9.24      13.1  T
speedup  0.94
cpu  time for SCC    0.00 s
wall time for SCC    0.00 s
speedup  0.96
cpu  time for grad    0.01 s
wall time for grad    0.01 s
 E :    -40.91626435  G :  0.010099    pred/act E change: -0.233D-03 -0.343D-03
Maxdispl :   0.1550   ||displ|| :   0.2655   Lambda : -0.360D-03
Largest |displ|/coords:  0.1550 (   2)  0.1387 (   1)  0.0865 (   6)
................................................................................
.............................. CYCLE   50 ......................................
................................................................................
   1    -41.1121814 -0.411122E+02  0.146E-01    9.27       0.0  T
   2    -41.1121930 -0.115439E-04  0.109E-01    9.27       1.0  T
   3    -41.1122006 -0.762370E-05  0.233E-02    9.27       1.0  T
   4    -41.1122021 -0.148278E-05  0.670E-03    9.27       3.4  T
   5    -41.1122022 -0.617182E-07  0.261E-03    9.27       8.8  T
   6    -41.1122022 -0.527339E-08  0.141E-03    9.27      16.3  T
speedup  1.05
cpu  time for SCC    0.00 s
wall time for SCC    0.00 s
speedup  1.00
cpu  time for grad    0.01 s
wall time for grad    0.01 s
 E :    -40.91611164  G :  0.021188    pred/act E change: -0.326D-03  0.153D-03
Maxdispl :   0.0747   ||displ|| :   0.1519   Lambda : -0.616D-03
Largest |displ|/coords:  0.0747 (   3)  0.0613 (   7)  0.0574 (   4)
................................................................................
.............................. CYCLE   51 ......................................
................................................................................
   1    -41.1132977 -0.411133E+02  0.126E-01    9.24       0.0  T
   2    -41.1133019 -0.416669E-05  0.936E-02    9.24       1.0  T
   3    -41.1133050 -0.314737E-05  0.158E-02    9.24       1.5  T
   4    -41.1133055 -0.501512E-06  0.397E-03    9.24       5.8  T
   5    -41.1133055 -0.160742E-07  0.180E-03    9.24      12.7  T
speedup  0.94
cpu  time for SCC    0.00 s
wall time for SCC    0.00 s
speedup  1.08
cpu  time for grad    0.01 s
wall time for grad    0.01 s
 E :    -40.91646055  G :  0.009553    pred/act E change: -0.193D-03 -0.349D-03
Maxdispl :   0.0358   ||displ|| :   0.0893   Lambda : -0.197D-03
Largest |displ|/coords:  0.0358 (   2)  0.0324 (   6)  0.0307 (   4)
................................................................................
.............................. CYCLE   52 ......................................
................................................................................
   1    -41.1163518 -0.411164E+02  0.639E-02    9.28       0.0  T
   2    -41.1163535 -0.169327E-05  0.477E-02    9.28       1.0  T
   3    -41.1163547 -0.118874E-05  0.103E-02    9.28       2.2  T
   4    -41.1163549 -0.195717E-06  0.337E-03    9.28       6.8  T
   5    -41.1163549 -0.175220E-07  0.103E-03    9.28      22.3  T
   6    -41.1163549 -0.109774E-08  0.560E-04    9.28      41.0  T
speedup  1.05
cpu  time for SCC    0.00 s
wall time for SCC    0.00 s
speedup  1.00
cpu  time for grad    0.01 s
wall time for grad    0.01 s
 E :    -40.91655683  G :  0.008477    pred/act E change: -0.315D-03 -0.963D-04
Maxdispl :   0.2976   ||displ|| :   0.6379   Lambda : -0.415D-03
Largest |displ|/coords:  0.2976 (   2)  0.2092 (   3)  0.1957 (   7)

generating ANC from model Hessian ...
 Shifting diagonal of input Hessian by   4.876208298587787E-003
 Lowest  eigenvalues of input Hessian
   -0.000000   -0.000000   -0.000000    0.000000    0.000000    0.000000
    0.005000    0.005549    0.005707    0.006491    0.007218    0.008884
    0.011419    0.013379    0.015178    0.019286    0.020864    0.023657
 Highest eigenvalues
    1.394176    1.400322    1.400865    2.534405    3.468838    3.603726
 
cpu  time for ANC gen    0.01 s
wall time for ANC gen    0.01 s
................................................................................
.............................. CYCLE   53 ......................................
................................................................................
   1    -41.1130262 -0.411130E+02  0.388E-01    9.19       0.0  T
   2    -41.1130394 -0.131867E-04  0.290E-01    9.19       1.0  T
   3    -41.1130556 -0.162329E-04  0.353E-02    9.19       1.0  T
   4    -41.1130563 -0.735380E-06  0.724E-03    9.19       3.2  T
   5    -41.1130564 -0.745656E-07  0.376E-03    9.19       6.1  T
   6    -41.1130564 -0.223497E-07  0.219E-03    9.19      10.5  T
   7    -41.1130565 -0.119092E-07  0.598E-04    9.19      38.3  T
   8    -41.1130565 -0.128821E-08  0.331E-04    9.19      69.3  T
speedup  0.98
cpu  time for SCC    0.00 s
wall time for SCC    0.01 s
speedup  1.04
cpu  time for grad    0.01 s
wall time for grad    0.01 s
 E :    -40.91680484  G :  0.015833    pred/act E change:  0.000D+00 -0.248D-03
Maxdispl :   0.1363   ||displ|| :   0.1718   Lambda : -0.508D-03
Largest |displ|/coords:  0.1363 (   4)  0.0586 (   5)  0.0483 (   3)
................................................................................
.............................. CYCLE   54 ......................................
................................................................................
   1    -41.1147707 -0.411148E+02  0.180E-01    9.22       0.0  T
   2    -41.1147741 -0.334918E-05  0.136E-01    9.22       1.0  T
   3    -41.1147779 -0.384344E-05  0.108E-02    9.23       2.1  T
   4    -41.1147781 -0.235541E-06  0.451E-03    9.23       5.1  T
   5    -41.1147781 -0.127259E-07  0.135E-03    9.23      16.9  T
   6    -41.1147781 -0.814936E-09  0.609E-04    9.23      37.7  T
speedup  1.05
cpu  time for SCC    0.00 s
wall time for SCC    0.00 s
speedup  1.00
cpu  time for grad    0.01 s
wall time for grad    0.01 s
 E :    -40.91715269  G :  0.008309    pred/act E change:  0.000D+00 -0.348D-03
Maxdispl :   0.1728   ||displ|| :   0.2208   Lambda : -0.405D-03
Largest |displ|/coords:  0.1728 (   4)  0.0738 (   7)  0.0504 (   8)
................................................................................
.............................. CYCLE   55 ......................................
................................................................................
   1    -41.1164086 -0.411164E+02  0.199E-01    9.25       0.0  T
   2    -41.1164119 -0.335010E-05  0.150E-01    9.25       1.0  T
   3    -41.1164159 -0.396719E-05  0.102E-02    9.25       2.2  T
   4    -41.1164161 -0.207964E-06  0.438E-03    9.25       5.2  T
   5    -41.1164161 -0.148067E-07  0.151E-03    9.25      15.2  T
   6    -41.1164161 -0.121079E-08  0.709E-04    9.25      32.4  T
speedup  0.79
cpu  time for SCC    0.00 s
wall time for SCC    0.00 s
speedup  0.98
cpu  time for grad    0.01 s
wall time for grad    0.01 s
 E :    -40.91744182  G :  0.004866    pred/act E change: -0.261D-03 -0.289D-03
Maxdispl :   0.3243   ||displ|| :   0.4135   Lambda : -0.433D-03
Largest |displ|/coords:  0.3243 (   4)  0.1512 (   5)  0.0937 (   1)
................................................................................
.............................. CYCLE   56 ......................................
................................................................................
   1    -41.1123275 -0.411123E+02  0.396E-01    9.20       0.0  T
   2    -41.1123477 -0.201689E-04  0.298E-01    9.20       1.0  T
   3    -41.1123681 -0.204123E-04  0.333E-02    9.20       1.0  T
   4    -41.1123700 -0.196413E-05  0.111E-02    9.20       2.1  T
   5    -41.1123701 -0.119451E-06  0.388E-03    9.20       5.9  T
   6    -41.1123702 -0.614517E-08  0.196E-03    9.20      11.7  T
   7    -41.1123702 -0.785667E-08  0.405E-04    9.20      56.7  T
speedup  0.91
cpu  time for SCC    0.00 s
wall time for SCC    0.00 s
speedup  1.04
cpu  time for grad    0.01 s
wall time for grad    0.01 s
 E :    -40.91741544  G :  0.026663    pred/act E change: -0.212D-03  0.264D-04
Maxdispl :   0.0853   ||displ|| :   0.1544   Lambda : -0.101D-02
Largest |displ|/coords:  0.0853 (   8)  0.0662 (   6)  0.0611 (   9)
................................................................................
.............................. CYCLE   57 ......................................
................................................................................
   1    -41.1153389 -0.411153E+02  0.187E-01    9.18       0.0  T
   2    -41.1153545 -0.155825E-04  0.141E-01    9.18       1.0  T
   3    -41.1153667 -0.121580E-04  0.260E-02    9.18       1.0  T
   4    -41.1153685 -0.186398E-05  0.698E-03    9.18       3.3  T
   5    -41.1153686 -0.614907E-07  0.283E-03    9.18       8.1  T
   6    -41.1153686 -0.455450E-08  0.147E-03    9.18      15.6  T
speedup  1.05
cpu  time for SCC    0.00 s
wall time for SCC    0.00 s
speedup  1.00
cpu  time for grad    0.01 s
wall time for grad    0.01 s
 E :    -40.91771402  G :  0.009924    pred/act E change: -0.253D-03 -0.299D-03
Maxdispl :   0.0624   ||displ|| :   0.0997   Lambda : -0.278D-03
Largest |displ|/coords:  0.0624 (   5)  0.0392 (   4)  0.0288 (   8)
................................................................................
.............................. CYCLE   58 ......................................
................................................................................
   1    -41.1162783 -0.411163E+02  0.907E-02    9.21       0.0  T
   2    -41.1162804 -0.207712E-05  0.690E-02    9.21       1.0  T
   3    -41.1162822 -0.182480E-05  0.863E-03    9.21       2.7  T
   4    -41.1162825 -0.259658E-06  0.242E-03    9.21       9.5  T
   5    -41.1162825 -0.527127E-08  0.972E-04    9.21      23.6  T
speedup  1.25
cpu  time for SCC    0.00 s
wall time for SCC    0.00 s
speedup  1.07
cpu  time for grad    0.01 s
wall time for grad    0.01 s
 E :    -40.91784767  G :  0.003875    pred/act E change: -0.518D-03 -0.134D-03
Maxdispl :   0.1407   ||displ|| :   0.1982   Lambda : -0.185D-03
Largest |displ|/coords:  0.1407 (   4)  0.0822 (   5)  0.0619 (   8)
................................................................................
.............................. CYCLE   59 ......................................
................................................................................
   1    -41.1150145 -0.411150E+02  0.184E-01    9.19       0.0  T
   2    -41.1150192 -0.474090E-05  0.139E-01    9.19       1.0  T
   3    -41.1150242 -0.491752E-05  0.182E-02    9.19       1.3  T
   4    -41.1150246 -0.436080E-06  0.539E-03    9.19       4.3  T
   5    -41.1150246 -0.265058E-07  0.169E-03    9.19      13.6  T
   6    -41.1150246 -0.168815E-08  0.935E-04    9.19      24.5  T
   7    -41.1150246 -0.160188E-08  0.248E-04    9.19      92.6  T
speedup  1.14
cpu  time for SCC    0.00 s
wall time for SCC    0.00 s
speedup  1.00
cpu  time for grad    0.01 s
wall time for grad    0.01 s
 E :    -40.91793083  G :  0.011474    pred/act E change: -0.140D-03 -0.832D-04
Maxdispl :   0.0205   ||displ|| :   0.0423   Lambda : -0.988D-04
Largest |displ|/coords:  0.0205 (   5)  0.0190 (   1)  0.0186 (   2)
................................................................................
.............................. CYCLE   60 ......................................
................................................................................
   1    -41.1163977 -0.411164E+02  0.328E-02    9.22       0.0  T
   2    -41.1163982 -0.451827E-06  0.242E-02    9.22       1.0  T
   3    -41.1163985 -0.347243E-06  0.493E-03    9.22       4.7  T
   4    -41.1163986 -0.438735E-07  0.153E-03    9.22      14.9  T
   5    -41.1163986 -0.262686E-08  0.486E-04    9.22      47.2  T
speedup  0.97
cpu  time for SCC    0.00 s
wall time for SCC    0.00 s
speedup  0.96
cpu  time for grad    0.01 s
wall time for grad    0.01 s
 E :    -40.91800464  G :  0.006015    pred/act E change: -0.962D-04 -0.738D-04
Maxdispl :   0.1548   ||displ|| :   0.2100   Lambda : -0.148D-03
Largest |displ|/coords:  0.1548 (   4)  0.0560 (   5)  0.0536 (   2)
................................................................................
.............................. CYCLE   61 ......................................
................................................................................
   1    -41.1160108 -0.411160E+02  0.188E-01    9.22       0.0  T
   2    -41.1160147 -0.397117E-05  0.141E-01    9.22       1.0  T
   3    -41.1160196 -0.487325E-05  0.164E-02    9.22       1.4  T
   4    -41.1160198 -0.207629E-06  0.425E-03    9.22       5.4  T
   5    -41.1160198 -0.183234E-07  0.152E-03    9.22      15.1  T
   6    -41.1160198 -0.218130E-08  0.888E-04    9.22      25.8  T
speedup  1.05
cpu  time for SCC    0.00 s
wall time for SCC    0.00 s
speedup  1.00
cpu  time for grad    0.01 s
wall time for grad    0.01 s
 E :    -40.91809086  G :  0.004337    pred/act E change: -0.495D-04 -0.862D-04
Maxdispl :   0.0639   ||displ|| :   0.1515   Lambda : -0.156D-03
Largest |displ|/coords:  0.0639 (   6)  0.0574 (  11)  0.0553 (   5)
................................................................................
.............................. CYCLE   62 ......................................
................................................................................
   1    -41.1187668 -0.411188E+02  0.164E-01    9.31       0.0  T
   2    -41.1187709 -0.412890E-05  0.123E-01    9.31       1.0  T
   3    -41.1187749 -0.400241E-05  0.165E-02    9.31       1.4  T
   4    -41.1187753 -0.374899E-06  0.538E-03    9.31       4.3  T
   5    -41.1187753 -0.234066E-07  0.124E-03    9.31      18.5  T
   6    -41.1187753 -0.108552E-08  0.778E-04    9.31      29.5  T
speedup  1.05
cpu  time for SCC    0.00 s
wall time for SCC    0.00 s
speedup  0.99
cpu  time for grad    0.01 s
wall time for grad    0.01 s
 E :    -40.91813770  G :  0.006576    pred/act E change: -0.774D-04 -0.468D-04
Maxdispl :   0.0685   ||displ|| :   0.1069   Lambda : -0.941D-04
Largest |displ|/coords:  0.0685 (   2)  0.0443 (   7)  0.0433 (   4)
................................................................................
.............................. CYCLE   63 ......................................
................................................................................
   1    -41.1174408 -0.411174E+02  0.877E-02    9.26       0.0  T
   2    -41.1174419 -0.111555E-05  0.662E-02    9.27       1.0  T
   3    -41.1174431 -0.119029E-05  0.767E-03    9.27       3.0  T
   4    -41.1174432 -0.961860E-07  0.316E-03    9.27       7.2  T
   5    -41.1174432 -0.748806E-08  0.733E-04    9.27      31.3  T
   6    -41.1174432 -0.374264E-09  0.475E-04    9.27      48.3  T
speedup  1.05
cpu  time for SCC    0.00 s
wall time for SCC    0.00 s
speedup  1.00
cpu  time for grad    0.01 s
wall time for grad    0.01 s
 E :    -40.91820817  G :  0.004453    pred/act E change: -0.797D-04 -0.705D-04
Maxdispl :   0.1314   ||displ|| :   0.2026   Lambda : -0.131D-03
Largest |displ|/coords:  0.1314 (   2)  0.0961 (   7)  0.0692 (   1)
................................................................................
.............................. CYCLE   64 ......................................
................................................................................
   1    -41.1164062 -0.411164E+02  0.120E-01    9.20       0.0  T
   2    -41.1164092 -0.290953E-05  0.907E-02    9.20       1.0  T
   3    -41.1164114 -0.225883E-05  0.120E-02    9.21       1.9  T
   4    -41.1164118 -0.423778E-06  0.487E-03    9.20       4.7  T
   5    -41.1164119 -0.180003E-07  0.101E-03    9.20      22.6  T
   6    -41.1164119 -0.709562E-09  0.667E-04    9.20      34.4  T
speedup  1.08
cpu  time for SCC    0.00 s
wall time for SCC    0.00 s
speedup  1.00
cpu  time for grad    0.01 s
wall time for grad    0.01 s
 E :    -40.91827015  G :  0.005508    pred/act E change: -0.476D-04 -0.620D-04
Maxdispl :   0.1228   ||displ|| :   0.2534   Lambda : -0.109D-03
Largest |displ|/coords:  0.1228 (   2)  0.1184 (   5)  0.1131 (   7)
................................................................................
.............................. CYCLE   65 ......................................
................................................................................
   1    -41.1132061 -0.411132E+02  0.230E-01    9.14       0.0  T
   2    -41.1132153 -0.922140E-05  0.174E-01    9.15       1.0  T
   3    -41.1132241 -0.880106E-05  0.225E-02    9.15       1.0  T
   4    -41.1132251 -0.947166E-06  0.752E-03    9.15       3.1  T
   5    -41.1132251 -0.575149E-07  0.219E-03    9.15      10.5  T
   6    -41.1132251 -0.278361E-08  0.129E-03    9.15      17.8  T
speedup  1.05
cpu  time for SCC    0.00 s
wall time for SCC    0.00 s
speedup  1.00
cpu  time for grad    0.01 s
wall time for grad    0.01 s
 E :    -40.91826417  G :  0.010696    pred/act E change: -0.682D-04  0.597D-05
Maxdispl :   0.0890   ||displ|| :   0.1303   Lambda : -0.166D-03
Largest |displ|/coords:  0.0890 (   4)  0.0414 (   7)  0.0404 (   2)
................................................................................
.............................. CYCLE   66 ......................................
................................................................................
   1    -41.1167798 -0.411168E+02  0.132E-01    9.25       0.0  T
   2    -41.1167826 -0.288352E-05  0.980E-02    9.25       1.0  T
   3    -41.1167853 -0.262892E-05  0.161E-02    9.25       1.4  T
   4    -41.1167855 -0.263033E-06  0.423E-03    9.25       5.4  T
[...]
speedup  0.94
cpu  time for SCC    0.00 s
wall time for SCC    0.00 s
speedup  1.03
cpu  time for grad    0.01 s
wall time for grad    0.01 s
 E :    -40.91893024  G :  0.000411    pred/act E change: -0.451D-06 -0.444D-06
Maxdispl :   0.0152   ||displ|| :   0.0253   Lambda : -0.798D-06
Largest |displ|/coords:  0.0152 (   2)  0.0148 (   7)  0.0089 (   8)
................................................................................
.............................. CYCLE  122 ......................................
................................................................................
   1    -41.1177218 -0.411177E+02  0.206E-02    9.28       0.0  T
   2    -41.1177218 -0.590686E-07  0.155E-02    9.28       1.5  T
   3    -41.1177219 -0.707496E-07  0.197E-03    9.28      11.7  T
   4    -41.1177219 -0.346006E-08  0.370E-04    9.28      62.0  T
   5    -41.1177219 -0.191164E-09  0.146E-04    9.28     156.7  T
speedup  0.97
cpu  time for SCC    0.00 s
wall time for SCC    0.00 s
speedup  1.05
cpu  time for grad    0.01 s
wall time for grad    0.01 s
 E :    -40.91893083  G :  0.000357    pred/act E change: -0.288D-06 -0.584D-06
Maxdispl :   0.0152   ||displ|| :   0.0253   Lambda : -0.721D-06
Largest |displ|/coords:  0.0152 (   2)  0.0150 (   7)  0.0076 (   8)
................................................................................
.............................. CYCLE  123 ......................................
................................................................................
   1    -41.1177828 -0.411178E+02  0.206E-02    9.28       0.0  T
   2    -41.1177829 -0.563553E-07  0.155E-02    9.28       1.5  T
   3    -41.1177829 -0.691403E-07  0.199E-03    9.28      11.5  T
   4    -41.1177829 -0.285068E-08  0.360E-04    9.28      63.7  T
   5    -41.1177829 -0.222904E-09  0.134E-04    9.28     171.2  T
speedup  0.97
cpu  time for SCC    0.00 s
wall time for SCC    0.00 s
speedup  0.93
cpu  time for grad    0.01 s
wall time for grad    0.01 s
 E :    -40.91893138  G :  0.000431    pred/act E change: -0.399D-06 -0.556D-06
Maxdispl :   0.0198   ||displ|| :   0.0324   Lambda : -0.884D-06
Largest |displ|/coords:  0.0198 (   2)  0.0184 (   7)  0.0085 (   8)
................................................................................
.............................. CYCLE  124 ......................................
................................................................................
   1    -41.1178115 -0.411178E+02  0.269E-02    9.28       0.0  T
   2    -41.1178116 -0.942104E-07  0.202E-02    9.28       1.1  T
   3    -41.1178117 -0.111306E-06  0.265E-03    9.28       8.6  T
   4    -41.1178117 -0.513727E-08  0.619E-04    9.28      37.1  T
   5    -41.1178117 -0.571170E-09  0.164E-04    9.28     140.0  T
speedup  0.97
cpu  time for SCC    0.00 s
wall time for SCC    0.00 s
speedup  1.03
cpu  time for grad    0.01 s
wall time for grad    0.01 s
 E :    -40.91893203  G :  0.000488    pred/act E change: -0.361D-06 -0.650D-06
Maxdispl :   0.0154   ||displ|| :   0.0262   Lambda : -0.711D-06
Largest |displ|/coords:  0.0154 (   2)  0.0151 (   7)  0.0058 (  25)
................................................................................
.............................. CYCLE  125 ......................................
................................................................................
   1    -41.1177888 -0.411178E+02  0.227E-02    9.28       0.0  T
   2    -41.1177889 -0.696118E-07  0.170E-02    9.28       1.3  T
   3    -41.1177890 -0.760025E-07  0.230E-03    9.28      10.0  T
   4    -41.1177890 -0.468572E-08  0.733E-04    9.28      31.3  T
   5    -41.1177890 -0.526690E-09  0.124E-04    9.28     184.4  T
speedup  0.97
cpu  time for SCC    0.00 s
wall time for SCC    0.00 s
speedup  1.05
cpu  time for grad    0.01 s
wall time for grad    0.01 s
 E :    -40.91893254  G :  0.000397    pred/act E change: -0.443D-06 -0.513D-06
Maxdispl :   0.0089   ||displ|| :   0.0161   Lambda : -0.497D-06
Largest |displ|/coords:  0.0089 (   2)  0.0084 (   7)  0.0041 (   3)
................................................................................
.............................. CYCLE  126 ......................................
................................................................................
   1    -41.1177381 -0.411177E+02  0.150E-02    9.28       0.0  T
   2    -41.1177381 -0.343073E-07  0.113E-02    9.28       2.0  T
   3    -41.1177382 -0.318334E-07  0.163E-03    9.28      14.1  T
   4    -41.1177382 -0.330147E-08  0.665E-04    9.28      34.5  T
   5    -41.1177382 -0.245358E-09  0.851E-05    9.28     269.5  T
speedup  0.97
cpu  time for SCC    0.00 s
wall time for SCC    0.00 s
speedup  0.92
cpu  time for grad    0.01 s
wall time for grad    0.01 s
 E :    -40.91893290  G :  0.000278    pred/act E change: -0.356D-06 -0.351D-06
Maxdispl :   0.0030   ||displ|| :   0.0076   Lambda : -0.373D-06
Largest |displ|/coords:  0.0030 (   7)  0.0025 (  11)  0.0024 (  20)
................................................................................
.............................. CYCLE  127 ......................................
................................................................................
   1    -41.1176886 -0.411177E+02  0.803E-03    9.28       0.0  T
   2    -41.1176886 -0.141060E-07  0.601E-03    9.28       3.8  T
   3    -41.1176886 -0.995410E-08  0.112E-03    9.28      20.5  T
   4    -41.1176886 -0.179899E-08  0.469E-04    9.28      49.0  T
   5    -41.1176886 -0.105871E-09  0.648E-05    9.28     354.0  T
speedup  0.94
cpu  time for SCC    0.00 s
wall time for SCC    0.00 s
speedup  1.03
cpu  time for grad    0.01 s
wall time for grad    0.01 s
 E :    -40.91893317  G :  0.000259    pred/act E change: -0.249D-06 -0.271D-06
Maxdispl :   0.0024   ||displ|| :   0.0065   Lambda : -0.347D-06
Largest |displ|/coords:  0.0024 (  11)  0.0024 (   3)  0.0022 (   6)
................................................................................
.............................. CYCLE  128 ......................................
................................................................................
   1    -41.1176377 -0.411176E+02  0.685E-03    9.28       0.0  T
   2    -41.1176377 -0.123485E-07  0.508E-03    9.28       4.5  T
   3    -41.1176377 -0.744319E-08  0.116E-03    9.28      19.8  T
   4    -41.1176377 -0.159524E-08  0.450E-04    9.28      51.0  T
   5    -41.1176377 -0.925695E-10  0.658E-05    9.28     348.8  T
speedup  0.94
cpu  time for SCC    0.00 s
wall time for SCC    0.00 s
speedup  1.03
cpu  time for grad    0.01 s
wall time for grad    0.01 s
 E :    -40.91893341  G :  0.000287    pred/act E change: -0.187D-06 -0.246D-06
Maxdispl :   0.0024   ||displ|| :   0.0056   Lambda : -0.261D-06
Largest |displ|/coords:  0.0024 (   6)  0.0017 (   8)  0.0016 (  26)
................................................................................
.............................. CYCLE  129 ......................................
................................................................................
   1    -41.1176162 -0.411176E+02  0.589E-03    9.28       0.0  T
   2    -41.1176162 -0.837726E-08  0.430E-03    9.28       5.3  T
   3    -41.1176162 -0.491885E-08  0.990E-04    9.28      23.2  T
   4    -41.1176162 -0.973905E-09  0.388E-04    9.28      59.2  T
speedup  0.80
cpu  time for SCC    0.00 s
wall time for SCC    0.00 s
speedup  1.00
cpu  time for grad    0.01 s
wall time for grad    0.01 s
 E :    -40.91893360  G :  0.000243    pred/act E change: -0.173D-06 -0.186D-06
Maxdispl :   0.0019   ||displ|| :   0.0044   Lambda : -0.176D-06
Largest |displ|/coords:  0.0019 (   2)  0.0017 (   8)  0.0014 (  26)
................................................................................
.............................. CYCLE  130 ......................................
................................................................................
   1    -41.1176277 -0.411176E+02  0.460E-03    9.28       0.0  T
   2    -41.1176277 -0.405231E-08  0.331E-03    9.28       6.9  T
   3    -41.1176277 -0.254955E-08  0.681E-04    9.28      33.7  T
   4    -41.1176277 -0.345935E-09  0.249E-04    9.28      92.3  T
speedup  1.20
cpu  time for SCC    0.00 s
wall time for SCC    0.00 s
speedup  1.00
cpu  time for grad    0.01 s
wall time for grad    0.01 s
 E :    -40.91893373  G :  0.000159    pred/act E change: -0.131D-06 -0.132D-06
Maxdispl :   0.0052   ||displ|| :   0.0105   Lambda : -0.168D-06
Largest |displ|/coords:  0.0052 (   8)  0.0048 (   7)  0.0033 (  25)
................................................................................
.............................. CYCLE  131 ......................................
................................................................................
   1    -41.1176206 -0.411176E+02  0.121E-02    9.28       0.0  T
   2    -41.1176206 -0.217135E-07  0.896E-03    9.28       2.6  T
   3    -41.1176206 -0.202584E-07  0.158E-03    9.28      14.6  T
   4    -41.1176206 -0.176099E-08  0.492E-04    9.28      46.6  T
   5    -41.1176206 -0.227011E-09  0.633E-05    9.28     362.3  T
speedup  0.97
cpu  time for SCC    0.00 s
wall time for SCC    0.00 s
speedup  1.05
cpu  time for grad    0.01 s
wall time for grad    0.01 s
 E :    -40.91893385  G :  0.000157    pred/act E change: -0.881D-07 -0.121D-06
Maxdispl :   0.0032   ||displ|| :   0.0068   Lambda : -0.119D-06
Largest |displ|/coords:  0.0032 (   8)  0.0025 (  25)  0.0024 (   3)
................................................................................
.............................. CYCLE  132 ......................................
................................................................................
   1    -41.1176432 -0.411176E+02  0.830E-03    9.28       0.0  T
   2    -41.1176432 -0.979009E-08  0.616E-03    9.28       3.7  T
   3    -41.1176432 -0.870394E-08  0.108E-03    9.28      21.2  T
   4    -41.1176432 -0.857881E-09  0.354E-04    9.28      64.8  T
   5    -41.1176432 -0.103100E-09  0.435E-05    9.28     527.8  T
speedup  0.97
cpu  time for SCC    0.00 s
wall time for SCC    0.00 s
speedup  0.92
cpu  time for grad    0.01 s
wall time for grad    0.01 s
 E :    -40.91893394  G :  0.000166    pred/act E change: -0.841D-07 -0.871D-07
Maxdispl :   0.0028   ||displ|| :   0.0065   Lambda : -0.122D-06
Largest |displ|/coords:  0.0028 (   8)  0.0024 (  25)  0.0023 (  20)

   *** GEOMETRY OPTIMIZATION CONVERGED AFTER 132 ITERATIONS ***

------------------------------------------------------------------------
 total energy gain (kcal):     -0.0089
------------------------------------------------------------------------
================
 final structure:
================
$coord
        1.25143230131326        2.94704047196164        0.70244877535959      S 
        2.26214811376064        3.90910562800057       -1.63594203457069      O 
       -1.46359722652599        2.58043095478777        0.73182102056006      O 
        2.57672911869169        0.65672759378684        1.55286591504104      O 
        1.82276138082298        5.02304286500027        2.79148313566676      O 
        3.37818408272250        5.73804141132740        2.23616588462781      H 
        0.38119258305347       -3.43531706289163        1.77751933873865      O 
        0.39274731673395       -3.91682133820101       -0.12029339926511      H 
        1.42922562317135       -1.70603493539798        1.80532768190513      H 
        0.51835441934656       -4.06194568300774       -2.95752410844863      O 
        0.01233160838105       -2.34408041226222       -3.53175234206342      H 
        2.19160060376398       -4.33470368422407       -3.59884202926927      H 
       -0.60932004204400        0.63400609151283       -4.06535722934124      O 
        0.64757421484429        1.86837911806314       -3.50147115662841      H 
       -2.13867985467630        1.14309757618758       -3.22490933417953      H 
       -3.81494320360959       -1.27279279305023        2.62558402324212      O 
       -1.42073949235739       -2.86110085655824        2.19714803788442      H 
       -4.28325985681795       -0.87650133899330        4.33067212712893      H 
       -3.13374169066089        0.30942639400395        1.88505569362268      H 
$end
 
 Bond Distances (Angstroems)
 ---------------------------
S1-O2=1.4410         S1-O3=1.4499         S1-O4=1.4708         S1-O5=1.5876         O2-S1=1.4410         O3-S1=1.4499         
O4-S1=1.4708         O5-S1=1.5876         O5-H6=0.9524         H6-O5=0.9524         O7-H8=1.0361         O7-H9=1.0701         
O7-H17=1.0251        H8-O7=1.0361         H9-O7=1.0701         O10-H11=0.9952       O10-H12=0.9592       H11-O10=0.9952       
H12-O10=0.9592       O13-H14=0.9788       O13-H15=0.9619       H14-O13=0.9788       H15-O13=0.9619       O16-H18=0.9589       
O16-H19=0.9922       H17-O7=1.0251        H18-O16=0.9589       H19-O16=0.9922       
 O  H  Rav=0.9930 sigma=0.0374  Rmin=0.9524  Rmax=1.0701    10
 S  O  Rav=1.4873 sigma=0.0589  Rmin=1.4410  Rmax=1.5876     4
 
 selected bond angles (degree)
 --------------------
O3-S1-O2=115.11                O4-S1-O2=112.14                O4-S1-O3=111.04                O5-S1-O2=106.43                
O5-S1-O3=105.89                O5-S1-O4=105.45                H6-O5-S1=102.98                H9-O7-H8=102.74                
H17-O7-H8=106.76               H17-O7-H9=103.04               H12-O10-H11=106.13             
 
 selected dihedral angles (degree)
 ---------------------------------
H6-O5-S1-O2=327.66            H6-O5-S1-O3=204.71            H6-O5-S1-O4= 86.94            
 
 CMA Distance (Angstroems)
 ---------------------------
R(CMA):  2.9811

========================================================================
 FINAL SINGLEPOINT CALCULATION ON OPTIMIZED GEOMETRY
========================================================================

 Ncao       : 52
 Nao        : 51
 Nshell     : 29
 Nel        : 64
 T(el)      :   300.0
 intcut     :    25.0
 scfconv/Eh :  0.100E-05
   qconv/e  :  0.100E-03
 intneglect :  0.100E-07
 broydamp   :      0.250
 iter      E             dE          RMSdq      gap      omega  full diag
   1    -41.1176432 -0.411176E+02  0.182E-05    9.28       0.0  T
   2    -41.1176432 -0.355271E-12  0.136E-05    9.28    1686.5  T
   3    -41.1176432 -0.511591E-12  0.623E-06    9.28    3680.7  T
speedup  0.53
cpu  time for SCC    0.00 s
wall time for SCC    0.00 s

   *** convergence criteria satisfied after 3 iterations ***

          eigenvalues
 #    :          20         21         22         23         24         25         26         27
 occ. :        2.000      2.000      2.000      2.000      2.000      2.000      2.000      2.000
 eps  :       -14.410    -14.079    -13.963    -13.472    -12.836    -12.733    -12.721    -12.601
 #    :          28         29         30         31         32         33         34         35
 occ. :        2.000      2.000      2.000      2.000      2.000      0.000      0.000      0.000
 eps  :       -12.407    -12.262    -12.190    -12.097    -11.936     -2.653     -0.664     -0.376
 #    :          36         37         38         39         40         41         42         43
 occ. :        0.000      0.000      0.000      0.000      0.000      0.000      0.000      0.000
 eps  :         0.535      1.021      1.524      3.028      4.175      4.454      6.176      6.907


   #   Z            q   n(s)   n(p)   n(d)      C6AA      α(0)
   1  16 S      1.669  1.582  1.789  0.960    89.476    15.920
   2   8 O     -0.725  1.773  4.951  0.000    29.391     7.269
   3   8 O     -0.728  1.759  4.968  0.000    29.479     7.280
   4   8 O     -0.733  1.767  4.966  0.000    29.541     7.290
   5   8 O     -0.585  1.749  4.837  0.000    24.805     6.724
   6   1 H      0.347  0.653  0.000  0.000     0.587     1.199
   7   8 O     -0.507  1.727  4.780  0.000    22.988     6.475
   8   1 H      0.386  0.614  0.000  0.000     0.510     1.122
   9   1 H      0.393  0.607  0.000  0.000     0.490     1.096
  10   8 O     -0.598  1.745  4.853  0.000    25.138     6.767
  11   1 H      0.348  0.652  0.000  0.000     0.594     1.211
  12   1 H      0.299  0.701  0.000  0.000     0.724     1.337
  13   8 O     -0.613  1.737  4.875  0.000    25.496     6.815
  14   1 H      0.320  0.680  0.000  0.000     0.663     1.279
  15   1 H      0.304  0.696  0.000  0.000     0.708     1.321
  16   8 O     -0.601  1.743  4.857  0.000    25.201     6.776
  17   1 H      0.382  0.618  0.000  0.000     0.520     1.133
  18   1 H      0.298  0.702  0.000  0.000     0.728     1.340
  19   1 H      0.344  0.656  0.000  0.000     0.603     1.220

 Mol. C6AA /au·bohr⁶  :       3378.272015
 Mol. C8AA /au·bohr⁸  :      76522.440013
 Mol. α(0) /au        :         83.574436

 
 Wiberg/Mayer (AO) data. WBOs > 0.1 written file <wbo>
 largest (>0.05) Wiberg bond orders for each atom
           total WBO             WBO to atom ...
     1  S   4.875    O    2 1.357    O    3 1.337    O    4 1.240    O    5 0.897
     2  O   1.742    S    1 1.357    O    3 0.109    O    4 0.103    O    5 0.080    H   14 0.055
     3  O   1.739    S    1 1.337    O    4 0.110    O    2 0.109    H   19 0.075    O    5 0.063
     4  O   1.767    S    1 1.240    H    9 0.190    O    3 0.110    O    2 0.103    O    5 0.067    O    7 0.053
     5  O   1.977    S    1 0.897    H    6 0.863    O    2 0.080    O    4 0.067    O    3 0.063
     6  H   0.879    O    5 0.863
     7  O   2.242    H   17 0.717    H    8 0.695    H    9 0.644    O   10 0.055    O    4 0.053    O   16 0.050
     8  H   0.851    O    7 0.695    O   10 0.153
     9  H   0.845    O    7 0.644    O    4 0.190
    10  O   1.950    H   12 0.907    H   11 0.792    H    8 0.153    O    7 0.055
    11  H   0.879    O   10 0.792    O   13 0.085
    12  H   0.911    O   10 0.907
    13  O   1.889    H   15 0.897    H   14 0.834    H   11 0.085
    14  H   0.897    O   13 0.834    O    2 0.055
    15  H   0.907    O   13 0.897
    16  O   1.934    H   18 0.907    H   19 0.802    H   17 0.134    O    7 0.050
    17  H   0.854    O    7 0.717    O   16 0.134
    18  H   0.911    O   16 0.907
    19  H   0.882    O   16 0.802    O    3 0.075
 MOs/occ written to file <molden.input>
 
molecular dipole:
                 x           y           z       tot (Debye)
 q only:       -0.072      -1.266       0.644
   full:        0.218      -0.331       0.814       2.302
molecular quadrupole (traceless):
                xx          xy          yy          xz          yz          zz
 q only:        1.039      -0.830      -1.036      -3.048       2.514      -0.003
  q+dip:        2.388      -0.689      -1.758      -4.539       4.057      -0.631
   full:        2.434      -0.341      -1.630      -4.712       4.374      -0.804

SCC energy    :     -41.1176432
rep           :       0.1986053
ES            :       0.1995544
AES           :      -0.0535013
AXC           :      -0.0100124
disp          :      -0.0132608
XB            :       0.0000000
fix           :       0.0000000
total E       :     -40.9189339
atomizationE  :       3.7131211     2330.02
(atE without considering molecular charge,
 total energy contains solvation terms)
H-L gap (eV)  :          9.2823
optimized geometry written to: xtbopt.xyz


------------------------------------------------------------------------
 * finished run on 2019/09/03 at 07:13:07.262     
------------------------------------------------------------------------
 total:
 * wall-time:     0 d,  0 h,  0 min,  1.971 sec
 *  cpu-time:     0 d,  0 h,  0 min,  1.950 sec
 * ratio c/w:     0.989 speedup
 SCF:
 * wall-time:     0 d,  0 h,  0 min,  0.094 sec
 *  cpu-time:     0 d,  0 h,  0 min,  0.091 sec
 * ratio c/w:     0.963 speedup
 ANC optimizer:
 * wall-time:     0 d,  0 h,  0 min,  1.854 sec
 *  cpu-time:     0 d,  0 h,  0 min,  1.839 sec
 * ratio c/w:     0.992 speedup

