      -----------------------------------------------------------      
     |                   =====================                   |     
     |                           x T B                           |     
     |                   =====================                   |     
     |                         S. Grimme                         |     
     |          Mulliken Center for Theoretical Chemistry        |     
     |                    University of Bonn                     |     
     |                 Version 6.0.1 (SAW181210)                 |     
      -----------------------------------------------------------      

   This program is distributed in the hope that it will be useful,
   but WITHOUT ANY WARRANTY; without even the implied warranty of
   MERCHANTABILITY or FITNESS FOR A PARTICULAR PURPOSE.
   
   FOR NON-COMMERCIAL, ACADEMIA USE ONLY.
   
   Cite this work as:
   S. Grimme, C. Bannwarth, P. Shushkov, J. Comput. Theory Chem., 2017,
   13, 1989-2009.
   C. Bannwarth, S. Ehlert and S. Grimme., ChemRxiv, 2018, preprint.
   http://doi.org/10.26434/chemrxiv.7246238.v1
   
   for sTDA-xTB:
   S. Grimme and C. Bannwarth, J. Chem. Phys., 2016, 145, 054103.
   
   in the mass-spec context:
   V. Asgeirsson, C. Bauer and S. Grimme, Chem. Sci., 2017, 8, 4879.
   
   if GBSA is used:
   P. Shushkov, F. März and S. Grimme, unpublished.
   
   for ANC optimizer:
   S. Grimme, unpublished.
   Rational Function algorithm used in ANCopt:
   F. Eckert, P. Pulay, H.-J. Werner, J. Comput. Chem., 1997, 18, 1473.
   
   with help from (in alphabetical order)
   C. Bannwarth, F. Bohle, G. Brandenburg, E. Caldeweyher, M. Checinski,
   S. Dohm, S. Ehlert, S. Ehrlich, F. März, H. Neugebauer, J. Pisarek,
   P. Pracht, P. Shushkov, and S. Spicher.
   
 * started run on 2019/09/03 at 07:15:27.813     
========================================================================
 # omp threads = 1
========================================================================
number of atoms            : 19
number of electrons        : 64
charge                     : 0
spin                       : .0
first test random number   : .6310

########################################################################
# WARNING! Please study the warnings concerning your input carefully
#  - XTBPATH is not set, using XTBHOME instead
#  - the use of '-opt' is discouraged, please use '--opt' next time
#  - the use of '-chrg' is discouraged, please use '--chrg' next time
#  - the use of '-uhf' is discouraged, please use '--uhf' next time
########################################################################

           ------------------------------------------------- 
          |                 G F N 2 - x T B                 |
          | Geometry, Frequencies, Noncovalent interactions |
          |            JCTC 2018 parametrisation            |
           ------------------------------------------------- 
      method parameters     
 k(s)        :  1.8500
 k(p)        :  2.2300
 k(d)        :  2.2300
 k(f)        :  2.0000
 kEN (H0ij)  : -2.0000
 D4 a1       :  0.5200
 D4 a2       :  5.0000
 D4 s6       :  1.0000
 D4 s8       :  2.7000
 D4 s9       :  5.0000
 alphaj      :  2.0000


            Z     q(EN)     CN     RAES       Cart. coordinates
     1  S   6.0    0.64    4.27    4.18    -3.22990    -2.97936    -1.48530
     2  O   6.0   -0.30    1.19    1.80    -4.36968    -2.44171     1.03263
     3  O   6.0   -0.30    1.18    1.80    -2.88682    -0.56615    -2.89485
     4  O   6.0   -0.29    1.19    1.80    -0.72957    -4.22636    -1.13678
     5  O   6.0   -0.24    2.08    1.84    -4.91022    -4.65990    -2.92226
     6  H   1.0    0.15    1.21    1.47    -6.52147    -3.85720    -3.14727
     7  O   6.0   -0.26    1.92    1.82     5.90752     4.69997     0.58471
     8  H   1.0    0.14    0.97    1.43     6.20139     6.26135     1.47373
     9  H   1.0    0.14    0.97    1.43     7.01859     4.75018    -0.85668
    10  O   6.0   -0.28    2.03    1.83    -1.33104    -0.40113     4.52222
    11  H   1.0    0.15    0.97    1.43    -2.12998    -0.10542     6.13121
    12  H   1.0    0.18    1.05    1.44    -2.63540    -1.09273     3.45688
    13  O   6.0   -0.28    2.05    1.83     1.20587     2.45498    -2.33395
    14  H   1.0    0.15    0.97    1.43     1.44200     3.84060    -3.49107
    15  H   1.0    0.18    1.03    1.43    -0.34442     1.65354    -2.85252
    16  O   6.0   -0.21    2.90    2.54     2.21419    -0.88167     1.09438
    17  H   1.0    0.15    1.04    1.43     1.67901    -2.48601     0.30095
    18  H   1.0    0.15    1.06    1.44     2.18644     0.54147    -0.11553
    19  H   1.0    0.14    1.04    1.43     1.23348    -0.50446     2.63950

  Z AO/shell   Hii/eV     exponent
  1     Wed Apr 25 08:07:45 CEST 2018   EN: 2.200 GM2: 0.406  GM3: 0.0800  RAES: 1.40
     1s    -10.707211    1.230000
  8     Wed Apr 25 08:07:45 CEST 2018   EN: 3.440 GM2: 0.452  GM3:-0.0517  RAES: 1.80
     2s    -20.229985    2.439742
     2p    -15.503117    2.137023
 16     Tue Apr 24 11:44:34 CEST 2018   EN: 2.580 GM2: 0.340  GM3:-0.0502  RAES: 3.10
     3s    -20.029654    1.981333
     3p    -11.377694    2.025643
     3d     -0.420282    1.702555
 no old-style atom pair restraining (fixing) potential

molecular fragmentation (1/2 indicates fragments):
1111112222222222222
# atoms in fragment 1/2:     6    13
 fragment masses (1/2) :       97.07       73.07
CMA distance (Bohr)    :   7.274
constraining FC (au)   :  0.0500
           ------------------------------------------------- 
          |        Self-Consistent Charge Iterations        |
           ------------------------------------------------- 

 Ncao       : 52
 Nao        : 51
 Nshell     : 29
 Nel        : 64
 T(el)      :   300.0
 intcut     :    25.0
 scfconv/Eh :  0.100E-05
   qconv/e  :  0.100E-03
 intneglect :  0.100E-07
 broydamp   :      0.250
 iter      E             dE          RMSdq      gap      omega  full diag
   1    -41.0040988 -0.410041E+02  0.767E+00   10.54       0.0  T
   2    -41.0464392 -0.423404E-01  0.553E+00   10.00       1.0  T
   3    -41.0775069 -0.310677E-01  0.147E+00    8.78       1.0  T
   4    -41.0821846 -0.467769E-02  0.590E-01    8.81       1.0  T
   5    -41.0827840 -0.599467E-03  0.325E-01    8.76       1.0  T
   6    -41.0831209 -0.336857E-03  0.143E-01    8.77       1.0  T
   7    -41.0831995 -0.786131E-04  0.524E-02    8.81       1.0  T
   8    -41.0832087 -0.920371E-05  0.329E-02    8.80       1.0  T
   9    -41.0832143 -0.558811E-05  0.727E-03    8.80       3.2  T
  10    -41.0832144 -0.158010E-06  0.221E-03    8.79      10.4  T
  11    -41.0832145 -0.120071E-07  0.965E-04    8.79      23.8  T
  12    -41.0832145 -0.324253E-08  0.484E-04    8.79      47.4  T
speedup  1.04
cpu  time for SCC    0.01 s
wall time for SCC    0.01 s

   *** convergence criteria satisfied after 12 iterations ***

          eigenvalues
 #    :          20         21         22         23         24         25         26         27
 occ. :        2.000      2.000      2.000      2.000      2.000      2.000      2.000      2.000
 eps  :       -13.965    -13.870    -12.700    -12.435    -12.316    -12.036    -11.932    -11.564
 #    :          28         29         30         31         32         33         34         35
 occ. :        2.000      2.000      2.000      2.000      2.000      0.000      0.000      0.000
 eps  :       -11.168    -11.158    -10.675    -10.608    -10.382     -1.587     -0.419      0.281
 #    :          36         37         38         39         40         41         42         43
 occ. :        0.000      0.000      0.000      0.000      0.000      0.000      0.000      0.000
 eps  :         1.370      1.735      2.012      2.416      4.144      4.207      6.304      7.484


   #   Z            q   n(s)   n(p)   n(d)      C6AA      α(0)
   1  16 S      1.560  1.586  1.864  0.990    92.024    16.145
   2   8 O     -0.757  1.778  4.978  0.000    30.299     7.380
   3   8 O     -0.760  1.775  4.985  0.000    30.411     7.394
   4   8 O     -0.734  1.765  4.968  0.000    29.640     7.299
   5   8 O     -0.536  1.715  4.821  0.000    23.679     6.569
   6   1 H      0.357  0.643  0.000  0.000     0.562     1.174
   7   8 O     -0.565  1.740  4.825  0.000    24.372     6.663
   8   1 H      0.283  0.717  0.000  0.000     0.776     1.383
   9   1 H      0.283  0.717  0.000  0.000     0.774     1.382
  10   8 O     -0.623  1.727  4.896  0.000    25.737     6.847
  11   1 H      0.291  0.709  0.000  0.000     0.750     1.360
  12   1 H      0.337  0.663  0.000  0.000     0.620     1.236
  13   8 O     -0.610  1.725  4.885  0.000    25.420     6.805
  14   1 H      0.293  0.707  0.000  0.000     0.743     1.354
  15   1 H      0.336  0.664  0.000  0.000     0.622     1.239
  16   8 O     -0.413  1.638  4.775  0.000    21.046     6.196
  17   1 H      0.413  0.587  0.000  0.000     0.462     1.068
  18   1 H      0.427  0.573  0.000  0.000     0.438     1.040
  19   1 H      0.419  0.581  0.000  0.000     0.452     1.056

 Mol. C6AA /au·bohr⁶  :       3375.490884
 Mol. C8AA /au·bohr⁸  :      76636.530133
 Mol. α(0) /au        :         83.591009

 
 Wiberg/Mayer (AO) data. WBOs > 0.1 written file <wbo>
 largest (>0.05) Wiberg bond orders for each atom
           total WBO             WBO to atom ...
     1  S   4.953    O    4 1.318    O    3 1.303    O    2 1.299    O    5 1.001
     2  O   1.679    S    1 1.299    O    3 0.115    O    4 0.114    O    5 0.073    H   12 0.055
     3  O   1.669    S    1 1.303    O    2 0.115    O    4 0.115    O    5 0.073
     4  O   1.710    S    1 1.318    O    3 0.115    O    2 0.114    H   17 0.071    O    5 0.052
     5  O   2.053    S    1 1.001    H    6 0.848    O    3 0.073    O    2 0.073    O    4 0.052
     6  H   0.872    O    5 0.848
     7  O   1.840    H    8 0.920    H    9 0.920
     8  H   0.920    O    7 0.920
     9  H   0.920    O    7 0.920
    10  O   1.848    H   11 0.903    H   12 0.828    H   19 0.066
    11  H   0.915    O   10 0.903
    12  H   0.886    O   10 0.828    O    2 0.055
    13  O   1.864    H   14 0.900    H   15 0.839    H   18 0.076
    14  H   0.914    O   13 0.900
    15  H   0.887    O   13 0.839
    16  O   2.334    H   17 0.753    H   19 0.753    H   18 0.736
    17  H   0.830    O   16 0.753    O    4 0.071
    18  H   0.818    O   16 0.736    O   13 0.076
    19  H   0.825    O   16 0.753    O   10 0.066
 MOs/occ written to file <molden.input>
 
molecular dipole:
                 x           y           z       tot (Debye)
 q only:        1.821       1.700       0.524
   full:        1.012       1.690       0.019       5.006
molecular quadrupole (traceless):
                xx          xy          yy          xz          yz          zz
 q only:        5.822       6.791      -5.607       0.636      -2.792      -0.215
  q+dip:        7.454      13.476      -5.566       0.493      -2.461      -1.888
   full:        7.552      13.893      -5.712       0.633      -2.153      -1.839

SCC energy    :     -41.0832145
rep           :       0.2163484
ES            :       0.2392207
AES           :      -0.0494413
AXC           :      -0.0110417
disp          :      -0.0114866
XB            :       0.0000000
fix           :       0.0000000
total E       :     -40.8668126
atomizationE  :       3.6609998     2297.31
(atE without considering molecular charge,
 total energy contains solvation terms)
H-L gap (eV)  :          8.7949
           ------------------------------------------------- 
          |                 ===============                 |
          |                   A N C O P T                   |
          |                 ===============                 |
          |          Approximate Normal Coordinate          |
          |           Rational Function Optimizer           |
           ------------------------------------------------- 
dumping coords to <xtbopt.coord> and <xtbopt.log>
 optlevel               2
 Maxcycle             380
 Maxmicro              25
 Econv         1.000000000000000E-007
 Gconv         2.000000000000000E-004
 Maxdispl       1.00000000000000     
 Hlow          5.000000000000000E-003
 S6             20.0000000000000     
 Nvar               51

generating ANC from model Hessian ...
 Shifting diagonal of input Hessian by   5.116451024068375E-003
 Lowest  eigenvalues of input Hessian
    0.005000   -0.000000   -0.000000   -0.000000   -0.000000    0.000000
    0.000000    0.005124    0.005223    0.005268    0.005491    0.005532
    0.005685    0.005781    0.005797    0.006239    0.006865    0.007142
 Highest eigenvalues
    1.452335    1.553999    1.559631    3.136158    3.210521    3.313104
 
cpu  time for ANC gen    0.01 s
wall time for ANC gen    0.01 s
................................................................................
.............................. CYCLE    1 ......................................
................................................................................
   1    -41.0832145 -0.410832E+02  0.116E-04    8.79       0.0  T
   2    -41.0832145 -0.194333E-10  0.864E-05    8.79     265.7  T
   3    -41.0832145 -0.121361E-10  0.341E-05    8.79     672.7  T
speedup  1.00
cpu  time for SCC    0.00 s
wall time for SCC    0.00 s
speedup  0.99
cpu  time for grad    0.01 s
wall time for grad    0.01 s
 E :    -40.86681259  G :  0.160043    pred/act E change:  0.000D+00  0.258D-07
Maxdispl :   0.2926   ||displ|| :   0.3765   Lambda : -0.184D-01
Largest |displ|/coords:  0.2926 (  20)  0.1216 (  23)  0.0945 (  21)
................................................................................
.............................. CYCLE    2 ......................................
................................................................................
   1    -41.0932118 -0.410932E+02  0.304E-01    8.92       0.0  T
   2    -41.0933123 -0.100552E-03  0.235E-01    8.96       1.0  T
   3    -41.0933539 -0.416187E-04  0.845E-02    9.04       1.0  T
   4    -41.0933643 -0.103647E-04  0.200E-02    9.03       1.1  T
   5    -41.0933649 -0.601593E-06  0.525E-03    9.03       4.4  T
   6    -41.0933649 -0.361914E-07  0.338E-03    9.03       6.8  T
speedup  1.05
cpu  time for SCC    0.00 s
wall time for SCC    0.00 s
speedup  1.05
cpu  time for grad    0.01 s
wall time for grad    0.01 s
 E :    -40.88254208  G :  0.106156    pred/act E change:  0.000D+00 -0.157D-01
Maxdispl :   0.3050   ||displ|| :   0.4012   Lambda : -0.125D-01
Largest |displ|/coords:  0.3050 (  20)  0.1698 (  23)  0.0940 (  21)
................................................................................
.............................. CYCLE    3 ......................................
................................................................................
   1    -41.0989172 -0.410989E+02  0.322E-01    9.10       0.0  T
   2    -41.0991020 -0.184838E-03  0.245E-01    9.13       1.0  T
   3    -41.0991863 -0.843164E-04  0.101E-01    9.20       1.0  T
   4    -41.0991979 -0.116027E-04  0.242E-02    9.20       1.0  T
   5    -41.0991986 -0.715639E-06  0.692E-03    9.20       3.3  T
   6    -41.0991987 -0.611664E-07  0.413E-03    9.19       5.6  T
   7    -41.0991988 -0.457452E-07  0.179E-03    9.19      12.8  T
speedup  0.93
cpu  time for SCC    0.00 s
wall time for SCC    0.00 s
speedup  0.99
cpu  time for grad    0.01 s
wall time for grad    0.01 s
 E :    -40.89204117  G :  0.063011    pred/act E change: -0.105D-01 -0.950D-02
Maxdispl :   0.1493   ||displ|| :   0.3033   Lambda : -0.452D-02
Largest |displ|/coords:  0.1493 (  20)  0.1265 (  11)  0.1173 (  14)
................................................................................
.............................. CYCLE    4 ......................................
................................................................................
   1    -41.1001776 -0.411002E+02  0.263E-01    9.19       0.0  T
   2    -41.1002775 -0.999487E-04  0.199E-01    9.22       1.0  T
   3    -41.1003201 -0.425555E-04  0.763E-02    9.27       1.0  T
   4    -41.1003275 -0.735234E-05  0.189E-02    9.26       1.2  T
   5    -41.1003279 -0.465877E-06  0.482E-03    9.26       4.8  T
   6    -41.1003280 -0.306580E-07  0.272E-03    9.26       8.4  T
speedup  1.05
cpu  time for SCC    0.00 s
wall time for SCC    0.00 s
speedup  1.03
cpu  time for grad    0.01 s
wall time for grad    0.01 s
 E :    -40.89518285  G :  0.034995    pred/act E change: -0.728D-02 -0.314D-02
Maxdispl :   0.1888   ||displ|| :   0.3479   Lambda : -0.251D-02
Largest |displ|/coords:  0.1888 (  14)  0.1482 (  11)  0.0974 (  13)
................................................................................
.............................. CYCLE    5 ......................................
................................................................................
   1    -41.1015094 -0.411015E+02  0.235E-01    9.19       0.0  T
   2    -41.1015620 -0.526286E-04  0.180E-01    9.22       1.0  T
   3    -41.1015776 -0.156244E-04  0.626E-02    9.26       1.0  T
   4    -41.1015830 -0.534739E-05  0.165E-02    9.25       1.4  T
   5    -41.1015833 -0.266933E-06  0.384E-03    9.25       6.0  T
   6    -41.1015833 -0.146361E-07  0.157E-03    9.25      14.6  T
speedup  1.05
cpu  time for SCC    0.00 s
wall time for SCC    0.00 s
speedup  1.03
cpu  time for grad    0.01 s
wall time for grad    0.01 s
 E :    -40.89677059  G :  0.013733    pred/act E change: -0.247D-02 -0.159D-02
Maxdispl :   0.1937   ||displ|| :   0.3594   Lambda : -0.113D-02
Largest |displ|/coords:  0.1937 (  11)  0.1415 (  14)  0.1121 (   5)
................................................................................
.............................. CYCLE    6 ......................................
................................................................................
   1    -41.1024307 -0.411024E+02  0.306E-01    9.11       0.0  T
   2    -41.1024557 -0.250161E-04  0.233E-01    9.12       1.0  T
   3    -41.1024705 -0.148108E-04  0.357E-02    9.15       1.0  T
   4    -41.1024747 -0.420091E-05  0.151E-02    9.14       1.5  T
   5    -41.1024749 -0.184088E-06  0.314E-03    9.14       7.3  T
   6    -41.1024749 -0.739052E-08  0.179E-03    9.14      12.8  T
   7    -41.1024749 -0.271349E-08  0.662E-04    9.14      34.7  T
speedup  0.95
cpu  time for SCC    0.00 s
wall time for SCC    0.00 s
speedup  0.97
cpu  time for grad    0.01 s
wall time for grad    0.01 s
 E :    -40.89699941  G :  0.014978    pred/act E change: -0.140D-02 -0.229D-03
Maxdispl :   0.1345   ||displ|| :   0.3033   Lambda : -0.117D-02
Largest |displ|/coords:  0.1345 (  10)  0.1197 (   9)  0.1016 (   2)
................................................................................
.............................. CYCLE    7 ......................................
................................................................................
   1    -41.0994610 -0.410995E+02  0.387E-01    9.06       0.0  T
   2    -41.0994993 -0.383402E-04  0.293E-01    9.07       1.0  T
   3    -41.0995249 -0.256189E-04  0.432E-02    9.08       1.0  T
   4    -41.0995304 -0.545779E-05  0.135E-02    9.07       1.7  T
   5    -41.0995307 -0.341465E-06  0.375E-03    9.07       6.1  T
   6    -41.0995307 -0.482175E-08  0.228E-03    9.07      10.1  T
   7    -41.0995307 -0.668610E-08  0.471E-04    9.07      48.7  T
speedup  0.91
cpu  time for SCC    0.00 s
wall time for SCC    0.00 s
speedup  0.95
cpu  time for grad    0.01 s
wall time for grad    0.01 s
 E :    -40.89694764  G :  0.029249    pred/act E change: -0.637D-03  0.518D-04
Maxdispl :   0.2378   ||displ|| :   0.4261   Lambda : -0.288D-02
Largest |displ|/coords:  0.2378 (   9)  0.1800 (   5)  0.1433 (  13)
................................................................................
.............................. CYCLE    8 ......................................
................................................................................
   1    -41.1017852 -0.411018E+02  0.671E-01    9.09       0.0  T
   2    -41.1018975 -0.112290E-03  0.509E-01    9.08       1.0  T
   3    -41.1019833 -0.858056E-04  0.699E-02    9.07       1.0  T
   4    -41.1019985 -0.151781E-04  0.189E-02    9.07       1.2  T
   5    -41.1019992 -0.745685E-06  0.713E-03    9.07       3.2  T
   6    -41.1019992 -0.123954E-07  0.377E-03    9.07       6.1  T
   7    -41.1019993 -0.206223E-07  0.852E-04    9.07      26.9  T
speedup  0.93
cpu  time for SCC    0.00 s
wall time for SCC    0.00 s
speedup  0.97
cpu  time for grad    0.01 s
wall time for grad    0.01 s
 E :    -40.89450980  G :  0.042336    pred/act E change: -0.640D-03  0.244D-02
Maxdispl :   0.1689   ||displ|| :   0.3714   Lambda : -0.614D-02
Largest |displ|/coords:  0.1689 (  10)  0.1311 (   9)  0.1285 (  13)
................................................................................
.............................. CYCLE    9 ......................................
................................................................................
   1    -41.1042172 -0.411042E+02  0.621E-01    9.20       0.0  T
   2    -41.1042916 -0.744395E-04  0.473E-01    9.19       1.0  T
   3    -41.1043558 -0.642275E-04  0.572E-02    9.17       1.0  T
   4    -41.1043650 -0.914099E-05  0.183E-02    9.18       1.3  T
   5    -41.1043655 -0.543013E-06  0.572E-03    9.18       4.0  T
   6    -41.1043655 -0.125072E-08  0.300E-03    9.18       7.7  T
speedup  0.81
cpu  time for SCC    0.00 s
wall time for SCC    0.00 s
speedup  0.93
cpu  time for grad    0.01 s
wall time for grad    0.01 s
 E :    -40.89724668  G :  0.014371    pred/act E change: -0.170D-02 -0.274D-02
Maxdispl :   0.1453   ||displ|| :   0.3401   Lambda : -0.231D-02
Largest |displ|/coords:  0.1453 (   9)  0.1341 (  16)  0.1285 (   5)
................................................................................
.............................. CYCLE   10 ......................................
................................................................................
   1    -41.0995287 -0.410995E+02  0.422E-01    9.10       0.0  T
   2    -41.0995786 -0.498853E-04  0.316E-01    9.11       1.0  T
   3    -41.0996048 -0.262234E-04  0.615E-02    9.13       1.0  T
   4    -41.0996121 -0.730881E-05  0.137E-02    9.12       1.7  T
   5    -41.0996125 -0.371967E-06  0.406E-03    9.12       5.6  T
   6    -41.0996125 -0.469763E-08  0.226E-03    9.12      10.2  T
   7    -41.0996125 -0.103663E-07  0.667E-04    9.12      34.4  T
speedup  1.14
cpu  time for SCC    0.01 s
wall time for SCC    0.00 s
speedup  1.08
cpu  time for grad    0.01 s
wall time for grad    0.01 s
 E :    -40.89712143  G :  0.020999    pred/act E change: -0.349D-02  0.125D-03
Maxdispl :   0.1310   ||displ|| :   0.2263   Lambda : -0.192D-02
Largest |displ|/coords:  0.1310 (   5)  0.0834 (  11)  0.0674 (   4)
................................................................................
.............................. CYCLE   11 ......................................
................................................................................
   1    -41.1022802 -0.411023E+02  0.250E-01    9.16       0.0  T
   2    -41.1022932 -0.130048E-04  0.188E-01    9.15       1.0  T
   3    -41.1023002 -0.700657E-05  0.304E-02    9.14       1.0  T
   4    -41.1023023 -0.203966E-05  0.761E-03    9.15       3.0  T
   5    -41.1023024 -0.103507E-06  0.264E-03    9.15       8.7  T
   6    -41.1023024 -0.145554E-08  0.137E-03    9.15      16.7  T
speedup  1.05
cpu  time for SCC    0.00 s
wall time for SCC    0.00 s
speedup  1.03
cpu  time for grad    0.01 s
wall time for grad    0.01 s
 E :    -40.89801815  G :  0.014778    pred/act E change: -0.129D-02 -0.897D-03
Maxdispl :   0.1057   ||displ|| :   0.2286   Lambda : -0.530D-03
Largest |displ|/coords:  0.1057 (   8)  0.0925 (   3)  0.0909 (   2)
................................................................................
.............................. CYCLE   12 ......................................
................................................................................
   1    -41.1041995 -0.411042E+02  0.156E-01    9.21       0.0  T
   2    -41.1042075 -0.797764E-05  0.116E-01    9.21       1.0  T
   3    -41.1042119 -0.438871E-05  0.217E-02    9.20       1.1  T
   4    -41.1042130 -0.111163E-05  0.645E-03    9.20       3.6  T
   5    -41.1042131 -0.751590E-07  0.222E-03    9.20      10.3  T
   6    -41.1042131 -0.340395E-08  0.117E-03    9.20      19.6  T
speedup  1.08
cpu  time for SCC    0.00 s
wall time for SCC    0.00 s
speedup  1.03
cpu  time for grad    0.01 s
wall time for grad    0.01 s
 E :    -40.89811256  G :  0.014675    pred/act E change: -0.101D-02 -0.944D-04
Maxdispl :   0.1560   ||displ|| :   0.3007   Lambda : -0.663D-03
Largest |displ|/coords:  0.1560 (   2)  0.1342 (   8)  0.1085 (   4)
................................................................................
.............................. CYCLE   13 ......................................
................................................................................
   1    -41.1021627 -0.411022E+02  0.176E-01    9.19       0.0  T
   2    -41.1021690 -0.631605E-05  0.133E-01    9.19       1.0  T
   3    -41.1021743 -0.534149E-05  0.168E-02    9.19       1.4  T
   4    -41.1021751 -0.781456E-06  0.462E-03    9.19       5.0  T
   5    -41.1021751 -0.236096E-07  0.197E-03    9.19      11.6  T
   6    -41.1021751 -0.243242E-08  0.105E-03    9.19      21.8  T
speedup  0.81
cpu  time for SCC    0.00 s
wall time for SCC    0.00 s
speedup  0.92
cpu  time for grad    0.01 s
wall time for grad    0.01 s
 E :    -40.89867638  G :  0.013978    pred/act E change: -0.279D-03 -0.564D-03
Maxdispl :   0.3402   ||displ|| :   0.6642   Lambda : -0.130D-02
Largest |displ|/coords:  0.3402 (   2)  0.3161 (   8)  0.3034 (   4)
................................................................................
.............................. CYCLE   14 ......................................
................................................................................
   1    -41.1028311 -0.411028E+02  0.253E-01    9.21       0.0  T
   2    -41.1028489 -0.177610E-04  0.190E-01    9.21       1.0  T
   3    -41.1028630 -0.141296E-04  0.320E-02    9.21       1.0  T
   4    -41.1028652 -0.220646E-05  0.955E-03    9.21       2.4  T
   5    -41.1028653 -0.131084E-06  0.329E-03    9.21       7.0  T
   6    -41.1028653 -0.621297E-08  0.184E-03    9.21      12.4  T
   7    -41.1028653 -0.610468E-08  0.479E-04    9.21      47.9  T
speedup  1.14
cpu  time for SCC    0.00 s
wall time for SCC    0.00 s
speedup  1.06
cpu  time for grad    0.01 s
wall time for grad    0.01 s
 E :    -40.89933616  G :  0.023793    pred/act E change: -0.362D-03 -0.660D-03
Maxdispl :   0.2574   ||displ|| :   0.5622   Lambda : -0.134D-02
Largest |displ|/coords:  0.2574 (   8)  0.2570 (   2)  0.2139 (   3)
................................................................................
.............................. CYCLE   15 ......................................
................................................................................
   1    -41.0925082 -0.410925E+02  0.519E-01    9.22       0.0  T
   2    -41.0925898 -0.815714E-04  0.389E-01    9.22       1.0  T
   3    -41.0926462 -0.564976E-04  0.580E-02    9.22       1.0  T
   4    -41.0926577 -0.114345E-04  0.127E-02    9.22       1.8  T
   5    -41.0926578 -0.126315E-06  0.638E-03    9.22       3.6  T
   6    -41.0926579 -0.435226E-07  0.290E-03    9.22       7.9  T
   7    -41.0926579 -0.119266E-07  0.682E-04    9.22      33.6  T
speedup  0.93
cpu  time for SCC    0.00 s
wall time for SCC    0.00 s
speedup  0.97
cpu  time for grad    0.01 s
wall time for grad    0.01 s
 E :    -40.89799677  G :  0.060054    pred/act E change: -0.934D-03  0.134D-02
Maxdispl :   0.3270   ||displ|| :   0.5686   Lambda : -0.103D-01
Largest |displ|/coords:  0.3270 (   9)  0.2006 (  10)  0.1914 (   8)
................................................................................
.............................. CYCLE   16 ......................................
................................................................................
   1    -41.1131319 -0.411131E+02  0.822E-01    9.22       0.0  T
   2    -41.1134103 -0.278424E-03  0.619E-01    9.22       1.0  T
   3    -41.1136025 -0.192186E-03  0.109E-01    9.22       1.0  T
   4    -41.1136399 -0.374347E-04  0.218E-02    9.22       1.1  T
   5    -41.1136404 -0.513221E-06  0.122E-02    9.22       1.9  T
   6    -41.1136405 -0.678553E-07  0.499E-03    9.22       4.6  T
   7    -41.1136405 -0.410515E-07  0.119E-03    9.22      19.2  T
speedup  1.11
cpu  time for SCC    0.01 s
wall time for SCC    0.00 s
speedup  1.05
cpu  time for grad    0.01 s
wall time for grad    0.01 s
 E :    -40.89733627  G :  0.065873    pred/act E change: -0.880D-03  0.660D-03
Maxdispl :   0.1552   ||displ|| :   0.2387   Lambda : -0.478D-02
Largest |displ|/coords:  0.1552 (   9)  0.0704 (   3)  0.0688 (   5)
................................................................................
.............................. CYCLE   17 ......................................
................................................................................
   1    -41.1041004 -0.411041E+02  0.366E-01    9.28       0.0  T
   2    -41.1041637 -0.633177E-04  0.274E-01    9.28       1.0  T
   3    -41.1042052 -0.414615E-04  0.537E-02    9.28       1.0  T
   4    -41.1042130 -0.781962E-05  0.134E-02    9.29       1.7  T
   5    -41.1042133 -0.335189E-06  0.491E-03    9.29       4.7  T
   6    -41.1042133 -0.162584E-07  0.285E-03    9.29       8.1  T
speedup  0.81
cpu  time for SCC    0.00 s
wall time for SCC    0.00 s
speedup  0.92
cpu  time for grad    0.01 s
wall time for grad    0.01 s
 E :    -40.89967214  G :  0.017558    pred/act E change: -0.684D-02 -0.234D-02
Maxdispl :   0.2729   ||displ|| :   0.4080   Lambda : -0.983D-03
Largest |displ|/coords:  0.2729 (   8)  0.1577 (   2)  0.1255 (   6)
................................................................................
.............................. CYCLE   18 ......................................
................................................................................
   1    -41.1015542 -0.411016E+02  0.316E-01    9.26       0.0  T
   2    -41.1015766 -0.224330E-04  0.239E-01    9.26       1.0  T
   3    -41.1015928 -0.162222E-04  0.309E-02    9.27       1.0  T
   4    -41.1015961 -0.328367E-05  0.696E-03    9.27       3.3  T
   5    -41.1015962 -0.731248E-07  0.297E-03    9.27       7.7  T
   6    -41.1015962 -0.405360E-08  0.148E-03    9.27      15.5  T
speedup  1.32
cpu  time for SCC    0.00 s
wall time for SCC    0.00 s
speedup  1.01
cpu  time for grad    0.01 s
wall time for grad    0.01 s
 E :    -40.89983558  G :  0.021809    pred/act E change: -0.252D-02 -0.163D-03
Maxdispl :   0.1486   ||displ|| :   0.2165   Lambda : -0.700D-03
Largest |displ|/coords:  0.1486 (   8)  0.0812 (   2)  0.0736 (   3)
................................................................................
.............................. CYCLE   19 ......................................
................................................................................
   1    -41.1066267 -0.411066E+02  0.409E-01    9.29       0.0  T
   2    -41.1066527 -0.260484E-04  0.313E-01    9.29       1.0  T
   3    -41.1066769 -0.241808E-04  0.274E-02    9.28       1.0  T
   4    -41.1066801 -0.320795E-05  0.696E-03    9.29       3.3  T
   5    -41.1066802 -0.571402E-07  0.341E-03    9.29       6.7  T
   6    -41.1066802 -0.993310E-09  0.154E-03    9.28      14.9  T
speedup  1.03
cpu  time for SCC    0.00 s
wall time for SCC    0.00 s
speedup  1.01
cpu  time for grad    0.01 s
wall time for grad    0.01 s
 E :    -40.90006777  G :  0.012177    pred/act E change: -0.573D-03 -0.232D-03
Maxdispl :   0.1763   ||displ|| :   0.3649   Lambda : -0.640D-03
Largest |displ|/coords:  0.1763 (   4)  0.1195 (   8)  0.1185 (   3)
................................................................................
.............................. CYCLE   20 ......................................
................................................................................
   1    -41.1038451 -0.411038E+02  0.231E-01    9.33       0.0  T
   2    -41.1038681 -0.230498E-04  0.173E-01    9.32       1.0  T
   3    -41.1038825 -0.144150E-04  0.335E-02    9.32       1.0  T
   4    -41.1038855 -0.300303E-05  0.778E-03    9.32       2.9  T
   5    -41.1038857 -0.129832E-06  0.307E-03    9.32       7.5  T
   6    -41.1038857 -0.473885E-08  0.178E-03    9.32      12.9  T
   7    -41.1038857 -0.352529E-08  0.349E-04    9.32      65.7  T
speedup  0.93
cpu  time for SCC    0.00 s
wall time for SCC    0.00 s
speedup  0.96
cpu  time for grad    0.01 s
wall time for grad    0.01 s
 E :    -40.89969430  G :  0.027084    pred/act E change: -0.367D-03  0.373D-03
Maxdispl :   0.1870   ||displ|| :   0.3021   Lambda : -0.126D-02
Largest |displ|/coords:  0.1870 (   8)  0.1374 (   2)  0.1201 (   4)
................................................................................
.............................. CYCLE   21 ......................................
................................................................................
   1    -41.1037359 -0.411037E+02  0.198E-01    9.35       0.0  T
   2    -41.1037490 -0.131459E-04  0.149E-01    9.35       1.0  T
   3    -41.1037585 -0.945731E-05  0.243E-02    9.35       1.0  T
   4    -41.1037603 -0.181179E-05  0.498E-03    9.35       4.6  T
   5    -41.1037603 -0.290732E-07  0.254E-03    9.35       9.0  T
speedup  0.94
cpu  time for SCC    0.00 s
wall time for SCC    0.00 s
speedup  0.96
cpu  time for grad    0.01 s
wall time for grad    0.01 s
 E :    -40.90025501  G :  0.014695    pred/act E change: -0.362D-03 -0.561D-03
Maxdispl :   0.3255   ||displ|| :   0.4231   Lambda : -0.122D-02
Largest |displ|/coords:  0.3255 (   8)  0.1553 (   6)  0.1254 (   7)
................................................................................
.............................. CYCLE   22 ......................................
................................................................................
   1    -41.1085091 -0.411085E+02  0.593E-01    9.31       0.0  T
   2    -41.1085768 -0.677294E-04  0.452E-01    9.32       1.0  T
   3    -41.1086341 -0.573094E-04  0.503E-02    9.32       1.0  T
   4    -41.1086436 -0.952476E-05  0.118E-02    9.32       2.0  T
   5    -41.1086438 -0.140922E-06  0.632E-03    9.32       3.6  T
   6    -41.1086438 -0.141175E-07  0.275E-03    9.32       8.4  T
   7    -41.1086438 -0.106957E-07  0.482E-04    9.32      47.6  T
speedup  1.11
cpu  time for SCC    0.00 s
wall time for SCC    0.00 s
speedup  1.04
cpu  time for grad    0.01 s
wall time for grad    0.01 s
 E :    -40.89944706  G :  0.034933    pred/act E change: -0.687D-03  0.808D-03
Maxdispl :   0.1228   ||displ|| :   0.1935   Lambda : -0.145D-02
Largest |displ|/coords:  0.1228 (   3)  0.0933 (   8)  0.0528 (  16)
................................................................................
.............................. CYCLE   23 ......................................
................................................................................
   1    -41.1087869 -0.411088E+02  0.167E-01    9.34       0.0  T
   2    -41.1087997 -0.128141E-04  0.125E-01    9.34       1.0  T
   3    -41.1088087 -0.901452E-05  0.240E-02    9.34       1.0  T
   4    -41.1088103 -0.154382E-05  0.494E-03    9.34       4.6  T
   5    -41.1088103 -0.259139E-07  0.253E-03    9.34       9.1  T
speedup  0.94
cpu  time for SCC    0.00 s
wall time for SCC    0.00 s
speedup  0.98
cpu  time for grad    0.01 s
wall time for grad    0.01 s
 E :    -40.90028483  G :  0.009634    pred/act E change: -0.720D-03 -0.838D-03
Maxdispl :   0.0892   ||displ|| :   0.2008   Lambda : -0.462D-03
Largest |displ|/coords:  0.0892 (   7)  0.0783 (   8)  0.0699 (   1)
................................................................................
.............................. CYCLE   24 ......................................
................................................................................
   1    -41.1051389 -0.411051E+02  0.226E-01    9.31       0.0  T
   2    -41.1051507 -0.118499E-04  0.171E-01    9.31       1.0  T
   3    -41.1051599 -0.915917E-05  0.224E-02    9.32       1.0  T
   4    -41.1051616 -0.173198E-05  0.557E-03    9.32       4.1  T
   5    -41.1051616 -0.250868E-07  0.276E-03    9.32       8.3  T
   6    -41.1051616 -0.447182E-08  0.125E-03    9.32      18.3  T
speedup  0.81
cpu  time for SCC    0.00 s
wall time for SCC    0.00 s
speedup  1.03
cpu  time for grad    0.01 s
wall time for grad    0.01 s
 E :    -40.90047634  G :  0.015451    pred/act E change: -0.752D-03 -0.192D-03
Maxdispl :   0.0626   ||displ|| :   0.0834   Lambda : -0.197D-03
Largest |displ|/coords:  0.0626 (   1)  0.0353 (   7)  0.0179 (   2)
................................................................................
.............................. CYCLE   25 ......................................
................................................................................
   1    -41.1053440 -0.411053E+02  0.709E-02    9.31       0.0  T
   2    -41.1053454 -0.137821E-05  0.536E-02    9.31       1.0  T
   3    -41.1053464 -0.102850E-05  0.762E-03    9.31       3.0  T
   4    -41.1053466 -0.191397E-06  0.181E-03    9.31      12.7  T
   5    -41.1053466 -0.223181E-08  0.796E-04    9.31      28.8  T
speedup  1.25
cpu  time for SCC    0.00 s
wall time for SCC    0.00 s
speedup  1.10
cpu  time for grad    0.01 s
wall time for grad    0.01 s
 E :    -40.90062512  G :  0.008875    pred/act E change: -0.241D-03 -0.149D-03
Maxdispl :   0.1941   ||displ|| :   0.2480   Lambda : -0.381D-03
Largest |displ|/coords:  0.1941 (   1)  0.0621 (  14)  0.0555 (   5)

generating ANC from model Hessian ...
 Shifting diagonal of input Hessian by   5.091941290855460E-003
 Lowest  eigenvalues of input Hessian
    0.005000   -0.000000   -0.000000    0.000000    0.000000    0.000000
    0.000000    0.005327    0.005434    0.005772    0.006072    0.006247
    0.006638    0.007186    0.007852    0.008964    0.012747    0.016135
 Highest eigenvalues
    1.409400    1.411881    1.438478    2.611950    3.517799    3.569248
 
cpu  time for ANC gen    0.01 s
wall time for ANC gen    0.01 s
................................................................................
.............................. CYCLE   26 ......................................
................................................................................
   1    -41.1060418 -0.411060E+02  0.187E-01    9.33       0.0  T
   2    -41.1060460 -0.420985E-05  0.141E-01    9.33       1.0  T
   3    -41.1060501 -0.410950E-05  0.145E-02    9.33       1.6  T
   4    -41.1060505 -0.391621E-06  0.547E-03    9.33       4.2  T
   5    -41.1060505 -0.208612E-07  0.143E-03    9.33      16.1  T
   6    -41.1060505 -0.142049E-08  0.809E-04    9.33      28.3  T
   7    -41.1060505 -0.850292E-09  0.224E-04    9.33     102.3  T
speedup  0.93
cpu  time for SCC    0.00 s
wall time for SCC    0.00 s
speedup  1.03
cpu  time for grad    0.01 s
wall time for grad    0.01 s
 E :    -40.90090730  G :  0.009090    pred/act E change:  0.000D+00 -0.282D-03
Maxdispl :   0.1317   ||displ|| :   0.2195   Lambda : -0.579D-03
Largest |displ|/coords:  0.1317 (   6)  0.0869 (   9)  0.0669 (   5)
................................................................................
.............................. CYCLE   27 ......................................
................................................................................
   1    -41.1057851 -0.411058E+02  0.265E-01    9.31       0.0  T
   2    -41.1057914 -0.634128E-05  0.201E-01    9.31       1.0  T
   3    -41.1057994 -0.793773E-05  0.126E-02    9.32       1.8  T
   4    -41.1057997 -0.287718E-06  0.414E-03    9.32       5.5  T
   5    -41.1057997 -0.635019E-08  0.204E-03    9.32      11.2  T
   6    -41.1057997 -0.387012E-08  0.634E-04    9.32      36.2  T
speedup  0.79
cpu  time for SCC    0.00 s
wall time for SCC    0.00 s
speedup  0.90
cpu  time for grad    0.01 s
wall time for grad    0.01 s
 E :    -40.90137186  G :  0.009113    pred/act E change:  0.000D+00 -0.465D-03
Maxdispl :   0.2284   ||displ|| :   0.4062   Lambda : -0.882D-03
Largest |displ|/coords:  0.2284 (   6)  0.1327 (  12)  0.1207 (   5)
................................................................................
.............................. CYCLE   28 ......................................
................................................................................
   1    -41.0992092 -0.410992E+02  0.489E-01    9.25       0.0  T
   2    -41.0992547 -0.454234E-04  0.369E-01    9.25       1.0  T
   3    -41.0992917 -0.370726E-04  0.415E-02    9.26       1.0  T
   4    -41.0992979 -0.616302E-05  0.941E-03    9.26       2.4  T
   5    -41.0992979 -0.314183E-07  0.566E-03    9.26       4.1  T
   6    -41.0992980 -0.308865E-07  0.120E-03    9.26      19.1  T
   7    -41.0992980 -0.354046E-08  0.426E-04    9.26      53.8  T
speedup  1.16
cpu  time for SCC    0.00 s
wall time for SCC    0.00 s
speedup  1.06
cpu  time for grad    0.01 s
wall time for grad    0.01 s
 E :    -40.90128485  G :  0.038949    pred/act E change: -0.303D-03  0.870D-04
Maxdispl :   0.0634   ||displ|| :   0.1576   Lambda : -0.181D-02
Largest |displ|/coords:  0.0634 (   3)  0.0620 (  10)  0.0618 (   2)
................................................................................
.............................. CYCLE   29 ......................................
................................................................................
   1    -41.1045955 -0.411046E+02  0.217E-01    9.26       0.0  T
   2    -41.1046225 -0.270020E-04  0.162E-01    9.26       1.0  T
   3    -41.1046419 -0.194308E-04  0.341E-02    9.26       1.0  T
   4    -41.1046452 -0.325686E-05  0.766E-03    9.26       3.0  T
   5    -41.1046452 -0.537122E-07  0.401E-03    9.26       5.7  T
   6    -41.1046453 -0.760099E-08  0.169E-03    9.26      13.6  T
speedup  1.03
cpu  time for SCC    0.00 s
wall time for SCC    0.00 s
speedup  1.01
cpu  time for grad    0.01 s
wall time for grad    0.01 s
 E :    -40.90200908  G :  0.014200    pred/act E change: -0.514D-03 -0.724D-03
Maxdispl :   0.0926   ||displ|| :   0.1530   Lambda : -0.508D-03
Largest |displ|/coords:  0.0926 (   7)  0.0463 (   1)  0.0444 (   5)
................................................................................
.............................. CYCLE   30 ......................................
................................................................................
   1    -41.1047239 -0.411047E+02  0.210E-01    9.26       0.0  T
   2    -41.1047336 -0.966468E-05  0.160E-01    9.26       1.0  T
   3    -41.1047418 -0.819821E-05  0.185E-02    9.26       1.2  T
   4    -41.1047431 -0.131195E-05  0.377E-03    9.26       6.1  T
   5    -41.1047431 -0.624532E-08  0.230E-03    9.26      10.0  T
   6    -41.1047431 -0.364194E-08  0.511E-04    9.26      44.9  T
speedup  0.81
cpu  time for SCC    0.00 s
wall time for SCC    0.00 s
speedup  0.92
cpu  time for grad    0.01 s
wall time for grad    0.01 s
 E :    -40.90234650  G :  0.010185    pred/act E change: -0.926D-03 -0.337D-03
Maxdispl :   0.1616   ||displ|| :   0.4274   Lambda : -0.962D-03
Largest |displ|/coords:  0.1616 (   9)  0.1422 (   5)  0.1421 (   1)
................................................................................
.............................. CYCLE   31 ......................................
................................................................................
   1    -41.1011203 -0.411011E+02  0.373E-01    9.21       0.0  T
   2    -41.1011626 -0.422906E-04  0.280E-01    9.22       1.0  T
   3    -41.1011873 -0.247160E-04  0.416E-02    9.22       1.0  T
   4    -41.1011941 -0.671020E-05  0.857E-03    9.22       2.7  T
   5    -41.1011941 -0.829245E-07  0.442E-03    9.22       5.2  T
   6    -41.1011941 -0.108494E-07  0.196E-03    9.22      11.7  T
   7    -41.1011942 -0.541136E-08  0.478E-04    9.22      48.0  T
speedup  1.14
cpu  time for SCC    0.01 s
wall time for SCC    0.00 s
speedup  1.06
cpu  time for grad    0.01 s
wall time for grad    0.01 s
 E :    -40.90287941  G :  0.026407    pred/act E change: -0.260D-03 -0.533D-03
Maxdispl :   0.1012   ||displ|| :   0.2645   Lambda : -0.756D-03
Largest |displ|/coords:  0.1012 (   7)  0.0941 (   1)  0.0936 (   6)
................................................................................
.............................. CYCLE   32 ......................................
................................................................................
   1    -41.0972971 -0.410973E+02  0.284E-01    9.18       0.0  T
   2    -41.0973160 -0.189256E-04  0.214E-01    9.19       1.0  T
   3    -41.0973281 -0.121094E-04  0.294E-02    9.19       1.0  T
   4    -41.0973312 -0.304907E-05  0.778E-03    9.19       2.9  T
   5    -41.0973312 -0.857786E-07  0.309E-03    9.19       7.4  T
   6    -41.0973313 -0.350996E-08  0.160E-03    9.19      14.3  T
speedup  1.05
cpu  time for SCC    0.00 s
wall time for SCC    0.00 s
speedup  1.01
cpu  time for grad    0.01 s
wall time for grad    0.01 s
 E :    -40.90329663  G :  0.025121    pred/act E change: -0.569D-03 -0.417D-03
Maxdispl :   0.1985   ||displ|| :   0.4031   Lambda : -0.238D-02
Largest |displ|/coords:  0.1985 (   1)  0.1571 (   3)  0.1530 (   2)
................................................................................
.............................. CYCLE   33 ......................................
................................................................................
   1    -41.1115895 -0.411116E+02  0.532E-01    9.24       0.0  T
   2    -41.1117047 -0.115188E-03  0.400E-01    9.24       1.0  T
   3    -41.1117752 -0.705869E-04  0.745E-02    9.24       1.0  T
   4    -41.1117905 -0.152701E-04  0.185E-02    9.24       1.2  T
   5    -41.1117912 -0.662971E-06  0.631E-03    9.24       3.6  T
   6    -41.1117912 -0.103730E-07  0.340E-03    9.24       6.8  T
   7    -41.1117912 -0.124766E-07  0.673E-04    9.24      34.1  T
speedup  0.93
cpu  time for SCC    0.00 s
wall time for SCC    0.00 s
speedup  0.82
cpu  time for grad    0.01 s
wall time for grad    0.01 s
 E :    -40.90063770  G :  0.071642    pred/act E change: -0.405D-03  0.266D-02
Maxdispl :   0.1763   ||displ|| :   0.3851   Lambda : -0.125D-01
Largest |displ|/coords:  0.1763 (   7)  0.1348 (  16)  0.1235 (   2)
................................................................................
.............................. CYCLE   34 ......................................
................................................................................
   1    -41.0868816 -0.410869E+02  0.676E-01    9.17       0.0  T
   2    -41.0871636 -0.281955E-03  0.502E-01    9.16       1.0  T
   3    -41.0873233 -0.159701E-03  0.113E-01    9.16       1.0  T
   4    -41.0873569 -0.335722E-04  0.270E-02    9.16       1.0  T
   5    -41.0873579 -0.108686E-05  0.104E-02    9.16       2.2  T
   6    -41.0873581 -0.122791E-06  0.601E-03    9.16       3.8  T
   7    -41.0873581 -0.360264E-07  0.117E-03    9.16      19.6  T
   8    -41.0873581 -0.218083E-08  0.246E-04    9.16      93.3  T
speedup  1.00
cpu  time for SCC    0.00 s
wall time for SCC    0.00 s
speedup  0.99
cpu  time for grad    0.01 s
wall time for grad    0.01 s
 E :    -40.90016240  G :  0.073883    pred/act E change: -0.138D-02  0.475D-03
Maxdispl :   0.1353   ||displ|| :   0.3313   Lambda : -0.121D-01
Largest |displ|/coords:  0.1353 (   7)  0.1043 (  13)  0.0973 (   2)
................................................................................
.............................. CYCLE   35 ......................................
................................................................................
   1    -41.1137112 -0.411137E+02  0.567E-01    9.35       0.0  T
   2    -41.1139237 -0.212534E-03  0.422E-01    9.35       1.0  T
   3    -41.1140664 -0.142639E-03  0.960E-02    9.35       1.0  T
   4    -41.1140901 -0.237480E-04  0.222E-02    9.35       1.0  T
   5    -41.1140906 -0.546170E-06  0.105E-02    9.35       2.2  T
   6    -41.1140907 -0.396641E-07  0.491E-03    9.35       4.7  T
   7    -41.1140907 -0.362618E-07  0.993E-04    9.35      23.1  T
speedup  0.85
cpu  time for SCC    0.00 s
wall time for SCC    0.00 s
speedup  0.93
cpu  time for grad    0.01 s
wall time for grad    0.01 s
 E :    -40.90231276  G :  0.048666    pred/act E change: -0.717D-02 -0.215D-02
Maxdispl :   0.0529   ||displ|| :   0.1226   Lambda : -0.287D-02
Largest |displ|/coords:  0.0529 (   7)  0.0433 (   4)  0.0348 (  14)
................................................................................
.............................. CYCLE   36 ......................................
................................................................................
   1    -41.1046379 -0.411046E+02  0.224E-01    9.29       0.0  T
   2    -41.1046627 -0.248280E-04  0.167E-01    9.29       1.0  T
   3    -41.1046781 -0.154302E-04  0.331E-02    9.29       1.0  T
   4    -41.1046811 -0.299014E-05  0.790E-03    9.29       2.9  T
   5    -41.1046812 -0.868653E-07  0.303E-03    9.29       7.6  T
   6    -41.1046812 -0.691217E-08  0.169E-03    9.29      13.6  T
speedup  1.05
cpu  time for SCC    0.00 s
wall time for SCC    0.00 s
speedup  1.02
cpu  time for grad    0.01 s
wall time for grad    0.01 s
 E :    -40.90379007  G :  0.008413    pred/act E change: -0.670D-02 -0.148D-02
Maxdispl :   0.0786   ||displ|| :   0.1308   Lambda : -0.266D-03
Largest |displ|/coords:  0.0786 (   1)  0.0640 (   7)  0.0391 (   4)
................................................................................
.............................. CYCLE   37 ......................................
................................................................................
   1    -41.1037082 -0.411037E+02  0.156E-01    9.27       0.0  T
   2    -41.1037120 -0.373027E-05  0.119E-01    9.27       1.0  T
   3    -41.1037152 -0.324816E-05  0.119E-02    9.27       1.9  T
   4    -41.1037157 -0.468247E-06  0.346E-03    9.27       6.6  T
   5    -41.1037157 -0.111112E-07  0.139E-03    9.27      16.5  T
   6    -41.1037157 -0.887169E-09  0.704E-04    9.27      32.6  T
speedup  1.05
cpu  time for SCC    0.00 s
wall time for SCC    0.00 s
speedup  1.01
cpu  time for grad    0.01 s
wall time for grad    0.01 s
 E :    -40.90398111  G :  0.009991    pred/act E change: -0.146D-02 -0.191D-03
Maxdispl :   0.2011   ||displ|| :   0.3121   Lambda : -0.400D-03
Largest |displ|/coords:  0.2011 (   1)  0.1168 (   7)  0.0969 (   8)
................................................................................
.............................. CYCLE   38 ......................................
................................................................................
   1    -41.0991863 -0.410992E+02  0.315E-01    9.23       0.0  T
   2    -41.0992056 -0.192859E-04  0.239E-01    9.23       1.0  T
   3    -41.0992193 -0.137260E-04  0.282E-02    9.24       1.0  T
   4    -41.0992223 -0.300989E-05  0.746E-03    9.23       3.1  T
   5    -41.0992224 -0.703822E-07  0.290E-03    9.23       7.9  T
   6    -41.0992224 -0.232865E-08  0.151E-03    9.23      15.2  T
speedup  1.05
cpu  time for SCC    0.00 s
wall time for SCC    0.00 s
speedup  1.01
cpu  time for grad    0.01 s
wall time for grad    0.01 s
 E :    -40.90415880  G :  0.020761    pred/act E change: -0.135D-03 -0.178D-03
Maxdispl :   0.1397   ||displ|| :   0.2172   Lambda : -0.444D-03
Largest |displ|/coords:  0.1397 (   1)  0.0979 (   3)  0.0525 (   6)
................................................................................
.............................. CYCLE   39 ......................................
................................................................................
   1    -41.1009304 -0.411009E+02  0.155E-01    9.22       0.0  T
   2    -41.1009393 -0.886255E-05  0.115E-01    9.22       1.0  T
   3    -41.1009439 -0.457128E-05  0.205E-02    9.22       1.1  T
   4    -41.1009451 -0.124343E-05  0.492E-03    9.22       4.7  T
   5    -41.1009452 -0.448664E-07  0.181E-03    9.22      12.7  T
speedup  0.94
cpu  time for SCC    0.00 s
wall time for SCC    0.00 s
speedup  0.95
cpu  time for grad    0.01 s
wall time for grad    0.01 s
 E :    -40.90440016  G :  0.016216    pred/act E change: -0.220D-03 -0.241D-03
Maxdispl :   0.1750   ||displ|| :   0.2550   Lambda : -0.749D-03
Largest |displ|/coords:  0.1750 (   1)  0.1137 (   4)  0.0618 (   7)
................................................................................
.............................. CYCLE   40 ......................................
................................................................................
   1    -41.1080655 -0.411081E+02  0.180E-01    9.35       0.0  T
   2    -41.1080739 -0.831121E-05  0.135E-01    9.35       1.0  T
   3    -41.1080814 -0.751605E-05  0.202E-02    9.34       1.1  T
   4    -41.1080822 -0.803918E-06  0.715E-03    9.34       3.2  T
   5    -41.1080822 -0.552619E-07  0.256E-03    9.34       9.0  T
   6    -41.1080822 -0.556501E-08  0.143E-03    9.34      16.0  T
speedup  1.05
cpu  time for SCC    0.00 s
wall time for SCC    0.00 s
speedup  1.01
cpu  time for grad    0.01 s
wall time for grad    0.01 s
 E :    -40.90457520  G :  0.019613    pred/act E change: -0.232D-03 -0.175D-03
Maxdispl :   0.1931   ||displ|| :   0.2895   Lambda : -0.619D-03
Largest |displ|/coords:  0.1931 (   1)  0.1126 (   8)  0.0936 (   7)
................................................................................
.............................. CYCLE   41 ......................................
................................................................................
   1    -41.1047129 -0.411047E+02  0.263E-01    9.35       0.0  T
   2    -41.1047221 -0.922164E-05  0.199E-01    9.34       1.0  T
   3    -41.1047297 -0.756549E-05  0.186E-02    9.34       1.2  T
   4    -41.1047309 -0.122408E-05  0.529E-03    9.34       4.3  T
   5    -41.1047309 -0.157055E-07  0.255E-03    9.34       9.0  T
   6    -41.1047309 -0.505270E-08  0.996E-04    9.34      23.0  T
speedup  1.08
cpu  time for SCC    0.00 s
wall time for SCC    0.00 s
speedup  1.02
cpu  time for grad    0.01 s
wall time for grad    0.01 s
 E :    -40.90491930  G :  0.010026    pred/act E change: -0.399D-03 -0.344D-03
Maxdispl :   0.2264   ||displ|| :   0.3592   Lambda : -0.402D-03
Largest |displ|/coords:  0.2264 (   1)  0.1179 (   7)  0.1131 (   6)
................................................................................
.............................. CYCLE   42 ......................................
................................................................................
   1    -41.0974603 -0.410975E+02  0.274E-01    9.24       0.0  T
   2    -41.0974757 -0.154332E-04  0.208E-01    9.24       1.0  T
   3    -41.0974900 -0.142488E-04  0.265E-02    9.24       1.0  T
   4    -41.0974919 -0.192528E-05  0.866E-03    9.24       2.6  T
   5    -41.0974920 -0.728708E-07  0.348E-03    9.24       6.6  T
   6    -41.0974920 -0.102394E-07  0.174E-03    9.24      13.2  T
   7    -41.0974920 -0.537781E-08  0.423E-04    9.24      54.2  T
speedup  0.93
cpu  time for SCC    0.00 s
wall time for SCC    0.00 s
speedup  0.97
cpu  time for grad    0.01 s
wall time for grad    0.01 s
 E :    -40.90482656  G :  0.022559    pred/act E change: -0.335D-03  0.927D-04
Maxdispl :   0.0456   ||displ|| :   0.1131   Lambda : -0.620D-03
Largest |displ|/coords:  0.0456 (   9)  0.0424 (   5)  0.0332 (   7)
................................................................................
.............................. CYCLE   43 ......................................
................................................................................
   1    -41.1034926 -0.411035E+02  0.125E-01    9.30       0.0  T
   2    -41.1035020 -0.937430E-05  0.926E-02    9.30       1.0  T
   3    -41.1035070 -0.507476E-05  0.210E-02    9.30       1.1  T
   4    -41.1035082 -0.120821E-05  0.418E-03    9.30       5.5  T
   5    -41.1035083 -0.254969E-07  0.203E-03    9.30      11.3  T
speedup  0.94
cpu  time for SCC    0.00 s
wall time for SCC    0.00 s
speedup  0.98
cpu  time for grad    0.01 s
wall time for grad    0.01 s
 E :    -40.90516454  G :  0.006022    pred/act E change: -0.227D-03 -0.338D-03
Maxdispl :   0.1677   ||displ|| :   0.1997   Lambda : -0.172D-03
Largest |displ|/coords:  0.1677 (   1)  0.0544 (   8)  0.0526 (   7)
................................................................................
.............................. CYCLE   44 ......................................
................................................................................
   1    -41.1044532 -0.411045E+02  0.126E-01    9.34       0.0  T
   2    -41.1044551 -0.188694E-05  0.954E-02    9.34       1.0  T
   3    -41.1044575 -0.239202E-05  0.843E-03    9.34       2.7  T
   4    -41.1044576 -0.103064E-06  0.291E-03    9.34       7.9  T
   5    -41.1044576 -0.775763E-08  0.115E-03    9.34      20.0  T
speedup  0.94
cpu  time for SCC    0.00 s
wall time for SCC    0.00 s
speedup  0.96
cpu  time for grad    0.01 s
wall time for grad    0.01 s
 E :    -40.90527965  G :  0.009207    pred/act E change: -0.314D-03 -0.115D-03
Maxdispl :   0.2891   ||displ|| :   0.3589   Lambda : -0.295D-03
Largest |displ|/coords:  0.2891 (   1)  0.1123 (   8)  0.1081 (   3)
................................................................................
.............................. CYCLE   45 ......................................
................................................................................
   1    -41.1048222 -0.411048E+02  0.196E-01    9.36       0.0  T
   2    -41.1048272 -0.508980E-05  0.149E-01    9.36       1.0  T
   3    -41.1048346 -0.734748E-05  0.140E-02    9.36       1.6  T
   4    -41.1048348 -0.213218E-06  0.532E-03    9.36       4.3  T
   5    -41.1048348 -0.297265E-07  0.211E-03    9.36      10.9  T
   6    -41.1048348 -0.407221E-08  0.112E-03    9.36      20.5  T
speedup  1.11
cpu  time for SCC    0.00 s
wall time for SCC    0.00 s
speedup  1.03
cpu  time for grad    0.01 s
wall time for grad    0.01 s
 E :    -40.90548850  G :  0.009315    pred/act E change: -0.894D-04 -0.209D-03
Maxdispl :   0.3780   ||displ|| :   0.4392   Lambda : -0.306D-03
Largest |displ|/coords:  0.3780 (   1)  0.1393 (   3)  0.0807 (   7)
................................................................................
.............................. CYCLE   46 ......................................
................................................................................
   1    -41.1034525 -0.411035E+02  0.220E-01    9.30       0.0  T
   2    -41.1034587 -0.621627E-05  0.166E-01    9.30       1.0  T
   3    -41.1034669 -0.812465E-05  0.154E-02    9.31       1.5  T
   4    -41.1034672 -0.367471E-06  0.599E-03    9.31       3.8  T
   5    -41.1034673 -0.331397E-07  0.233E-03    9.31       9.9  T
   6    -41.1034673 -0.552263E-08  0.129E-03    9.31      17.8  T
speedup  0.81
cpu  time for SCC    0.00 s
wall time for SCC    0.00 s
speedup  0.91
cpu  time for grad    0.01 s
wall time for grad    0.01 s
 E :    -40.90567406  G :  0.008719    pred/act E change: -0.166D-03 -0.186D-03
Maxdispl :   0.2671   ||displ|| :   0.3159   Lambda : -0.278D-03
Largest |displ|/coords:  0.2671 (   1)  0.0897 (   3)  0.0682 (   8)
................................................................................
.............................. CYCLE   47 ......................................
................................................................................
   1    -41.1026251 -0.411026E+02  0.173E-01    9.28       0.0  T
   2    -41.1026309 -0.580903E-05  0.131E-01    9.28       1.0  T
   3    -41.1026367 -0.588963E-05  0.155E-02    9.29       1.5  T
   4    -41.1026374 -0.695614E-06  0.584E-03    9.29       3.9  T
   5    -41.1026375 -0.397277E-07  0.226E-03    9.29      10.2  T
   6    -41.1026375 -0.435456E-08  0.118E-03    9.29      19.5  T
speedup  1.05
cpu  time for SCC    0.00 s
wall time for SCC    0.00 s
speedup  1.02
cpu  time for grad    0.01 s
wall time for grad    0.01 s
 E :    -40.90584709  G :  0.011663    pred/act E change: -0.182D-03 -0.173D-03
Maxdispl :   0.2115   ||displ|| :   0.2798   Lambda : -0.504D-03
Largest |displ|/coords:  0.2115 (   1)  0.0863 (   3)  0.0763 (   6)
................................................................................
.............................. CYCLE   48 ......................................
................................................................................
   1    -41.1087174 -0.411087E+02  0.187E-01    9.31       0.0  T
   2    -41.1087341 -0.166765E-04  0.139E-01    9.31       1.0  T
   3    -41.1087433 -0.918265E-05  0.287E-02    9.32       1.0  T
   4    -41.1087455 -0.217101E-05  0.668E-03    9.31       3.4  T
   5    -41.1087455 -0.755863E-07  0.272E-03    9.31       8.4  T
   6    -41.1087455 -0.280146E-08  0.149E-03    9.31      15.4  T
speedup  1.08
cpu  time for SCC    0.00 s
wall time for SCC    0.00 s
speedup  1.03
cpu  time for grad    0.01 s
wall time for grad    0.01 s
 E :    -40.90564510  G :  0.026748    pred/act E change: -0.153D-03  0.202D-03
Maxdispl :   0.1572   ||displ|| :   0.2087   Lambda : -0.909D-03
Largest |displ|/coords:  0.1572 (   1)  0.0905 (   8)  0.0612 (   9)
................................................................................
.............................. CYCLE   49 ......................................
................................................................................
   1    -41.1029020 -0.411029E+02  0.178E-01    9.30       0.0  T
   2    -41.1029141 -0.120878E-04  0.132E-01    9.30       1.0  T
   3    -41.1029207 -0.654655E-05  0.230E-02    9.30       1.0  T
   4    -41.1029223 -0.163977E-05  0.351E-03    9.30       6.5  T
   5    -41.1029223 -0.499337E-08  0.224E-03    9.30      10.3  T
speedup  1.29
cpu  time for SCC    0.00 s
wall time for SCC    0.00 s
speedup  1.10
cpu  time for grad    0.01 s
wall time for grad    0.01 s
 E :    -40.90613137  G :  0.009737    pred/act E change: -0.272D-03 -0.486D-03
Maxdispl :   0.0672   ||displ|| :   0.0895   Lambda : -0.139D-03
Largest |displ|/coords:  0.0672 (   1)  0.0286 (   7)  0.0276 (   9)
................................................................................
.............................. CYCLE   50 ......................................
................................................................................
   1    -41.1028886 -0.411029E+02  0.572E-02    9.26       0.0  T
   2    -41.1028897 -0.108499E-05  0.426E-02    9.26       1.0  T
   3    -41.1028905 -0.786248E-06  0.830E-03    9.26       2.8  T
   4    -41.1028906 -0.135158E-06  0.253E-03    9.26       9.1  T
   5    -41.1028907 -0.873799E-08  0.755E-04    9.26      30.4  T
speedup  0.97
cpu  time for SCC    0.00 s
wall time for SCC    0.00 s
speedup  0.98
cpu  time for grad    0.01 s
wall time for grad    0.01 s
 E :    -40.90621613  G :  0.008827    pred/act E change: -0.474D-03 -0.848D-04
Maxdispl :   0.2819   ||displ|| :   0.3423   Lambda : -0.204D-03
Largest |displ|/coords:  0.2819 (   1)  0.1433 (   3)  0.0833 (   7)
................................................................................
.............................. CYCLE   51 ......................................
................................................................................
   1    -41.1023713 -0.411024E+02  0.168E-01    9.24       0.0  T
   2    -41.1023748 -0.348368E-05  0.127E-01    9.24       1.0  T
   3    -41.1023788 -0.401685E-05  0.148E-02    9.24       1.6  T
   4    -41.1023791 -0.286154E-06  0.433E-03    9.24       5.3  T
   5    -41.1023791 -0.219985E-07  0.179E-03    9.24      12.8  T
   6    -41.1023791 -0.300565E-08  0.100E-03    9.24      22.9  T
speedup  0.81
cpu  time for SCC    0.00 s
wall time for SCC    0.00 s
speedup  0.91
cpu  time for grad    0.01 s
wall time for grad    0.01 s
 E :    -40.90635529  G :  0.008928    pred/act E change: -0.701D-04 -0.139D-03
Maxdispl :   0.2456   ||displ|| :   0.3371   Lambda : -0.253D-03
Largest |displ|/coords:  0.2456 (   1)  0.1442 (   3)  0.0839 (   4)
................................................................................
.............................. CYCLE   52 ......................................
................................................................................
   1    -41.1035021 -0.411035E+02  0.197E-01    9.29       0.0  T
   2    -41.1035082 -0.612311E-05  0.149E-01    9.29       1.0  T
   3    -41.1035157 -0.747477E-05  0.188E-02    9.29       1.2  T
   4    -41.1035162 -0.513112E-06  0.601E-03    9.29       3.8  T
   5    -41.1035163 -0.375954E-07  0.246E-03    9.29       9.3  T
   6    -41.1035163 -0.493792E-08  0.119E-03    9.29      19.3  T
speedup  1.05
cpu  time for SCC    0.00 s
wall time for SCC    0.00 s
speedup  1.01
cpu  time for grad    0.01 s
wall time for grad    0.01 s
 E :    -40.90649245  G :  0.011493    pred/act E change: -0.114D-03 -0.137D-03
Maxdispl :   0.1050   ||displ|| :   0.1604   Lambda : -0.270D-03
Largest |displ|/coords:  0.1050 (   3)  0.0742 (   1)  0.0443 (  15)

generating ANC from model Hessian ...
 Shifting diagonal of input Hessian by   4.951131370189029E-003
 Lowest  eigenvalues of input Hessian
   -0.000000   -0.000000   -0.000000   -0.000000    0.000000    0.000000
    0.005000    0.005048    0.005433    0.005548    0.006428    0.006958
    0.008182    0.008899    0.012118    0.014128    0.016975    0.020191
 Highest eigenvalues
    1.404375    1.413684    1.459654    2.634005    3.528821    3.536164
 
cpu  time for ANC gen    0.01 s
wall time for ANC gen    0.01 s
................................................................................
.............................. CYCLE   53 ......................................
................................................................................
   1    -41.1080669 -0.411081E+02  0.109E-01    9.32       0.0  T
   2    -41.1080739 -0.695086E-05  0.792E-02    9.32       1.0  T
   3    -41.1080779 -0.408474E-05  0.200E-02    9.32       1.1  T
   4    -41.1080785 -0.564332E-06  0.460E-03    9.32       5.0  T
   5    -41.1080785 -0.440851E-07  0.168E-03    9.32      13.6  T
   6    -41.1080786 -0.171480E-08  0.955E-04    9.32      24.0  T
   7    -41.1080786 -0.121348E-08  0.264E-04    9.32      86.8  T
speedup  1.14
cpu  time for SCC    0.00 s
wall time for SCC    0.00 s
speedup  1.02
cpu  time for grad    0.01 s
wall time for grad    0.01 s
 E :    -40.90649591  G :  0.011485    pred/act E change:  0.000D+00 -0.346D-05
Maxdispl :   0.1153   ||displ|| :   0.2157   Lambda : -0.514D-03
Largest |displ|/coords:  0.1153 (   5)  0.0984 (   4)  0.0629 (   7)
................................................................................
.............................. CYCLE   54 ......................................
................................................................................
   1    -41.1042334 -0.411042E+02  0.335E-01    9.31       0.0  T
   2    -41.1042491 -0.157147E-04  0.256E-01    9.31       1.0  T
   3    -41.1042676 -0.184648E-04  0.184E-02    9.31       1.2  T
   4    -41.1042686 -0.101467E-05  0.594E-03    9.31       3.9  T
   5    -41.1042686 -0.267971E-07  0.269E-03    9.31       8.5  T
   6    -41.1042686 -0.347518E-08  0.123E-03    9.31      18.7  T
speedup  1.05
cpu  time for SCC    0.00 s
wall time for SCC    0.00 s
speedup  1.01
cpu  time for grad    0.01 s
wall time for grad    0.01 s
 E :    -40.90686545  G :  0.010900    pred/act E change:  0.000D+00 -0.370D-03
Maxdispl :   0.1053   ||displ|| :   0.2037   Lambda : -0.299D-03
Largest |displ|/coords:  0.1053 (   6)  0.1039 (   1)  0.0650 (   4)
................................................................................
.............................. CYCLE   55 ......................................
................................................................................
   1    -41.1025459 -0.411025E+02  0.159E-01    9.30       0.0  T
   2    -41.1025498 -0.387698E-05  0.121E-01    9.30       1.0  T
   3    -41.1025547 -0.496446E-05  0.120E-02    9.30       1.9  T
   4    -41.1025550 -0.292014E-06  0.548E-03    9.30       4.2  T
   5    -41.1025551 -0.225062E-07  0.177E-03    9.30      13.0  T
   6    -41.1025551 -0.343366E-08  0.875E-04    9.30      26.2  T
speedup  0.79
cpu  time for SCC    0.00 s
wall time for SCC    0.00 s
speedup  0.90
cpu  time for grad    0.01 s
wall time for grad    0.01 s
 E :    -40.90704276  G :  0.013506    pred/act E change: -0.269D-03 -0.177D-03
Maxdispl :   0.0921   ||displ|| :   0.1451   Lambda : -0.224D-03
Largest |displ|/coords:  0.0921 (   1)  0.0741 (   4)  0.0583 (   2)
................................................................................
.............................. CYCLE   56 ......................................
................................................................................
   1    -41.1033514 -0.411034E+02  0.848E-02    9.30       0.0  T
   2    -41.1033532 -0.175603E-05  0.636E-02    9.30       1.0  T
   3    -41.1033544 -0.125513E-05  0.929E-03    9.30       2.5  T
   4    -41.1033547 -0.263105E-06  0.265E-03    9.30       8.7  T
   5    -41.1033547 -0.670777E-08  0.113E-03    9.30      20.2  T
speedup  1.25
cpu  time for SCC    0.00 s
wall time for SCC    0.00 s
speedup  1.08
cpu  time for grad    0.01 s
wall time for grad    0.01 s
 E :    -40.90722108  G :  0.008238    pred/act E change: -0.156D-03 -0.178D-03
Maxdispl :   0.3104   ||displ|| :   0.5006   Lambda : -0.572D-03
Largest |displ|/coords:  0.3104 (   1)  0.2887 (   4)  0.1284 (   3)
................................................................................
.............................. CYCLE   57 ......................................
................................................................................
   1    -41.0991557 -0.410992E+02  0.380E-01    9.27       0.0  T
   2    -41.0991755 -0.198653E-04  0.288E-01    9.27       1.0  T
   3    -41.0991948 -0.193155E-04  0.274E-02    9.27       1.0  T
   4    -41.0991971 -0.225119E-05  0.103E-02    9.27       2.2  T
   5    -41.0991972 -0.875898E-07  0.400E-03    9.27       5.7  T
   6    -41.0991972 -0.122874E-07  0.212E-03    9.27      10.8  T
   7    -41.0991972 -0.614403E-08  0.445E-04    9.27      51.6  T
speedup  1.16
cpu  time for SCC    0.00 s
wall time for SCC    0.00 s
speedup  1.06
cpu  time for grad    0.01 s
wall time for grad    0.01 s
 E :    -40.90740064  G :  0.023816    pred/act E change: -0.114D-03 -0.180D-03
Maxdispl :   0.1147   ||displ|| :   0.1882   Lambda : -0.882D-03
Largest |displ|/coords:  0.1147 (   1)  0.0758 (   2)  0.0612 (   3)
................................................................................
.............................. CYCLE   58 ......................................
................................................................................
   1    -41.1052360 -0.411052E+02  0.102E-01    9.27       0.0  T
   2    -41.1052466 -0.106745E-04  0.735E-02    9.27       1.0  T
   3    -41.1052530 -0.639080E-05  0.201E-02    9.27       1.1  T
   4    -41.1052538 -0.790491E-06  0.354E-03    9.27       6.5  T
   5    -41.1052538 -0.918060E-08  0.197E-03    9.27      11.7  T
speedup  0.97
cpu  time for SCC    0.00 s
wall time for SCC    0.00 s
speedup  0.98
cpu  time for grad    0.01 s
wall time for grad    0.01 s
 E :    -40.90777363  G :  0.008498    pred/act E change: -0.358D-03 -0.373D-03
Maxdispl :   0.2071   ||displ|| :   0.3003   Lambda : -0.385D-03
Largest |displ|/coords:  0.2071 (   1)  0.1347 (   4)  0.0752 (   2)
................................................................................
.............................. CYCLE   59 ......................................
................................................................................
   1    -41.1038359 -0.411038E+02  0.166E-01    9.26       0.0  T
   2    -41.1038396 -0.374580E-05  0.125E-01    9.26       1.0  T
   3    -41.1038437 -0.406274E-05  0.137E-02    9.26       1.7  T
   4    -41.1038441 -0.381658E-06  0.437E-03    9.26       5.2  T
   5    -41.1038441 -0.181376E-07  0.206E-03    9.26      11.2  T
   6    -41.1038441 -0.468118E-08  0.996E-04    9.26      23.0  T
speedup  1.08
cpu  time for SCC    0.00 s
wall time for SCC    0.00 s
speedup  1.02
cpu  time for grad    0.01 s
wall time for grad    0.01 s
 E :    -40.90810516  G :  0.008820    pred/act E change: -0.457D-03 -0.332D-03
Maxdispl :   0.4184   ||displ|| :   0.6181   Lambda : -0.677D-03
Largest |displ|/coords:  0.4184 (   1)  0.2933 (   4)  0.1595 (  11)
................................................................................
.............................. CYCLE   60 ......................................
................................................................................
   1    -41.0976595 -0.410977E+02  0.351E-01    9.25       0.0  T
   2    -41.0976841 -0.246080E-04  0.263E-01    9.25       1.0  T
   3    -41.0977024 -0.182234E-04  0.347E-02    9.25       1.0  T
   4    -41.0977059 -0.355176E-05  0.869E-03    9.25       2.6  T
   5    -41.0977060 -0.579552E-07  0.466E-03    9.25       4.9  T
   6    -41.0977060 -0.209404E-07  0.199E-03    9.25      11.6  T
   7    -41.0977060 -0.502055E-08  0.483E-04    9.25      47.5  T
speedup  0.91
cpu  time for SCC    0.00 s
wall time for SCC    0.00 s
speedup  0.95
cpu  time for grad    0.01 s
wall time for grad    0.01 s
 E :    -40.90808887  G :  0.032711    pred/act E change: -0.210D-03  0.163D-04
Maxdispl :   0.1004   ||displ|| :   0.1918   Lambda : -0.106D-02
Largest |displ|/coords:  0.1004 (   1)  0.0947 (   4)  0.0924 (   6)
................................................................................
.............................. CYCLE   61 ......................................
................................................................................
   1    -41.1042504 -0.411043E+02  0.147E-01    9.28       0.0  T
   2    -41.1042627 -0.122580E-04  0.108E-01    9.28       1.0  T
   3    -41.1042686 -0.596840E-05  0.232E-02    9.28       1.0  T
   4    -41.1042700 -0.139086E-05  0.580E-03    9.28       4.0  T
   5    -41.1042701 -0.585857E-07  0.205E-03    9.28      11.2  T
speedup  0.97
cpu  time for SCC    0.00 s
wall time for SCC    0.00 s
speedup  0.95
cpu  time for grad    0.01 s
wall time for grad    0.01 s
 E :    -40.90854702  G :  0.009717    pred/act E change: -0.468D-03 -0.458D-03
Maxdispl :   0.1702   ||displ|| :   0.2070   Lambda : -0.298D-03
Largest |displ|/coords:  0.1702 (   1)  0.0641 (   5)  0.0582 (   2)
................................................................................
.............................. CYCLE   62 ......................................
................................................................................
   1    -41.1047035 -0.411047E+02  0.887E-02    9.27       0.0  T
   2    -41.1047060 -0.250326E-05  0.671E-02    9.27       1.0  T
   3    -41.1047087 -0.262839E-05  0.110E-02    9.27       2.1  T
   4    -41.1047089 -0.284434E-06  0.436E-03    9.27       5.3  T
   5    -41.1047090 -0.181512E-07  0.143E-03    9.27      16.0  T
   6    -41.1047090 -0.232213E-08  0.724E-04    9.27      31.7  T
speedup  1.05
cpu  time for SCC    0.00 s
wall time for SCC    0.00 s
speedup  1.02
cpu  time for grad    0.01 s
wall time for grad    0.01 s
 E :    -40.90872594  G :  0.009622    pred/act E change: -0.547D-03 -0.179D-03
Maxdispl :   0.3554   ||displ|| :   0.4535   Lambda : -0.465D-03
Largest |displ|/coords:  0.3554 (   1)  0.1645 (   4)  0.1374 (   2)
................................................................................
.............................. CYCLE   63 ......................................
................................................................................
   1    -41.1040739 -0.411041E+02  0.213E-01    9.26       0.0  T
   2    -41.1040781 -0.421246E-05  0.160E-01    9.26       1.0  T
   3    -41.1040825 -0.442960E-05  0.146E-02    9.26       1.6  T
   4    -41.1040829 -0.392512E-06  0.408E-03    9.26       5.6  T
   5    -41.1040829 -0.173978E-07  0.194E-03    9.26      11.8  T
   6    -41.1040829 -0.542795E-08  0.994E-04    9.26      23.1  T
speedup  1.05
cpu  time for SCC    0.00 s
wall time for SCC    0.00 s
speedup  1.01
cpu  time for grad    0.01 s
wall time for grad    0.01 s
 E :    -40.90907715  G :  0.010041    pred/act E change: -0.156D-03 -0.351D-03
Maxdispl :   0.5001   ||displ|| :   0.6273   Lambda : -0.623D-03
Largest |displ|/coords:  0.5001 (   1)  0.1952 (  11)  0.1820 (   4)
................................................................................
.............................. CYCLE   64 ......................................
................................................................................
   1    -41.0984464 -0.410984E+02  0.307E-01    9.23       0.0  T
   2    -41.0984649 -0.185619E-04  0.232E-01    9.23       1.0  T
   3    -41.0984845 -0.196003E-04  0.289E-02    9.22       1.0  T
   4    -41.0984865 -0.202477E-05  0.809E-03    9.22       2.8  T
   5    -41.0984866 -0.468964E-07  0.461E-03    9.22       5.0  T
   6    -41.0984866 -0.259049E-07  0.124E-03    9.22      18.5  T
   7    -41.0984866 -0.185622E-08  0.321E-04    9.22      71.6  T
speedup  0.68
cpu  time for SCC    0.00 s
wall time for SCC    0.00 s
speedup  0.84
cpu  time for grad    0.01 s
wall time for grad    0.01 s
 E :    -40.90927581  G :  0.022129    pred/act E change: -0.280D-03 -0.199D-03
Maxdispl :   0.1204   ||displ|| :   0.1929   Lambda : -0.711D-03
Largest |displ|/coords:  0.1204 (   3)  0.0744 (   1)  0.0718 (   6)
................................................................................
.............................. CYCLE   65 ......................................
................................................................................
   1    -41.1034345 -0.411034E+02  0.151E-01    9.28       0.0  T
   2    -41.1034409 -0.638534E-05  0.113E-01    9.28       1.0  T
   3    -41.1034457 -0.477386E-05  0.188E-02    9.28       1.2  T
   4    -41.1034465 -0.814418E-06  0.527E-03    9.28       4.4  T
   5    -41.1034465 -0.293515E-07  0.201E-03    9.28      11.4  T
speedup  0.97
cpu  time for SCC    0.00 s
wall time for SCC    0.00 s
speedup  1.08
cpu  time for grad    0.01 s
wall time for grad    0.01 s
 E :    -40.90969482  G :  0.013245    pred/act E change: -0.434D-03 -0.419D-03
Maxdispl :   0.3149   ||displ|| :   0.3448   Lambda : -0.474D-03
Largest |displ|/coords:  0.3149 (   1)  0.0687 (   4)  0.0639 (  11)
................................................................................
.............................. CYCLE   66 ......................................
................................................................................
   1    -41.1041541 -0.411042E+02  0.177E-01    9.27       0.0  T
   2    -41.1041613 -0.722150E-05  0.133E-01    9.27       1.0  T
   3    -41.1041669 -0.552068E-05  0.184E-02    9.27       1.2  T
   4    -41.1041678 -0.986830E-06  0.468E-03    9.27       4.9  T
   5    -41.1041679 -0.215550E-07  0.209E-03    9.27      11.0  T
   6    -41.1041679 -0.317112E-08  0.103E-03    9.27      22.3  T
speedup  1.03
cpu  time for SCC    0.00 s
wall time for SCC    0.00 s
speedup  1.00
cpu  time for grad    0.01 s
wall time for grad    0.01 s
 E :    -40.91003554  G :  0.009505    pred/act E change: -0.369D-03 -0.341D-03
Maxdispl :   0.5882   ||displ|| :   0.6928   Lambda : -0.809D-03
Largest |displ|/coords:  0.5882 (   1)  0.1802 (   3)  0.1634 (  11)
[...]
   3    -41.1136402 -0.439567E-08  0.624E-04    9.34      36.8  T
   4    -41.1136402 -0.693156E-09  0.222E-04    9.34     103.5  T
speedup  0.80
cpu  time for SCC    0.00 s
wall time for SCC    0.00 s
speedup  1.00
cpu  time for grad    0.01 s
wall time for grad    0.01 s
 E :    -40.91820688  G :  0.000286    pred/act E change: -0.212D-06 -0.324D-06
Maxdispl :   0.0084   ||displ|| :   0.0150   Lambda : -0.736D-06
Largest |displ|/coords:  0.0084 (   4)  0.0049 (  11)  0.0049 (   2)
................................................................................
.............................. CYCLE  121 ......................................
................................................................................
   1    -41.1136676 -0.411137E+02  0.147E-02    9.34       0.0  T
   2    -41.1136676 -0.276848E-07  0.110E-02    9.34       2.1  T
   3    -41.1136677 -0.237875E-07  0.144E-03    9.34      15.9  T
   4    -41.1136677 -0.310910E-08  0.509E-04    9.34      45.1  T
   5    -41.1136677 -0.175625E-09  0.848E-05    9.34     270.7  T
speedup  0.94
cpu  time for SCC    0.00 s
wall time for SCC    0.00 s
speedup  1.03
cpu  time for grad    0.01 s
wall time for grad    0.01 s
 E :    -40.91820737  G :  0.000293    pred/act E change: -0.193D-06 -0.493D-06
Maxdispl :   0.0046   ||displ|| :   0.0097   Lambda : -0.355D-06
Largest |displ|/coords:  0.0046 (   4)  0.0036 (  11)  0.0028 (  19)
................................................................................
.............................. CYCLE  122 ......................................
................................................................................
   1    -41.1136782 -0.411137E+02  0.941E-03    9.34       0.0  T
   2    -41.1136782 -0.113192E-07  0.704E-03    9.34       3.3  T
   3    -41.1136782 -0.102072E-07  0.981E-04    9.34      23.4  T
   4    -41.1136782 -0.113038E-08  0.321E-04    9.34      71.4  T
speedup  0.77
cpu  time for SCC    0.00 s
wall time for SCC    0.00 s
speedup  0.98
cpu  time for grad    0.01 s
wall time for grad    0.01 s
 E :    -40.91820766  G :  0.000344    pred/act E change: -0.368D-06 -0.286D-06
Maxdispl :   0.0054   ||displ|| :   0.0146   Lambda : -0.614D-06
Largest |displ|/coords:  0.0054 (  11)  0.0049 (  25)  0.0048 (   4)
................................................................................
.............................. CYCLE  123 ......................................
................................................................................
   1    -41.1136835 -0.411137E+02  0.139E-02    9.34       0.0  T
   2    -41.1136835 -0.251124E-07  0.104E-02    9.34       2.2  T
   3    -41.1136835 -0.233545E-07  0.156E-03    9.34      14.7  T
   4    -41.1136835 -0.225682E-08  0.458E-04    9.34      50.1  T
   5    -41.1136835 -0.206590E-09  0.829E-05    9.34     276.8  T
speedup  0.97
cpu  time for SCC    0.00 s
wall time for SCC    0.00 s
speedup  1.05
cpu  time for grad    0.01 s
wall time for grad    0.01 s
 E :    -40.91820813  G :  0.000400    pred/act E change: -0.178D-06 -0.469D-06
Maxdispl :   0.0064   ||displ|| :   0.0172   Lambda : -0.662D-06
Largest |displ|/coords:  0.0064 (  25)  0.0061 (  11)  0.0059 (  19)
................................................................................
.............................. CYCLE  124 ......................................
................................................................................
   1    -41.1136648 -0.411137E+02  0.168E-02    9.34       0.0  T
   2    -41.1136648 -0.358033E-07  0.125E-02    9.34       1.8  T
   3    -41.1136648 -0.341876E-07  0.197E-03    9.34      11.7  T
   4    -41.1136648 -0.297894E-08  0.570E-04    9.34      40.2  T
   5    -41.1136648 -0.343455E-09  0.976E-05    9.34     235.0  T
speedup  0.97
cpu  time for SCC    0.00 s
wall time for SCC    0.00 s
speedup  0.93
cpu  time for grad    0.01 s
wall time for grad    0.01 s
 E :    -40.91820859  G :  0.000456    pred/act E change: -0.307D-06 -0.466D-06
Maxdispl :   0.0048   ||displ|| :   0.0120   Lambda : -0.548D-06
Largest |displ|/coords:  0.0048 (  25)  0.0040 (   6)  0.0038 (  26)
................................................................................
.............................. CYCLE  125 ......................................
................................................................................
   1    -41.1136626 -0.411137E+02  0.112E-02    9.34       0.0  T
   2    -41.1136626 -0.155877E-07  0.834E-03    9.34       2.8  T
   3    -41.1136626 -0.159961E-07  0.134E-03    9.34      17.1  T
   4    -41.1136626 -0.114766E-08  0.345E-04    9.34      66.5  T
   5    -41.1136626 -0.159510E-09  0.661E-05    9.34     347.0  T
speedup  0.94
cpu  time for SCC    0.00 s
wall time for SCC    0.00 s
speedup  0.92
cpu  time for grad    0.01 s
wall time for grad    0.01 s
 E :    -40.91820901  G :  0.000435    pred/act E change: -0.331D-06 -0.418D-06
Maxdispl :   0.0055   ||displ|| :   0.0134   Lambda : -0.666D-06
Largest |displ|/coords:  0.0055 (  25)  0.0048 (   5)  0.0044 (  12)
................................................................................
.............................. CYCLE  126 ......................................
................................................................................
   1    -41.1136506 -0.411137E+02  0.128E-02    9.34       0.0  T
   2    -41.1136506 -0.245606E-07  0.953E-03    9.34       2.4  T
   3    -41.1136506 -0.199815E-07  0.165E-03    9.34      13.9  T
   4    -41.1136506 -0.264480E-08  0.517E-04    9.34      44.3  T
   5    -41.1136506 -0.221256E-09  0.752E-05    9.34     305.2  T
speedup  0.94
cpu  time for SCC    0.00 s
wall time for SCC    0.00 s
speedup  1.03
cpu  time for grad    0.01 s
wall time for grad    0.01 s
 E :    -40.91820947  G :  0.000318    pred/act E change: -0.274D-06 -0.460D-06
Maxdispl :   0.0030   ||displ|| :   0.0082   Lambda : -0.388D-06
Largest |displ|/coords:  0.0030 (  25)  0.0026 (  12)  0.0026 (   5)
................................................................................
.............................. CYCLE  127 ......................................
................................................................................
   1    -41.1136557 -0.411137E+02  0.758E-03    9.34       0.0  T
   2    -41.1136557 -0.127768E-07  0.563E-03    9.34       4.1  T
   3    -41.1136557 -0.655405E-08  0.113E-03    9.34      20.2  T
   4    -41.1136557 -0.185835E-08  0.352E-04    9.34      65.2  T
   5    -41.1136557 -0.777902E-10  0.506E-05    9.34     453.4  T
speedup  0.97
cpu  time for SCC    0.00 s
wall time for SCC    0.00 s
speedup  1.03
cpu  time for grad    0.01 s
wall time for grad    0.01 s
 E :    -40.91820975  G :  0.000220    pred/act E change: -0.333D-06 -0.279D-06
Maxdispl :   0.0029   ||displ|| :   0.0074   Lambda : -0.311D-06
Largest |displ|/coords:  0.0029 (  25)  0.0026 (  19)  0.0024 (  26)
................................................................................
.............................. CYCLE  128 ......................................
................................................................................
   1    -41.1136623 -0.411137E+02  0.768E-03    9.34       0.0  T
   2    -41.1136623 -0.158767E-07  0.564E-03    9.34       4.1  T
   3    -41.1136623 -0.609293E-08  0.129E-03    9.34      17.8  T
   4    -41.1136623 -0.221250E-08  0.397E-04    9.34      57.7  T
   5    -41.1136623 -0.858336E-10  0.487E-05    9.34     471.2  T
speedup  0.91
cpu  time for SCC    0.00 s
wall time for SCC    0.00 s
speedup  1.02
cpu  time for grad    0.01 s
wall time for grad    0.01 s
 E :    -40.91820997  G :  0.000238    pred/act E change: -0.194D-06 -0.220D-06
Maxdispl :   0.0025   ||displ|| :   0.0065   Lambda : -0.234D-06
Largest |displ|/coords:  0.0025 (  19)  0.0024 (   8)  0.0023 (   9)
................................................................................
.............................. CYCLE  129 ......................................
................................................................................
   1    -41.1136903 -0.411137E+02  0.620E-03    9.34       0.0  T
   2    -41.1136903 -0.104790E-07  0.457E-03    9.34       5.0  T
   3    -41.1136903 -0.350643E-08  0.102E-03    9.34      22.5  T
   4    -41.1136903 -0.159363E-08  0.317E-04    9.34      72.3  T
   5    -41.1136903 -0.534968E-10  0.432E-05    9.34     531.0  T
speedup  0.97
cpu  time for SCC    0.00 s
wall time for SCC    0.00 s
speedup  0.91
cpu  time for grad    0.01 s
wall time for grad    0.01 s
 E :    -40.91821014  G :  0.000244    pred/act E change: -0.155D-06 -0.167D-06
Maxdispl :   0.0035   ||displ|| :   0.0075   Lambda : -0.184D-06
Largest |displ|/coords:  0.0035 (  19)  0.0025 (   9)  0.0024 (  25)
................................................................................
.............................. CYCLE  130 ......................................
................................................................................
   1    -41.1137045 -0.411137E+02  0.785E-03    9.34       0.0  T
   2    -41.1137045 -0.122431E-07  0.581E-03    9.34       4.0  T
   3    -41.1137045 -0.469425E-08  0.112E-03    9.34      20.5  T
   4    -41.1137045 -0.198591E-08  0.361E-04    9.34      63.5  T
   5    -41.1137045 -0.627480E-10  0.428E-05    9.34     535.5  T
speedup  1.25
cpu  time for SCC    0.00 s
wall time for SCC    0.00 s
speedup  1.03
cpu  time for grad    0.01 s
wall time for grad    0.01 s
 E :    -40.91821026  G :  0.000212    pred/act E change: -0.117D-06 -0.127D-06
Maxdispl :   0.0020   ||displ|| :   0.0044   Lambda : -0.121D-06
Largest |displ|/coords:  0.0020 (  19)  0.0016 (   8)  0.0015 (   9)
................................................................................
.............................. CYCLE  131 ......................................
................................................................................
   1    -41.1137340 -0.411137E+02  0.350E-03    9.34       0.0  T
   2    -41.1137340 -0.343110E-08  0.262E-03    9.34       8.8  T
   3    -41.1137340 -0.902439E-09  0.506E-04    9.34      45.3  T
   4    -41.1137340 -0.647375E-09  0.149E-04    9.34     154.4  T
speedup  1.15
cpu  time for SCC    0.00 s
wall time for SCC    0.00 s
speedup  0.99
cpu  time for grad    0.01 s
wall time for grad    0.01 s
 E :    -40.91821034  G :  0.000139    pred/act E change: -0.921D-07 -0.793D-07
Maxdispl :   0.0022   ||displ|| :   0.0045   Lambda : -0.728D-07
Largest |displ|/coords:  0.0022 (  19)  0.0016 (  11)  0.0014 (  25)

   *** GEOMETRY OPTIMIZATION CONVERGED AFTER 131 ITERATIONS ***

------------------------------------------------------------------------
 total energy gain (kcal):     -0.0055
------------------------------------------------------------------------
================
 final structure:
================
$coord
       -2.88855702128463       -2.08350520951748       -1.18043022099989      S 
       -3.48037682740832       -0.65331691445032        1.09278232863042      O 
       -2.06607879728985       -0.37528663183151       -3.21831212846350      O 
       -1.14020405412915       -4.12406763683989       -0.75058019242682      O 
       -5.44793084746206       -3.27178939932693       -2.14141565418480      O 
       -6.45496759440085       -1.81570035043222       -2.46436830890674      H 
        2.01448649964845        4.56586998051552        0.54046233955995      O 
        1.29019991781933        3.44373599160217        1.83159636575099      H 
        3.57774966016318        5.20047977513201        1.20224525212366      H 
        0.36101140708568        0.89407491376360        3.60359540075942      O 
       -0.15379157948694        1.00768213465702        5.33677606456426      H 
       -1.17230027987394        0.30596804268480        2.66318946328199      H 
        2.34914935701229        1.02673557853653       -2.79375330127015      O 
        2.21962817016195        2.62168426460445       -1.74259506675623      H 
        0.43824651469529        0.45930634537732       -3.16539580522045      H 
        3.19746229369803       -2.20579657757612        0.55988067274407      O 
        1.77636052865950       -3.32452993062244        0.09923440731537      H 
        2.97688748006729       -0.37346022025210       -1.51704336978473      H 
        2.60302519112164       -1.29808409933359        2.04413173441183      H 
$end
 
 Bond Distances (Angstroems)
 ---------------------------
S1-O2=1.4553         S1-O3=1.4729         S1-O4=1.4400         S1-O5=1.5774         O2-S1=1.4553         O3-S1=1.4729         
O4-S1=1.4400         O5-S1=1.5774         O5-H6=0.9523         H6-O5=0.9523         O7-H8=0.9830         O7-H9=0.9590         
H8-O7=0.9830         H9-O7=0.9590         O10-H11=0.9587       O10-H12=1.0014       H11-O10=0.9587       H12-O10=1.0014       
O13-H14=1.0131       O13-H15=1.0730       O13-H18=1.0563       H14-O13=1.0131       H15-O13=1.0730       O16-H17=0.9876       
O16-H19=0.9729       H17-O16=0.9876       H18-O13=1.0563       H19-O16=0.9729       
 O  H  Rav=0.9957 sigma=0.0392  Rmin=0.9523  Rmax=1.0730    10
 S  O  Rav=1.4864 sigma=0.0538  Rmin=1.4400  Rmax=1.5774     4
 
 selected bond angles (degree)
 --------------------
O3-S1-O2=110.46                O4-S1-O2=113.43                O4-S1-O3=112.71                O5-S1-O2=106.80                
O5-S1-O3=105.21                O5-S1-O4=107.68                H6-O5-S1=102.46                H9-O7-H8=107.10                
H12-O10-H11=105.35             
 
 selected dihedral angles (degree)
 ---------------------------------
H6-O5-S1-O2= 60.86            H6-O5-S1-O3=303.44            H6-O5-S1-O4=183.01            
 
 CMA Distance (Angstroems)
 ---------------------------
R(CMA):  3.2359

========================================================================
 FINAL SINGLEPOINT CALCULATION ON OPTIMIZED GEOMETRY
========================================================================

 Ncao       : 52
 Nao        : 51
 Nshell     : 29
 Nel        : 64
 T(el)      :   300.0
 intcut     :    25.0
 scfconv/Eh :  0.100E-05
   qconv/e  :  0.100E-03
 intneglect :  0.100E-07
 broydamp   :      0.250
 iter      E             dE          RMSdq      gap      omega  full diag
   1    -41.1137340 -0.411137E+02  0.466E-05    9.34       0.0  T
   2    -41.1137340 -0.122924E-11  0.293E-05    9.34     783.1  T
   3    -41.1137340 -0.611067E-12  0.441E-06    9.34    5199.2  T
speedup  1.11
cpu  time for SCC    0.00 s
wall time for SCC    0.00 s

   *** convergence criteria satisfied after 3 iterations ***

          eigenvalues
 #    :          20         21         22         23         24         25         26         27
 occ. :        2.000      2.000      2.000      2.000      2.000      2.000      2.000      2.000
 eps  :       -14.544    -14.197    -13.948    -13.525    -12.918    -12.697    -12.630    -12.525
 #    :          28         29         30         31         32         33         34         35
 occ. :        2.000      2.000      2.000      2.000      2.000      0.000      0.000      0.000
 eps  :       -12.472    -12.357    -12.097    -12.052    -11.833     -2.492     -0.631     -0.549
 #    :          36         37         38         39         40         41         42         43
 occ. :        0.000      0.000      0.000      0.000      0.000      0.000      0.000      0.000
 eps  :         0.672      1.070      1.998      2.247      3.781      4.650      6.210      7.076


   #   Z            q   n(s)   n(p)   n(d)      C6AA      α(0)
   1  16 S      1.652  1.581  1.803  0.965    89.870    15.955
   2   8 O     -0.734  1.770  4.964  0.000    29.653     7.301
   3   8 O     -0.730  1.771  4.959  0.000    29.469     7.281
   4   8 O     -0.698  1.759  4.939  0.000    28.653     7.177
   5   8 O     -0.570  1.747  4.823  0.000    24.447     6.675
   6   1 H      0.348  0.652  0.000  0.000     0.585     1.197
   7   8 O     -0.598  1.746  4.852  0.000    25.140     6.767
   8   1 H      0.337  0.663  0.000  0.000     0.619     1.236
   9   1 H      0.295  0.705  0.000  0.000     0.735     1.347
  10   8 O     -0.638  1.748  4.891  0.000    26.126     6.898
  11   1 H      0.292  0.708  0.000  0.000     0.744     1.355
  12   1 H      0.341  0.659  0.000  0.000     0.609     1.226
  13   8 O     -0.511  1.731  4.780  0.000    23.074     6.488
  14   1 H      0.379  0.621  0.000  0.000     0.527     1.141
  15   1 H      0.393  0.607  0.000  0.000     0.492     1.098
  16   8 O     -0.605  1.754  4.851  0.000    25.282     6.787
  17   1 H      0.340  0.660  0.000  0.000     0.612     1.229
  18   1 H      0.382  0.618  0.000  0.000     0.518     1.130
  19   1 H      0.326  0.674  0.000  0.000     0.649     1.265

 Mol. C6AA /au·bohr⁶  :       3376.182808
 Mol. C8AA /au·bohr⁸  :      76519.081914
 Mol. α(0) /au        :         83.552243

 
 Wiberg/Mayer (AO) data. WBOs > 0.1 written file <wbo>
 largest (>0.05) Wiberg bond orders for each atom
           total WBO             WBO to atom ...
     1  S   4.891    O    4 1.385    O    2 1.308    O    3 1.235    O    5 0.918
     2  O   1.736    S    1 1.308    O    4 0.115    O    3 0.106    H   12 0.096    O    5 0.074
     3  O   1.772    S    1 1.235    H   15 0.196    O    4 0.110    O    2 0.106    O    5 0.066    O   13 0.056
     4  O   1.770    S    1 1.385    O    2 0.115    O    3 0.110    H   17 0.064    O    5 0.063
     5  O   1.995    S    1 0.918    H    6 0.862    O    2 0.074    O    3 0.066    O    4 0.063
     6  H   0.879    O    5 0.862
     7  O   1.918    H    9 0.909    H    8 0.823    H   14 0.110
     8  H   0.886    O    7 0.823    O   10 0.061
     9  H   0.913    O    7 0.909
    10  O   1.871    H   11 0.905    H   12 0.782    H    8 0.061
    11  H   0.914    O   10 0.905
    12  H   0.883    O   10 0.782    O    2 0.096
    13  O   2.236    H   14 0.744    H   18 0.666    H   15 0.640    O   16 0.066    O    3 0.056
    14  H   0.857    O   13 0.744    O    7 0.110
    15  H   0.846    O   13 0.640    O    3 0.196
    16  O   1.978    H   19 0.856    H   17 0.816    H   18 0.185    O   13 0.066
    17  H   0.884    O   16 0.816    O    4 0.064
    18  H   0.854    O   13 0.666    O   16 0.185
    19  H   0.894    O   16 0.856
 MOs/occ written to file <molden.input>
 
molecular dipole:
                 x           y           z       tot (Debye)
 q only:        1.028       1.505       0.613
   full:        0.264       1.407       1.046       4.507
molecular quadrupole (traceless):
                xx          xy          yy          xz          yz          zz
 q only:        3.948       1.859      -7.319       2.195       0.829       3.371
  q+dip:        4.864       3.986      -8.869       4.664       2.603       4.005
   full:        5.321       4.352      -9.224       4.990       2.714       3.903

SCC energy    :     -41.1137340
rep           :       0.1954341
ES            :       0.2004885
AES           :      -0.0516545
AXC           :      -0.0102617
disp          :      -0.0134491
XB            :       0.0000000
fix           :       0.0000000
total E       :     -40.9182103
atomizationE  :       3.7123976     2329.56
(atE without considering molecular charge,
 total energy contains solvation terms)
H-L gap (eV)  :          9.3416
optimized geometry written to: xtbopt.xyz


------------------------------------------------------------------------
 * finished run on 2019/09/03 at 07:15:29.751     
------------------------------------------------------------------------
 total:
 * wall-time:     0 d,  0 h,  0 min,  1.936 sec
 *  cpu-time:     0 d,  0 h,  0 min,  1.914 sec
 * ratio c/w:     0.988 speedup
 SCF:
 * wall-time:     0 d,  0 h,  0 min,  0.093 sec
 *  cpu-time:     0 d,  0 h,  0 min,  0.090 sec
 * ratio c/w:     0.963 speedup
 ANC optimizer:
 * wall-time:     0 d,  0 h,  0 min,  1.820 sec
 *  cpu-time:     0 d,  0 h,  0 min,  1.804 sec
 * ratio c/w:     0.991 speedup

