      -----------------------------------------------------------      
     |                   =====================                   |     
     |                           x T B                           |     
     |                   =====================                   |     
     |                         S. Grimme                         |     
     |          Mulliken Center for Theoretical Chemistry        |     
     |                    University of Bonn                     |     
     |                 Version 6.0.1 (SAW181210)                 |     
      -----------------------------------------------------------      

   This program is distributed in the hope that it will be useful,
   but WITHOUT ANY WARRANTY; without even the implied warranty of
   MERCHANTABILITY or FITNESS FOR A PARTICULAR PURPOSE.
   
   FOR NON-COMMERCIAL, ACADEMIA USE ONLY.
   
   Cite this work as:
   S. Grimme, C. Bannwarth, P. Shushkov, J. Comput. Theory Chem., 2017,
   13, 1989-2009.
   C. Bannwarth, S. Ehlert and S. Grimme., ChemRxiv, 2018, preprint.
   http://doi.org/10.26434/chemrxiv.7246238.v1
   
   for sTDA-xTB:
   S. Grimme and C. Bannwarth, J. Chem. Phys., 2016, 145, 054103.
   
   in the mass-spec context:
   V. Asgeirsson, C. Bauer and S. Grimme, Chem. Sci., 2017, 8, 4879.
   
   if GBSA is used:
   P. Shushkov, F. März and S. Grimme, unpublished.
   
   for ANC optimizer:
   S. Grimme, unpublished.
   Rational Function algorithm used in ANCopt:
   F. Eckert, P. Pulay, H.-J. Werner, J. Comput. Chem., 1997, 18, 1473.
   
   with help from (in alphabetical order)
   C. Bannwarth, F. Bohle, G. Brandenburg, E. Caldeweyher, M. Checinski,
   S. Dohm, S. Ehlert, S. Ehrlich, F. März, H. Neugebauer, J. Pisarek,
   P. Pracht, P. Shushkov, and S. Spicher.
   
 * started run on 2019/09/03 at 07:16:12.619     
========================================================================
 # omp threads = 1
========================================================================
number of atoms            : 19
number of electrons        : 64
charge                     : 0
spin                       : .0
first test random number   : .2540

########################################################################
# WARNING! Please study the warnings concerning your input carefully
#  - XTBPATH is not set, using XTBHOME instead
#  - the use of '-opt' is discouraged, please use '--opt' next time
#  - the use of '-chrg' is discouraged, please use '--chrg' next time
#  - the use of '-uhf' is discouraged, please use '--uhf' next time
########################################################################

           ------------------------------------------------- 
          |                 G F N 2 - x T B                 |
          | Geometry, Frequencies, Noncovalent interactions |
          |            JCTC 2018 parametrisation            |
           ------------------------------------------------- 
      method parameters     
 k(s)        :  1.8500
 k(p)        :  2.2300
 k(d)        :  2.2300
 k(f)        :  2.0000
 kEN (H0ij)  : -2.0000
 D4 a1       :  0.5200
 D4 a2       :  5.0000
 D4 s6       :  1.0000
 D4 s8       :  2.7000
 D4 s9       :  5.0000
 alphaj      :  2.0000


            Z     q(EN)     CN     RAES       Cart. coordinates
     1  S   6.0    0.64    4.28    4.21     0.95286     2.97203     2.80237
     2  O   6.0   -0.30    1.18    1.80     3.36767     3.29142     1.39000
     3  O   6.0   -0.31    1.21    1.80    -1.21390     3.18385     1.01675
     4  O   6.0   -0.30    1.20    1.80     0.91222     0.43896     4.03119
     5  O   6.0   -0.24    2.08    1.84     0.74827     4.94649     4.74457
     6  H   1.0    0.15    1.21    1.47     0.77438     6.57894     3.95366
     7  O   6.0   -0.28    2.03    1.83     3.88166     1.02814    -3.16552
     8  H   1.0    0.18    1.03    1.43     4.06311     1.80796    -1.53041
     9  H   1.0    0.15    0.97    1.43     5.56951     0.92638    -3.84037
    10  O   6.0   -0.26    1.92    1.82    -5.30974    -4.04362    -2.85156
    11  H   1.0    0.15    0.97    1.43    -6.61535    -3.71491    -1.62603
    12  H   1.0    0.15    0.97    1.43    -6.07537    -3.71553    -4.47044
    13  O   6.0   -0.28    2.03    1.83     0.08861    -3.82744     1.55877
    14  H   1.0    0.18    1.05    1.44     0.50131    -2.45595     2.68275
    15  H   1.0    0.15    0.97    1.43    -0.04425    -5.29868     2.62292
    16  O   6.0   -0.21    2.90    2.54    -0.67063    -0.60476    -2.12238
    17  H   1.0    0.14    1.04    1.43     0.93935    -0.18240    -2.97058
    18  H   1.0    0.15    1.03    1.43    -0.53553    -2.16157    -1.09863
    19  H   1.0    0.15    1.07    1.44    -1.33418     0.83070    -1.12706

  Z AO/shell   Hii/eV     exponent
  1     Wed Apr 25 08:07:45 CEST 2018   EN: 2.200 GM2: 0.406  GM3: 0.0800  RAES: 1.40
     1s    -10.707211    1.230000
  8     Wed Apr 25 08:07:45 CEST 2018   EN: 3.440 GM2: 0.452  GM3:-0.0517  RAES: 1.80
     2s    -20.229985    2.439742
     2p    -15.503117    2.137023
 16     Tue Apr 24 11:44:34 CEST 2018   EN: 2.580 GM2: 0.340  GM3:-0.0502  RAES: 3.10
     3s    -20.029654    1.981333
     3p    -11.377694    2.025643
     3d     -0.420282    1.702555
 no old-style atom pair restraining (fixing) potential

molecular fragmentation (1/2 indicates fragments):
1111112222222222222
# atoms in fragment 1/2:     6    13
 fragment masses (1/2) :       97.07       73.07
CMA distance (Bohr)    :   6.694
constraining FC (au)   :  0.0500
           ------------------------------------------------- 
          |        Self-Consistent Charge Iterations        |
           ------------------------------------------------- 

 Ncao       : 52
 Nao        : 51
 Nshell     : 29
 Nel        : 64
 T(el)      :   300.0
 intcut     :    25.0
 scfconv/Eh :  0.100E-05
   qconv/e  :  0.100E-03
 intneglect :  0.100E-07
 broydamp   :      0.250
 iter      E             dE          RMSdq      gap      omega  full diag
   1    -41.0080401 -0.410080E+02  0.768E+00   10.54       0.0  T
   2    -41.0501780 -0.421379E-01  0.554E+00   10.02       1.0  T
   3    -41.0813652 -0.311873E-01  0.148E+00    8.87       1.0  T
   4    -41.0859968 -0.463157E-02  0.601E-01    8.92       1.0  T
   5    -41.0866093 -0.612452E-03  0.333E-01    8.87       1.0  T
   6    -41.0869663 -0.356997E-03  0.145E-01    8.88       1.0  T
   7    -41.0870485 -0.822368E-04  0.535E-02    8.91       1.0  T
   8    -41.0870586 -0.100600E-04  0.327E-02    8.90       1.0  T
   9    -41.0870638 -0.526832E-05  0.906E-03    8.90       2.5  T
  10    -41.0870641 -0.300344E-06  0.248E-03    8.90       9.3  T
  11    -41.0870641 -0.159830E-07  0.103E-03    8.90      22.2  T
  12    -41.0870641 -0.364793E-08  0.496E-04    8.90      46.2  T
  13    -41.0870641 -0.966267E-09  0.114E-04    8.90     201.6  T
speedup  1.00
cpu  time for SCC    0.01 s
wall time for SCC    0.01 s

   *** convergence criteria satisfied after 13 iterations ***

          eigenvalues
 #    :          20         21         22         23         24         25         26         27
 occ. :        2.000      2.000      2.000      2.000      2.000      2.000      2.000      2.000
 eps  :       -14.063    -13.872    -12.809    -12.598    -12.282    -12.153    -11.873    -11.719
 #    :          28         29         30         31         32         33         34         35
 occ. :        2.000      2.000      2.000      2.000      2.000      0.000      0.000      0.000
 eps  :       -11.386    -11.326    -10.847    -10.785    -10.542     -1.647     -0.580      0.173
 #    :          36         37         38         39         40         41         42         43
 occ. :        0.000      0.000      0.000      0.000      0.000      0.000      0.000      0.000
 eps  :         1.278      1.640      2.094      2.349      3.985      4.277      6.374      7.469


   #   Z            q   n(s)   n(p)   n(d)      C6AA      α(0)
   1  16 S      1.567  1.586  1.859  0.989    91.859    16.131
   2   8 O     -0.757  1.778  4.979  0.000    30.305     7.381
   3   8 O     -0.761  1.773  4.988  0.000    30.427     7.396
   4   8 O     -0.727  1.771  4.956  0.000    29.461     7.277
   5   8 O     -0.534  1.716  4.818  0.000    23.642     6.564
   6   1 H      0.358  0.642  0.000  0.000     0.561     1.172
   7   8 O     -0.618  1.727  4.891  0.000    25.623     6.832
   8   1 H      0.337  0.663  0.000  0.000     0.621     1.237
   9   1 H      0.292  0.708  0.000  0.000     0.746     1.357
  10   8 O     -0.568  1.740  4.828  0.000    24.441     6.672
  11   1 H      0.286  0.714  0.000  0.000     0.764     1.373
  12   1 H      0.283  0.717  0.000  0.000     0.775     1.383
  13   8 O     -0.622  1.727  4.895  0.000    25.724     6.845
  14   1 H      0.336  0.664  0.000  0.000     0.621     1.238
  15   1 H      0.291  0.709  0.000  0.000     0.749     1.359
  16   8 O     -0.412  1.639  4.773  0.000    21.019     6.192
  17   1 H      0.414  0.586  0.000  0.000     0.460     1.065
  18   1 H      0.424  0.576  0.000  0.000     0.443     1.046
  19   1 H      0.412  0.588  0.000  0.000     0.463     1.069

 Mol. C6AA /au·bohr⁶  :       3375.527881
 Mol. C8AA /au·bohr⁸  :      76623.177426
 Mol. α(0) /au        :         83.589573

 
 Wiberg/Mayer (AO) data. WBOs > 0.1 written file <wbo>
 largest (>0.05) Wiberg bond orders for each atom
           total WBO             WBO to atom ...
     1  S   4.948    O    4 1.339    O    2 1.303    O    3 1.270    O    5 1.004
     2  O   1.675    S    1 1.303    O    4 0.115    O    3 0.114    O    5 0.074
     3  O   1.689    S    1 1.270    O    2 0.114    O    4 0.113    H   19 0.088    O    5 0.069
     4  O   1.710    S    1 1.339    O    2 0.115    O    3 0.113    H   14 0.055    O    5 0.054
     5  O   2.056    S    1 1.004    H    6 0.848    O    2 0.074    O    3 0.069    O    4 0.054
     6  H   0.871    O    5 0.848
     7  O   1.853    H    9 0.903    H    8 0.835    H   17 0.067
     8  H   0.887    O    7 0.835
     9  H   0.915    O    7 0.903
    10  O   1.839    H   12 0.920    H   11 0.918
    11  H   0.918    O   10 0.918
    12  H   0.920    O   10 0.920
    13  O   1.847    H   15 0.903    H   14 0.829    H   18 0.065
    14  H   0.887    O   13 0.829    O    4 0.055
    15  H   0.915    O   13 0.903
    16  O   2.335    H   17 0.756    H   18 0.749    H   19 0.735
    17  H   0.829    O   16 0.756    O    7 0.067
    18  H   0.820    O   16 0.749    O   13 0.065
    19  H   0.830    O   16 0.735    O    3 0.088
 MOs/occ written to file <molden.input>
 
molecular dipole:
                 x           y           z       tot (Debye)
 q only:       -0.929      -0.825      -1.868
   full:       -0.860      -0.183      -1.148       3.675
molecular quadrupole (traceless):
                xx          xy          yy          xz          yz          zz
 q only:        3.927       1.393       1.363      -1.535       0.429      -5.290
  q+dip:        5.628       3.154       1.699      -1.075       1.891      -7.326
   full:        5.207       3.100       1.836      -1.213       2.215      -7.042

SCC energy    :     -41.0870641
rep           :       0.2163441
ES            :       0.2367214
AES           :      -0.0502280
AXC           :      -0.0110397
disp          :      -0.0115638
XB            :       0.0000000
fix           :       0.0000000
total E       :     -40.8706485
atomizationE  :       3.6648357     2299.72
(atE without considering molecular charge,
 total energy contains solvation terms)
H-L gap (eV)  :          8.8955
           ------------------------------------------------- 
          |                 ===============                 |
          |                   A N C O P T                   |
          |                 ===============                 |
          |          Approximate Normal Coordinate          |
          |           Rational Function Optimizer           |
           ------------------------------------------------- 
dumping coords to <xtbopt.coord> and <xtbopt.log>
 optlevel               2
 Maxcycle             380
 Maxmicro              25
 Econv         1.000000000000000E-007
 Gconv         2.000000000000000E-004
 Maxdispl       1.00000000000000     
 Hlow          5.000000000000000E-003
 S6             20.0000000000000     
 Nvar               51

generating ANC from model Hessian ...
 Shifting diagonal of input Hessian by   5.106031618296326E-003
 Lowest  eigenvalues of input Hessian
    0.005000    0.005050   -0.000000   -0.000000   -0.000000   -0.000000
    0.000000    0.000000    0.005277    0.005305    0.005515    0.005689
    0.005721    0.006070    0.006894    0.007331    0.009087    0.010829
 Highest eigenvalues
    1.454340    1.555451    1.556809    3.137733    3.211389    3.314889
 
cpu  time for ANC gen    0.00 s
wall time for ANC gen    0.01 s
................................................................................
.............................. CYCLE    1 ......................................
................................................................................
   1    -41.0870641 -0.410871E+02  0.874E-05    8.90       0.0  T
   2    -41.0870641 -0.104734E-10  0.686E-05    8.90     334.4  T
   3    -41.0870641 -0.135785E-10  0.295E-05    8.90     776.4  T
speedup  1.00
cpu  time for SCC    0.00 s
wall time for SCC    0.00 s
speedup  1.11
cpu  time for grad    0.01 s
wall time for grad    0.01 s
 E :    -40.87064848  G :  0.159612    pred/act E change:  0.000D+00  0.326D-07
Maxdispl :   0.2298   ||displ|| :   0.3790   Lambda : -0.179D-01
Largest |displ|/coords:  0.2298 (  21)  0.1376 (  20)  0.1190 (  11)
................................................................................
.............................. CYCLE    2 ......................................
................................................................................
   1    -41.0957736 -0.410958E+02  0.334E-01    9.01       0.0  T
   2    -41.0958751 -0.101548E-03  0.257E-01    9.05       1.0  T
   3    -41.0959185 -0.434117E-04  0.873E-02    9.12       1.0  T
   4    -41.0959297 -0.111768E-04  0.193E-02    9.11       1.2  T
   5    -41.0959304 -0.729749E-06  0.580E-03    9.11       4.0  T
   6    -41.0959305 -0.415645E-07  0.343E-03    9.11       6.7  T
speedup  1.05
cpu  time for SCC    0.00 s
wall time for SCC    0.00 s
speedup  1.02
cpu  time for grad    0.01 s
wall time for grad    0.01 s
 E :    -40.88560567  G :  0.106618    pred/act E change:  0.000D+00 -0.150D-01
Maxdispl :   0.2099   ||displ|| :   0.3651   Lambda : -0.109D-01
Largest |displ|/coords:  0.2099 (  21)  0.1451 (  20)  0.1247 (  23)
................................................................................
.............................. CYCLE    3 ......................................
................................................................................
   1    -41.1012212 -0.411012E+02  0.259E-01    9.19       0.0  T
   2    -41.1013563 -0.135105E-03  0.199E-01    9.22       1.0  T
   3    -41.1014168 -0.604851E-04  0.896E-02    9.27       1.0  T
   4    -41.1014235 -0.672041E-05  0.214E-02    9.27       1.1  T
   5    -41.1014242 -0.674475E-06  0.656E-03    9.27       3.5  T
   6    -41.1014242 -0.587443E-07  0.356E-03    9.26       6.4  T
   7    -41.1014243 -0.357790E-07  0.157E-03    9.26      14.6  T
speedup  0.93
cpu  time for SCC    0.00 s
wall time for SCC    0.00 s
speedup  0.98
cpu  time for grad    0.01 s
wall time for grad    0.01 s
 E :    -40.89401127  G :  0.065972    pred/act E change: -0.102D-01 -0.841D-02
Maxdispl :   0.1383   ||displ|| :   0.3296   Lambda : -0.455D-02
Largest |displ|/coords:  0.1383 (   3)  0.1188 (  15)  0.1112 (   6)
................................................................................
.............................. CYCLE    4 ......................................
................................................................................
   1    -41.0998155 -0.410998E+02  0.369E-01    9.28       0.0  T
   2    -41.0998997 -0.841489E-04  0.281E-01    9.30       1.0  T
   3    -41.0999346 -0.349137E-04  0.664E-02    9.35       1.0  T
   4    -41.0999483 -0.136840E-04  0.172E-02    9.34       1.3  T
   5    -41.0999488 -0.563202E-06  0.488E-03    9.34       4.7  T
   6    -41.0999488 -0.223497E-07  0.275E-03    9.34       8.3  T
speedup  1.08
cpu  time for SCC    0.00 s
wall time for SCC    0.00 s
speedup  0.93
cpu  time for grad    0.01 s
wall time for grad    0.01 s
 E :    -40.89730624  G :  0.044285    pred/act E change: -0.619D-02 -0.329D-02
Maxdispl :   0.2324   ||displ|| :   0.5182   Lambda : -0.574D-02
Largest |displ|/coords:  0.2324 (  11)  0.1883 (  12)  0.1694 (   3)
................................................................................
.............................. CYCLE    5 ......................................
................................................................................
   1    -41.1015703 -0.411016E+02  0.621E-01    9.28       0.0  T
   2    -41.1018208 -0.250491E-03  0.475E-01    9.31       1.0  T
   3    -41.1019401 -0.119242E-03  0.112E-01    9.39       1.0  T
   4    -41.1019800 -0.399446E-04  0.329E-02    9.37       1.0  T
   5    -41.1019817 -0.169677E-05  0.824E-03    9.37       2.8  T
   6    -41.1019818 -0.496610E-07  0.464E-03    9.37       4.9  T
   7    -41.1019818 -0.364005E-07  0.131E-03    9.37      17.6  T
speedup  0.93
cpu  time for SCC    0.00 s
wall time for SCC    0.00 s
speedup  0.98
cpu  time for grad    0.01 s
wall time for grad    0.01 s
 E :    -40.89705137  G :  0.046515    pred/act E change: -0.252D-02  0.255D-03
Maxdispl :   0.1686   ||displ|| :   0.3026   Lambda : -0.478D-02
Largest |displ|/coords:  0.1686 (  15)  0.1319 (  11)  0.1011 (  12)
................................................................................
.............................. CYCLE    6 ......................................
................................................................................
   1    -41.1052201 -0.411052E+02  0.423E-01    9.31       0.0  T
   2    -41.1052944 -0.742216E-04  0.322E-01    9.31       1.0  T
   3    -41.1053384 -0.440141E-04  0.573E-02    9.31       1.0  T
   4    -41.1053501 -0.117137E-04  0.179E-02    9.31       1.3  T
   5    -41.1053507 -0.627716E-06  0.458E-03    9.31       5.0  T
   6    -41.1053507 -0.111485E-07  0.282E-03    9.31       8.1  T
speedup  1.08
cpu  time for SCC    0.00 s
wall time for SCC    0.00 s
speedup  1.03
cpu  time for grad    0.01 s
wall time for grad    0.01 s
 E :    -40.89979248  G :  0.014790    pred/act E change: -0.364D-02 -0.274D-02
Maxdispl :   0.1927   ||displ|| :   0.4446   Lambda : -0.246D-02
Largest |displ|/coords:  0.1927 (  11)  0.1715 (  10)  0.1598 (   3)
................................................................................
.............................. CYCLE    7 ......................................
................................................................................
   1    -41.0853820 -0.410854E+02  0.702E-01    9.23       0.0  T
   2    -41.0855890 -0.207039E-03  0.527E-01    9.23       1.0  T
   3    -41.0857103 -0.121239E-03  0.966E-02    9.22       1.0  T
   4    -41.0857409 -0.306025E-04  0.186E-02    9.22       1.2  T
   5    -41.0857413 -0.382111E-06  0.854E-03    9.23       2.7  T
   6    -41.0857414 -0.792042E-07  0.454E-03    9.23       5.0  T
   7    -41.0857414 -0.264608E-07  0.913E-04    9.23      25.1  T
   8    -41.0857414 -0.116199E-08  0.235E-04    9.23      97.5  T
speedup  1.04
cpu  time for SCC    0.01 s
wall time for SCC    0.00 s
speedup  1.02
cpu  time for grad    0.01 s
wall time for grad    0.01 s
 E :    -40.89616438  G :  0.078257    pred/act E change: -0.261D-02  0.363D-02
Maxdispl :   0.2163   ||displ|| :   0.5338   Lambda : -0.188D-01
Largest |displ|/coords:  0.2163 (  12)  0.2149 (  11)  0.1985 (   9)
................................................................................
.............................. CYCLE    8 ......................................
................................................................................
   1    -41.1123277 -0.411123E+02  0.938E-01    9.28       0.0  T
   2    -41.1127897 -0.461973E-03  0.706E-01    9.28       1.0  T
   3    -41.1130904 -0.300732E-03  0.142E-01    9.29       1.0  T
   4    -41.1131538 -0.634362E-04  0.262E-02    9.29       1.0  T
   5    -41.1131548 -0.917169E-06  0.146E-02    9.29       1.6  T
   6    -41.1131548 -0.864065E-07  0.637E-03    9.29       3.6  T
   7    -41.1131549 -0.674958E-07  0.132E-03    9.29      17.3  T
   8    -41.1131549 -0.293453E-08  0.330E-04    9.29      69.6  T
speedup  1.04
cpu  time for SCC    0.00 s
wall time for SCC    0.00 s
speedup  1.02
cpu  time for grad    0.01 s
wall time for grad    0.01 s
 E :    -40.89759283  G :  0.058328    pred/act E change: -0.147D-02 -0.143D-02
Maxdispl :   0.1349   ||displ|| :   0.3327   Lambda : -0.663D-02
Largest |displ|/coords:  0.1349 (   3)  0.1155 (  14)  0.1147 (  12)
................................................................................
.............................. CYCLE    9 ......................................
................................................................................
   1    -41.1008586 -0.411009E+02  0.561E-01    9.28       0.0  T
   2    -41.1009649 -0.106316E-03  0.425E-01    9.27       1.0  T
   3    -41.1010384 -0.734811E-04  0.668E-02    9.25       1.0  T
   4    -41.1010537 -0.153837E-04  0.151E-02    9.26       1.5  T
   5    -41.1010540 -0.297020E-06  0.608E-03    9.26       3.8  T
   6    -41.1010541 -0.272356E-07  0.319E-03    9.26       7.2  T
   7    -41.1010541 -0.135464E-07  0.769E-04    9.26      29.8  T
speedup  1.19
cpu  time for SCC    0.00 s
wall time for SCC    0.00 s
speedup  1.09
cpu  time for grad    0.01 s
wall time for grad    0.01 s
 E :    -40.90005176  G :  0.024693    pred/act E change: -0.121D-01 -0.246D-02
Maxdispl :   0.3178   ||displ|| :   0.4121   Lambda : -0.245D-02
Largest |displ|/coords:  0.3178 (   8)  0.1475 (   6)  0.1365 (   3)
................................................................................
.............................. CYCLE   10 ......................................
................................................................................
   1    -41.1022554 -0.411023E+02  0.727E-01    9.23       0.0  T
   2    -41.1023893 -0.133907E-03  0.553E-01    9.24       1.0  T
   3    -41.1024883 -0.989781E-04  0.731E-02    9.24       1.0  T
   4    -41.1025090 -0.207165E-04  0.127E-02    9.24       1.8  T
   5    -41.1025091 -0.702565E-07  0.789E-03    9.24       2.9  T
   6    -41.1025091 -0.976701E-08  0.250E-03    9.24       9.2  T
   7    -41.1025091 -0.769865E-08  0.364E-04    9.24      63.0  T
speedup  1.19
cpu  time for SCC    0.00 s
wall time for SCC    0.00 s
speedup  1.09
cpu  time for grad    0.01 s
wall time for grad    0.01 s
 E :    -40.89922280  G :  0.050648    pred/act E change: -0.368D-02  0.829D-03
Maxdispl :   0.1586   ||displ|| :   0.3574   Lambda : -0.444D-02
Largest |displ|/coords:  0.1586 (   3)  0.1531 (   8)  0.1446 (   5)
................................................................................
.............................. CYCLE   11 ......................................
................................................................................
   1    -41.1066183 -0.411066E+02  0.591E-01    9.27       0.0  T
   2    -41.1067454 -0.127013E-03  0.448E-01    9.27       1.0  T
   3    -41.1068382 -0.928009E-04  0.726E-02    9.28       1.0  T
   4    -41.1068558 -0.176506E-04  0.133E-02    9.27       1.7  T
   5    -41.1068559 -0.134590E-06  0.756E-03    9.27       3.0  T
   6    -41.1068560 -0.303465E-07  0.272E-03    9.27       8.4  T
   7    -41.1068560 -0.110352E-07  0.677E-04    9.27      33.9  T
speedup  1.19
cpu  time for SCC    0.00 s
wall time for SCC    0.00 s
speedup  0.98
cpu  time for grad    0.01 s
wall time for grad    0.01 s
 E :    -40.90008493  G :  0.031133    pred/act E change: -0.144D-02 -0.862D-03
Maxdispl :   0.0989   ||displ|| :   0.1763   Lambda : -0.151D-02
Largest |displ|/coords:  0.0989 (   8)  0.0742 (   2)  0.0581 (  12)
................................................................................
.............................. CYCLE   12 ......................................
................................................................................
   1    -41.1061052 -0.411061E+02  0.242E-01    9.27       0.0  T
   2    -41.1061272 -0.220224E-04  0.183E-01    9.27       1.0  T
   3    -41.1061425 -0.153207E-04  0.309E-02    9.27       1.0  T
   4    -41.1061456 -0.304335E-05  0.510E-03    9.27       4.5  T
   5    -41.1061456 -0.144250E-07  0.304E-03    9.27       7.5  T
speedup  0.91
cpu  time for SCC    0.00 s
wall time for SCC    0.00 s
speedup  0.98
cpu  time for grad    0.01 s
wall time for grad    0.01 s
 E :    -40.90092764  G :  0.007523    pred/act E change: -0.250D-02 -0.843D-03
Maxdispl :   0.2019   ||displ|| :   0.2873   Lambda : -0.826D-03
Largest |displ|/coords:  0.2019 (   3)  0.1190 (   6)  0.1047 (   2)
................................................................................
.............................. CYCLE   13 ......................................
................................................................................
   1    -41.0981209 -0.410981E+02  0.345E-01    9.25       0.0  T
   2    -41.0981475 -0.266234E-04  0.261E-01    9.25       1.0  T
   3    -41.0981660 -0.184911E-04  0.334E-02    9.26       1.0  T
   4    -41.0981701 -0.409168E-05  0.914E-03    9.26       2.5  T
   5    -41.0981702 -0.102585E-06  0.336E-03    9.26       6.8  T
   6    -41.0981702 -0.448628E-08  0.188E-03    9.26      12.2  T
   7    -41.0981702 -0.394422E-08  0.327E-04    9.26      70.2  T
speedup  0.93
cpu  time for SCC    0.00 s
wall time for SCC    0.00 s
speedup  0.98
cpu  time for grad    0.01 s
wall time for grad    0.01 s
 E :    -40.90108033  G :  0.032992    pred/act E change: -0.776D-03 -0.153D-03
Maxdispl :   0.0678   ||displ|| :   0.1595   Lambda : -0.835D-03
Largest |displ|/coords:  0.0678 (   6)  0.0658 (   2)  0.0594 (  10)
................................................................................
.............................. CYCLE   14 ......................................
................................................................................
   1    -41.1034161 -0.411034E+02  0.127E-01    9.26       0.0  T
   2    -41.1034221 -0.604119E-05  0.951E-02    9.27       1.0  T
   3    -41.1034257 -0.353649E-05  0.165E-02    9.27       1.4  T
   4    -41.1034266 -0.904885E-06  0.432E-03    9.27       5.3  T
   5    -41.1034266 -0.297382E-07  0.191E-03    9.27      12.0  T
speedup  1.00
cpu  time for SCC    0.00 s
wall time for SCC    0.00 s
speedup  1.00
cpu  time for grad    0.01 s
wall time for grad    0.01 s
 E :    -40.90158115  G :  0.017458    pred/act E change: -0.447D-03 -0.501D-03
Maxdispl :   0.1711   ||displ|| :   0.2803   Lambda : -0.630D-03
Largest |displ|/coords:  0.1711 (   3)  0.1499 (   2)  0.1142 (   8)
................................................................................
.............................. CYCLE   15 ......................................
................................................................................
   1    -41.1058095 -0.411058E+02  0.122E-01    9.28       0.0  T
   2    -41.1058139 -0.439193E-05  0.923E-02    9.28       1.0  T
   3    -41.1058170 -0.314599E-05  0.136E-02    9.28       1.7  T
   4    -41.1058176 -0.623240E-06  0.479E-03    9.28       4.8  T
   5    -41.1058177 -0.245056E-07  0.160E-03    9.28      14.4  T
   6    -41.1058177 -0.180109E-08  0.822E-04    9.28      27.9  T
speedup  1.11
cpu  time for SCC    0.00 s
wall time for SCC    0.00 s
speedup  1.05
cpu  time for grad    0.01 s
wall time for grad    0.01 s
 E :    -40.90205384  G :  0.012156    pred/act E change: -0.428D-03 -0.473D-03
Maxdispl :   0.4026   ||displ|| :   0.6674   Lambda : -0.133D-02
Largest |displ|/coords:  0.4026 (   3)  0.3408 (   2)  0.2844 (   8)
................................................................................
.............................. CYCLE   16 ......................................
................................................................................
   1    -41.1094351 -0.411094E+02  0.247E-01    9.29       0.0  T
   2    -41.1094486 -0.135312E-04  0.185E-01    9.29       1.0  T
   3    -41.1094559 -0.730965E-05  0.253E-02    9.28       1.0  T
   4    -41.1094580 -0.208778E-05  0.102E-02    9.29       2.2  T
   5    -41.1094581 -0.143015E-06  0.254E-03    9.29       9.0  T
   6    -41.1094581 -0.340059E-08  0.144E-03    9.29      16.0  T
speedup  1.05
cpu  time for SCC    0.00 s
wall time for SCC    0.00 s
speedup  1.02
cpu  time for grad    0.01 s
wall time for grad    0.01 s
 E :    -40.90291826  G :  0.016707    pred/act E change: -0.340D-03 -0.864D-03
Maxdispl :   0.4105   ||displ|| :   0.6850   Lambda : -0.159D-02
Largest |displ|/coords:  0.4105 (   3)  0.3654 (   2)  0.2891 (   8)
................................................................................
.............................. CYCLE   17 ......................................
................................................................................
   1    -41.1037497 -0.411037E+02  0.369E-01    9.29       0.0  T
   2    -41.1037793 -0.295822E-04  0.279E-01    9.29       1.0  T
   3    -41.1038009 -0.216932E-04  0.354E-02    9.29       1.0  T
   4    -41.1038054 -0.444463E-05  0.109E-02    9.29       2.1  T
   5    -41.1038055 -0.839234E-07  0.388E-03    9.29       5.9  T
   6    -41.1038055 -0.118255E-07  0.209E-03    9.29      11.0  T
   7    -41.1038055 -0.597846E-08  0.523E-04    9.29      43.9  T
speedup  0.95
cpu  time for SCC    0.00 s
wall time for SCC    0.00 s
speedup  0.97
cpu  time for grad    0.01 s
wall time for grad    0.01 s
 E :    -40.90405327  G :  0.017381    pred/act E change: -0.959D-03 -0.114D-02
Maxdispl :   0.2690   ||displ|| :   0.4917   Lambda : -0.895D-03
Largest |displ|/coords:  0.2690 (   2)  0.2555 (   3)  0.2185 (   1)
................................................................................
.............................. CYCLE   18 ......................................
................................................................................
   1    -41.1002808 -0.411003E+02  0.284E-01    9.31       0.0  T
   2    -41.1002994 -0.186563E-04  0.215E-01    9.31       1.0  T
   3    -41.1003168 -0.173818E-04  0.291E-02    9.31       1.0  T
   4    -41.1003191 -0.231520E-05  0.123E-02    9.31       1.9  T
   5    -41.1003193 -0.144267E-06  0.366E-03    9.31       6.3  T
   6    -41.1003193 -0.114743E-07  0.216E-03    9.31      10.6  T
   7    -41.1003193 -0.719360E-08  0.429E-04    9.31      53.4  T
speedup  0.93
cpu  time for SCC    0.00 s
wall time for SCC    0.00 s
speedup  0.96
cpu  time for grad    0.01 s
wall time for grad    0.01 s
 E :    -40.90429774  G :  0.032437    pred/act E change: -0.117D-02 -0.244D-03
Maxdispl :   0.2097   ||displ|| :   0.3789   Lambda : -0.162D-02
Largest |displ|/coords:  0.2097 (   1)  0.1820 (   2)  0.1663 (   7)
................................................................................
.............................. CYCLE   19 ......................................
................................................................................
   1    -41.1015526 -0.411016E+02  0.320E-01    9.34       0.0  T
   2    -41.1015783 -0.257148E-04  0.241E-01    9.34       1.0  T
   3    -41.1015952 -0.168302E-04  0.347E-02    9.33       1.0  T
   4    -41.1015987 -0.352405E-05  0.914E-03    9.34       2.5  T
   5    -41.1015988 -0.849892E-07  0.365E-03    9.34       6.3  T
   6    -41.1015988 -0.871602E-08  0.190E-03    9.34      12.1  T
speedup  1.08
cpu  time for SCC    0.00 s
wall time for SCC    0.00 s
speedup  1.02
cpu  time for grad    0.01 s
wall time for grad    0.01 s
 E :    -40.90445287  G :  0.030011    pred/act E change: -0.556D-03 -0.155D-03
Maxdispl :   0.1560   ||displ|| :   0.2566   Lambda : -0.183D-02
Largest |displ|/coords:  0.1560 (   5)  0.0993 (   8)  0.0914 (   7)
................................................................................
.............................. CYCLE   20 ......................................
................................................................................
   1    -41.1111300 -0.411111E+02  0.212E-01    9.34       0.0  T
   2    -41.1111419 -0.119814E-04  0.159E-01    9.34       1.0  T
   3    -41.1111496 -0.762057E-05  0.228E-02    9.34       1.0  T
   4    -41.1111513 -0.173485E-05  0.651E-03    9.34       3.5  T
   5    -41.1111514 -0.548781E-07  0.265E-03    9.34       8.7  T
   6    -41.1111514 -0.399563E-08  0.141E-03    9.34      16.3  T
speedup  1.08
cpu  time for SCC    0.00 s
wall time for SCC    0.00 s
speedup  1.02
cpu  time for grad    0.01 s
wall time for grad    0.01 s
 E :    -40.90515357  G :  0.019983    pred/act E change: -0.928D-03 -0.701D-03
Maxdispl :   0.2135   ||displ|| :   0.3447   Lambda : -0.176D-02
Largest |displ|/coords:  0.2135 (   1)  0.1475 (   3)  0.1310 (   8)
................................................................................
.............................. CYCLE   21 ......................................
................................................................................
   1    -41.1026913 -0.411027E+02  0.482E-01    9.31       0.0  T
   2    -41.1027759 -0.846525E-04  0.362E-01    9.31       1.0  T
   3    -41.1028189 -0.429981E-04  0.609E-02    9.31       1.0  T
   4    -41.1028328 -0.138486E-04  0.874E-03    9.31       2.6  T
   5    -41.1028328 -0.380526E-07  0.517E-03    9.31       4.4  T
   6    -41.1028328 -0.170814E-07  0.140E-03    9.31      16.4  T
   7    -41.1028328 -0.362591E-08  0.367E-04    9.31      62.4  T
speedup  1.16
cpu  time for SCC    0.00 s
wall time for SCC    0.00 s
speedup  1.06
cpu  time for grad    0.01 s
wall time for grad    0.01 s
 E :    -40.90486049  G :  0.036979    pred/act E change: -0.978D-03  0.293D-03
Maxdispl :   0.1889   ||displ|| :   0.3203   Lambda : -0.334D-02
Largest |displ|/coords:  0.1889 (   5)  0.1561 (   1)  0.1095 (   7)
................................................................................
.............................. CYCLE   22 ......................................
................................................................................
   1    -41.1023464 -0.411023E+02  0.341E-01    9.31       0.0  T
   2    -41.1024059 -0.595290E-04  0.256E-01    9.31       1.0  T
   3    -41.1024499 -0.440365E-04  0.507E-02    9.32       1.0  T
   4    -41.1024579 -0.797723E-05  0.124E-02    9.32       1.9  T
   5    -41.1024580 -0.110769E-06  0.655E-03    9.32       3.5  T
   6    -41.1024580 -0.272050E-07  0.216E-03    9.32      10.6  T
   7    -41.1024581 -0.818716E-08  0.489E-04    9.32      46.9  T
speedup  0.89
cpu  time for SCC    0.00 s
wall time for SCC    0.00 s
speedup  0.94
cpu  time for grad    0.01 s
wall time for grad    0.01 s
 E :    -40.90603359  G :  0.032293    pred/act E change: -0.985D-03 -0.117D-02
Maxdispl :   0.1687   ||displ|| :   0.2421   Lambda : -0.159D-02
Largest |displ|/coords:  0.1687 (   1)  0.0924 (   8)  0.0903 (   7)
................................................................................
.............................. CYCLE   23 ......................................
................................................................................
   1    -41.1104070 -0.411104E+02  0.207E-01    9.33       0.0  T
   2    -41.1104358 -0.288110E-04  0.153E-01    9.32       1.0  T
   3    -41.1104524 -0.166049E-04  0.357E-02    9.32       1.0  T
   4    -41.1104553 -0.294721E-05  0.934E-03    9.32       2.5  T
   5    -41.1104555 -0.128561E-06  0.323E-03    9.32       7.1  T
   6    -41.1104555 -0.608244E-08  0.173E-03    9.32      13.2  T
speedup  1.11
cpu  time for SCC    0.00 s
wall time for SCC    0.00 s
speedup  1.03
cpu  time for grad    0.01 s
wall time for grad    0.01 s
 E :    -40.90643873  G :  0.017658    pred/act E change: -0.184D-02 -0.405D-03
Maxdispl :   0.3385   ||displ|| :   0.4917   Lambda : -0.129D-02
Largest |displ|/coords:  0.3385 (   1)  0.2186 (   3)  0.1864 (   2)
................................................................................
.............................. CYCLE   24 ......................................
................................................................................
   1    -41.1051646 -0.411052E+02  0.284E-01    9.30       0.0  T
   2    -41.1051883 -0.237508E-04  0.215E-01    9.30       1.0  T
   3    -41.1052041 -0.157776E-04  0.321E-02    9.29       1.0  T
   4    -41.1052078 -0.370866E-05  0.825E-03    9.30       2.8  T
   5    -41.1052079 -0.909780E-07  0.330E-03    9.30       6.9  T
   6    -41.1052079 -0.652803E-08  0.184E-03    9.30      12.5  T
   7    -41.1052079 -0.437662E-08  0.407E-04    9.30      56.3  T
speedup  0.93
cpu  time for SCC    0.00 s
wall time for SCC    0.00 s
speedup  0.96
cpu  time for grad    0.01 s
wall time for grad    0.01 s
 E :    -40.90736638  G :  0.016829    pred/act E change: -0.840D-03 -0.928D-03
Maxdispl :   0.4830   ||displ|| :   0.5777   Lambda : -0.157D-02
Largest |displ|/coords:  0.4830 (   1)  0.1294 (  22)  0.1214 (   9)
................................................................................
.............................. CYCLE   25 ......................................
................................................................................
   1    -41.0971266 -0.410971E+02  0.401E-01    9.27       0.0  T
   2    -41.0971906 -0.640184E-04  0.302E-01    9.27       1.0  T
   3    -41.0972295 -0.389047E-04  0.511E-02    9.28       1.0  T
   4    -41.0972399 -0.104243E-04  0.106E-02    9.28       2.2  T
   5    -41.0972400 -0.973841E-07  0.510E-03    9.28       4.5  T
   6    -41.0972400 -0.177084E-07  0.228E-03    9.28      10.1  T
   7    -41.0972400 -0.592545E-08  0.635E-04    9.28      36.1  T
speedup  0.91
cpu  time for SCC    0.00 s
wall time for SCC    0.00 s
speedup  0.95
cpu  time for grad    0.01 s
wall time for grad    0.01 s
 E :    -40.90762666  G :  0.037102    pred/act E change: -0.798D-03 -0.260D-03
Maxdispl :   0.1769   ||displ|| :   0.2969   Lambda : -0.155D-02
Largest |displ|/coords:  0.1769 (   1)  0.1410 (   8)  0.1168 (   3)

generating ANC from model Hessian ...
 Shifting diagonal of input Hessian by   5.163562429972052E-003
 Lowest  eigenvalues of input Hessian
    0.005000    0.005110   -0.000000   -0.000000    0.000000    0.000000
    0.000000    0.000000    0.005551    0.005765    0.006068    0.006463
    0.007450    0.008338    0.009202    0.009662    0.013400    0.020011
 Highest eigenvalues
    1.373389    1.406971    1.413591    2.630328    3.367732    3.622366
 
cpu  time for ANC gen    0.01 s
wall time for ANC gen    0.01 s
................................................................................
.............................. CYCLE   26 ......................................
................................................................................
   1    -41.1021609 -0.411022E+02  0.134E-01    9.27       0.0  T
   2    -41.1021760 -0.151286E-04  0.978E-02    9.27       1.0  T
   3    -41.1021847 -0.872447E-05  0.256E-02    9.27       1.0  T
   4    -41.1021861 -0.134629E-05  0.677E-03    9.27       3.4  T
   5    -41.1021861 -0.784092E-07  0.241E-03    9.27       9.5  T
   6    -41.1021861 -0.236592E-08  0.131E-03    9.27      17.6  T
   7    -41.1021861 -0.201484E-08  0.244E-04    9.27      94.1  T
   8    -41.1021861 -0.728519E-10  0.720E-05    9.27     318.5  T
speedup  1.02
cpu  time for SCC    0.00 s
wall time for SCC    0.00 s
speedup  0.96
cpu  time for grad    0.01 s
wall time for grad    0.01 s
 E :    -40.90863594  G :  0.020120    pred/act E change:  0.000D+00 -0.101D-02
Maxdispl :   0.1111   ||displ|| :   0.2855   Lambda : -0.131D-02
Largest |displ|/coords:  0.1111 (   6)  0.1073 (  10)  0.1027 (   5)
................................................................................
.............................. CYCLE   27 ......................................
................................................................................
   1    -41.1050045 -0.411050E+02  0.308E-01    9.30       0.0  T
   2    -41.1050129 -0.842242E-05  0.234E-01    9.30       1.0  T
   3    -41.1050229 -0.100142E-04  0.190E-02    9.30       1.2  T
   4    -41.1050235 -0.568884E-06  0.662E-03    9.30       3.5  T
   5    -41.1050235 -0.314590E-07  0.282E-03    9.30       8.1  T
   6    -41.1050235 -0.340377E-08  0.101E-03    9.30      22.6  T
speedup  1.08
cpu  time for SCC    0.00 s
wall time for SCC    0.00 s
speedup  1.02
cpu  time for grad    0.01 s
wall time for grad    0.01 s
 E :    -40.90954935  G :  0.011598    pred/act E change:  0.000D+00 -0.913D-03
Maxdispl :   0.1912   ||displ|| :   0.3809   Lambda : -0.112D-02
Largest |displ|/coords:  0.1912 (   1)  0.1649 (   2)  0.1620 (   3)
................................................................................
.............................. CYCLE   28 ......................................
................................................................................
   1    -41.1067873 -0.411068E+02  0.318E-01    9.33       0.0  T
   2    -41.1067966 -0.929706E-05  0.240E-01    9.34       1.0  T
   3    -41.1068072 -0.105908E-04  0.213E-02    9.34       1.1  T
   4    -41.1068080 -0.780476E-06  0.666E-03    9.34       3.4  T
   5    -41.1068080 -0.233377E-07  0.339E-03    9.34       6.8  T
   6    -41.1068080 -0.871267E-08  0.881E-04    9.34      26.0  T
   7    -41.1068080 -0.261019E-08  0.282E-04    9.34      81.3  T
speedup  0.91
cpu  time for SCC    0.00 s
wall time for SCC    0.00 s
speedup  0.95
cpu  time for grad    0.01 s
wall time for grad    0.01 s
 E :    -40.91021672  G :  0.016203    pred/act E change: -0.711D-03 -0.667D-03
Maxdispl :   0.2273   ||displ|| :   0.3283   Lambda : -0.690D-03
Largest |displ|/coords:  0.2273 (   1)  0.1421 (   2)  0.1100 (   4)
................................................................................
.............................. CYCLE   29 ......................................
................................................................................
   1    -41.1072147 -0.411072E+02  0.212E-01    9.35       0.0  T
   2    -41.1072216 -0.690264E-05  0.159E-01    9.35       1.0  T
   3    -41.1072267 -0.515705E-05  0.195E-02    9.36       1.2  T
   4    -41.1072278 -0.101098E-05  0.435E-03    9.36       5.3  T
   5    -41.1072278 -0.176499E-07  0.245E-03    9.36       9.4  T
   6    -41.1072278 -0.375718E-08  0.983E-04    9.36      23.3  T
speedup  1.08
cpu  time for SCC    0.00 s
wall time for SCC    0.00 s
speedup  1.01
cpu  time for grad    0.01 s
wall time for grad    0.01 s
 E :    -40.91069410  G :  0.009609    pred/act E change: -0.641D-03 -0.477D-03
Maxdispl :   0.3537   ||displ|| :   0.4604   Lambda : -0.665D-03
Largest |displ|/coords:  0.3537 (   1)  0.1836 (   2)  0.1105 (   3)
................................................................................
.............................. CYCLE   30 ......................................
................................................................................
   1    -41.1073377 -0.411073E+02  0.243E-01    9.35       0.0  T
   2    -41.1073485 -0.107579E-04  0.183E-01    9.35       1.0  T
   3    -41.1073565 -0.803756E-05  0.254E-02    9.36       1.0  T
   4    -41.1073581 -0.156244E-05  0.703E-03    9.36       3.3  T
   5    -41.1073581 -0.606989E-07  0.307E-03    9.36       7.5  T
   6    -41.1073581 -0.641860E-08  0.157E-03    9.36      14.6  T
   7    -41.1073581 -0.456551E-08  0.379E-04    9.36      60.5  T
speedup  0.93
cpu  time for SCC    0.00 s
wall time for SCC    0.00 s
speedup  0.95
cpu  time for grad    0.01 s
wall time for grad    0.01 s
 E :    -40.91099592  G :  0.008767    pred/act E change: -0.382D-03 -0.302D-03
Maxdispl :   0.4604   ||displ|| :   0.5306   Lambda : -0.101D-02
Largest |displ|/coords:  0.4604 (   1)  0.1353 (   6)  0.1042 (  10)
................................................................................
.............................. CYCLE   31 ......................................
................................................................................
   1    -41.1039387 -0.411039E+02  0.407E-01    9.33       0.0  T
   2    -41.1039686 -0.298483E-04  0.308E-01    9.33       1.0  T
   3    -41.1039942 -0.255949E-04  0.349E-02    9.33       1.0  T
   4    -41.1039980 -0.385901E-05  0.782E-03    9.33       2.9  T
   5    -41.1039981 -0.478832E-07  0.436E-03    9.33       5.3  T
   6    -41.1039981 -0.169199E-07  0.163E-03    9.33      14.0  T
   7    -41.1039981 -0.538341E-08  0.417E-04    9.33      55.0  T
speedup  1.16
cpu  time for SCC    0.01 s
wall time for SCC    0.00 s
speedup  1.05
cpu  time for grad    0.01 s
wall time for grad    0.01 s
 E :    -40.91105457  G :  0.029243    pred/act E change: -0.403D-03 -0.587D-04
Maxdispl :   0.1337   ||displ|| :   0.2337   Lambda : -0.149D-02
Largest |displ|/coords:  0.1337 (   6)  0.1246 (   1)  0.0627 (   4)
................................................................................
.............................. CYCLE   32 ......................................
................................................................................
   1    -41.1125928 -0.411126E+02  0.245E-01    9.33       0.0  T
   2    -41.1126206 -0.278697E-04  0.185E-01    9.33       1.0  T
   3    -41.1126423 -0.216962E-04  0.346E-02    9.33       1.0  T
   4    -41.1126459 -0.353079E-05  0.817E-03    9.33       2.8  T
   5    -41.1126459 -0.526290E-07  0.412E-03    9.33       5.6  T
   6    -41.1126459 -0.837002E-08  0.161E-03    9.33      14.2  T
speedup  0.81
cpu  time for SCC    0.00 s
wall time for SCC    0.00 s
speedup  1.02
cpu  time for grad    0.01 s
wall time for grad    0.01 s
 E :    -40.91128590  G :  0.022864    pred/act E change: -0.647D-03 -0.231D-03
Maxdispl :   0.1480   ||displ|| :   0.3015   Lambda : -0.140D-02
Largest |displ|/coords:  0.1480 (   2)  0.1342 (   3)  0.1175 (   9)
................................................................................
.............................. CYCLE   33 ......................................
................................................................................
   1    -41.1046073 -0.411046E+02  0.220E-01    9.30       0.0  T
   2    -41.1046218 -0.145364E-04  0.167E-01    9.30       1.0  T
   3    -41.1046367 -0.148539E-04  0.231E-02    9.30       1.0  T
   4    -41.1046382 -0.150788E-05  0.804E-03    9.30       2.9  T
   5    -41.1046382 -0.451787E-07  0.338E-03    9.30       6.8  T
   6    -41.1046382 -0.142457E-07  0.114E-03    9.30      20.1  T
speedup  0.79
cpu  time for SCC    0.00 s
wall time for SCC    0.00 s
speedup  0.89
cpu  time for grad    0.01 s
wall time for grad    0.01 s
 E :    -40.91114706  G :  0.026512    pred/act E change: -0.788D-03  0.139D-03
Maxdispl :   0.0798   ||displ|| :   0.1847   Lambda : -0.159D-02
Largest |displ|/coords:  0.0798 (   1)  0.0762 (   6)  0.0713 (   9)
................................................................................
.............................. CYCLE   34 ......................................
................................................................................
   1    -41.1066330 -0.411066E+02  0.192E-01    9.30       0.0  T
   2    -41.1066392 -0.617995E-05  0.144E-01    9.30       1.0  T
   3    -41.1066454 -0.613160E-05  0.157E-02    9.30       1.5  T
   4    -41.1066458 -0.471340E-06  0.494E-03    9.30       4.6  T
   5    -41.1066458 -0.211290E-07  0.193E-03    9.30      11.9  T
speedup  1.25
cpu  time for SCC    0.00 s
wall time for SCC    0.00 s
speedup  1.07
cpu  time for grad    0.01 s
wall time for grad    0.01 s
 E :    -40.91192318  G :  0.009450    pred/act E change: -0.762D-03 -0.776D-03
Maxdispl :   0.4259   ||displ|| :   0.4479   Lambda : -0.545D-03
Largest |displ|/coords:  0.4259 (   1)  0.0574 (  10)  0.0571 (   3)
................................................................................
.............................. CYCLE   35 ......................................
................................................................................
   1    -41.1073054 -0.411073E+02  0.184E-01    9.26       0.0  T
   2    -41.1073134 -0.794918E-05  0.139E-01    9.26       1.0  T
   3    -41.1073192 -0.580368E-05  0.183E-02    9.26       1.3  T
   4    -41.1073204 -0.122653E-05  0.407E-03    9.26       5.6  T
   5    -41.1073204 -0.137590E-07  0.202E-03    9.26      11.4  T
   6    -41.1073204 -0.312613E-08  0.914E-04    9.26      25.1  T
speedup  0.81
cpu  time for SCC    0.00 s
wall time for SCC    0.00 s
speedup  0.90
cpu  time for grad    0.01 s
wall time for grad    0.01 s
 E :    -40.91219244  G :  0.012418    pred/act E change: -0.820D-03 -0.269D-03
Maxdispl :   0.3528   ||displ|| :   0.3954   Lambda : -0.428D-03
Largest |displ|/coords:  0.3528 (   1)  0.1025 (   6)  0.0875 (   3)
................................................................................
.............................. CYCLE   36 ......................................
................................................................................
   1    -41.1065661 -0.411066E+02  0.166E-01    9.22       0.0  T
   2    -41.1065685 -0.235433E-05  0.125E-01    9.22       1.0  T
   3    -41.1065716 -0.309619E-05  0.972E-03    9.22       2.4  T
   4    -41.1065717 -0.120404E-06  0.378E-03    9.22       6.1  T
   5    -41.1065717 -0.124189E-07  0.150E-03    9.22      15.3  T
   6    -41.1065717 -0.226210E-08  0.784E-04    9.22      29.3  T
speedup  1.05
cpu  time for SCC    0.00 s
wall time for SCC    0.00 s
speedup  1.00
cpu  time for grad    0.01 s
wall time for grad    0.01 s
 E :    -40.91257538  G :  0.012196    pred/act E change: -0.327D-03 -0.383D-03
Maxdispl :   0.4850   ||displ|| :   0.5991   Lambda : -0.938D-03
Largest |displ|/coords:  0.4850 (   1)  0.2017 (   6)  0.1760 (   3)
................................................................................
.............................. CYCLE   37 ......................................
................................................................................
   1    -41.1082204 -0.411082E+02  0.303E-01    9.25       0.0  T
   2    -41.1082335 -0.131185E-04  0.228E-01    9.25       1.0  T
   3    -41.1082441 -0.105777E-04  0.250E-02    9.25       1.0  T
   4    -41.1082459 -0.180411E-05  0.745E-03    9.25       3.1  T
   5    -41.1082459 -0.575798E-07  0.330E-03    9.25       6.9  T
   6    -41.1082460 -0.774683E-08  0.152E-03    9.25      15.1  T
   7    -41.1082460 -0.443144E-08  0.422E-04    9.25      54.3  T
speedup  1.16
cpu  time for SCC    0.00 s
wall time for SCC    0.00 s
speedup  1.04
cpu  time for grad    0.01 s
wall time for grad    0.01 s
 E :    -40.91311613  G :  0.011251    pred/act E change: -0.248D-03 -0.541D-03
Maxdispl :   0.5544   ||displ|| :   0.6128   Lambda : -0.598D-03
Largest |displ|/coords:  0.5544 (   1)  0.1965 (   6)  0.1043 (   3)
................................................................................
.............................. CYCLE   38 ......................................
................................................................................
   1    -41.1044041 -0.411044E+02  0.258E-01    9.21       0.0  T
   2    -41.1044118 -0.775627E-05  0.193E-01    9.21       1.0  T
   3    -41.1044192 -0.735499E-05  0.188E-02    9.21       1.2  T
   4    -41.1044200 -0.807666E-06  0.634E-03    9.21       3.6  T
   5    -41.1044200 -0.309862E-07  0.264E-03    9.21       8.7  T
   6    -41.1044200 -0.514861E-08  0.127E-03    9.21      18.1  T
speedup  0.81
cpu  time for SCC    0.00 s
wall time for SCC    0.00 s
speedup  1.00
cpu  time for grad    0.01 s
wall time for grad    0.01 s
 E :    -40.91323032  G :  0.024882    pred/act E change: -0.637D-03 -0.114D-03
Maxdispl :   0.0770   ||displ|| :   0.1196   Lambda : -0.656D-03
Largest |displ|/coords:  0.0770 (   4)  0.0454 (   6)  0.0331 (   7)
................................................................................
.............................. CYCLE   39 ......................................
................................................................................
   1    -41.1100669 -0.411101E+02  0.106E-01    9.29       0.0  T
   2    -41.1100722 -0.527401E-05  0.791E-02    9.29       1.0  T
   3    -41.1100753 -0.307264E-05  0.156E-02    9.29       1.5  T
   4    -41.1100760 -0.705326E-06  0.420E-03    9.29       5.5  T
   5    -41.1100760 -0.214407E-07  0.170E-03    9.29      13.5  T
speedup  0.97
cpu  time for SCC    0.00 s
wall time for SCC    0.00 s
speedup  0.96
cpu  time for grad    0.01 s
wall time for grad    0.01 s
 E :    -40.91354484  G :  0.009434    pred/act E change: -0.412D-03 -0.315D-03
Maxdispl :   0.0489   ||displ|| :   0.0872   Lambda : -0.229D-03
Largest |displ|/coords:  0.0489 (   6)  0.0352 (   2)  0.0347 (   4)
................................................................................
.............................. CYCLE   40 ......................................
................................................................................
   1    -41.1123782 -0.411124E+02  0.732E-02    9.38       0.0  T
   2    -41.1123794 -0.121548E-05  0.546E-02    9.38       1.0  T
   3    -41.1123806 -0.121944E-05  0.979E-03    9.37       2.3  T
   4    -41.1123808 -0.131061E-06  0.308E-03    9.38       7.5  T
   5    -41.1123808 -0.110549E-07  0.910E-04    9.38      25.2  T
   6    -41.1123808 -0.653948E-09  0.518E-04    9.38      44.3  T
speedup  1.05
cpu  time for SCC    0.00 s
wall time for SCC    0.00 s
speedup  0.98
cpu  time for grad    0.01 s
wall time for grad    0.01 s
 E :    -40.91369310  G :  0.006143    pred/act E change: -0.333D-03 -0.148D-03
Maxdispl :   0.2362   ||displ|| :   0.3293   Lambda : -0.382D-03
Largest |displ|/coords:  0.2362 (   1)  0.1570 (   6)  0.1055 (   5)
................................................................................
.............................. CYCLE   41 ......................................
................................................................................
   1    -41.1106576 -0.411107E+02  0.221E-01    9.37       0.0  T
   2    -41.1106646 -0.701837E-05  0.165E-01    9.37       1.0  T
   3    -41.1106724 -0.781209E-05  0.221E-02    9.37       1.0  T
   4    -41.1106730 -0.602252E-06  0.604E-03    9.37       3.8  T
   5    -41.1106730 -0.420348E-07  0.247E-03    9.37       9.3  T
   6    -41.1106730 -0.434122E-08  0.128E-03    9.37      17.9  T
speedup  1.08
cpu  time for SCC    0.00 s
wall time for SCC    0.00 s
speedup  1.01
cpu  time for grad    0.01 s
wall time for grad    0.01 s
 E :    -40.91394191  G :  0.008517    pred/act E change: -0.115D-03 -0.249D-03
Maxdispl :   0.1620   ||displ|| :   0.3138   Lambda : -0.510D-03
Largest |displ|/coords:  0.1620 (   6)  0.1495 (   1)  0.1029 (   7)
................................................................................
.............................. CYCLE   42 ......................................
................................................................................
   1    -41.1114850 -0.411115E+02  0.257E-01    9.40       0.0  T
   2    -41.1114914 -0.643360E-05  0.190E-01    9.40       1.0  T
   3    -41.1114976 -0.618751E-05  0.260E-02    9.40       1.0  T
   4    -41.1114982 -0.637261E-06  0.649E-03    9.40       3.5  T
   5    -41.1114983 -0.489756E-07  0.242E-03    9.40       9.5  T
   6    -41.1114983 -0.467973E-08  0.125E-03    9.40      18.4  T
speedup  1.05
cpu  time for SCC    0.00 s
wall time for SCC    0.00 s
speedup  1.00
cpu  time for grad    0.01 s
wall time for grad    0.01 s
 E :    -40.91414570  G :  0.019524    pred/act E change: -0.212D-03 -0.204D-03
Maxdispl :   0.1188   ||displ|| :   0.2054   Lambda : -0.531D-03
Largest |displ|/coords:  0.1188 (   5)  0.0840 (   7)  0.0830 (   4)
................................................................................
.............................. CYCLE   43 ......................................
................................................................................
   1    -41.1097657 -0.411098E+02  0.169E-01    9.28       0.0  T
   2    -41.1097723 -0.659228E-05  0.125E-01    9.28       1.0  T
   3    -41.1097774 -0.504265E-05  0.220E-02    9.29       1.0  T
   4    -41.1097781 -0.731020E-06  0.474E-03    9.29       4.8  T
   5    -41.1097781 -0.288050E-07  0.217E-03    9.29      10.6  T
   6    -41.1097781 -0.448774E-08  0.108E-03    9.29      21.2  T
speedup  1.05
cpu  time for SCC    0.00 s
wall time for SCC    0.00 s
speedup  0.99
cpu  time for grad    0.01 s
wall time for grad    0.01 s
 E :    -40.91442782  G :  0.013822    pred/act E change: -0.280D-03 -0.282D-03
Maxdispl :   0.1699   ||displ|| :   0.2561   Lambda : -0.639D-03
Largest |displ|/coords:  0.1699 (   1)  0.0868 (  12)  0.0707 (   7)
................................................................................
.............................. CYCLE   44 ......................................
................................................................................
   1    -41.1139655 -0.411140E+02  0.153E-01    9.38       0.0  T
   2    -41.1139717 -0.624634E-05  0.115E-01    9.38       1.0  T
   3    -41.1139768 -0.505508E-05  0.219E-02    9.37       1.0  T
   4    -41.1139776 -0.843339E-06  0.686E-03    9.37       3.3  T
   5    -41.1139777 -0.380168E-07  0.183E-03    9.38      12.6  T
   6    -41.1139777 -0.267056E-08  0.107E-03    9.38      21.4  T
speedup  0.81
cpu  time for SCC    0.00 s
wall time for SCC    0.00 s
speedup  1.00
cpu  time for grad    0.01 s
wall time for grad    0.01 s
 E :    -40.91464260  G :  0.012903    pred/act E change: -0.277D-03 -0.215D-03
Maxdispl :   0.2049   ||displ|| :   0.3938   Lambda : -0.620D-03
Largest |displ|/coords:  0.2049 (   4)  0.1796 (   1)  0.1394 (   7)
................................................................................
.............................. CYCLE   45 ......................................
................................................................................
   1    -41.1087532 -0.411088E+02  0.327E-01    9.35       0.0  T
   2    -41.1087708 -0.175768E-04  0.244E-01    9.35       1.0  T
   3    -41.1087911 -0.202391E-04  0.357E-02    9.35       1.0  T
   4    -41.1087926 -0.152439E-05  0.129E-02    9.35       1.8  T
   5    -41.1087927 -0.157715E-06  0.407E-03    9.35       5.6  T
   6    -41.1087928 -0.110717E-07  0.239E-03    9.35       9.6  T
   7    -41.1087928 -0.582728E-08  0.389E-04    9.35      59.0  T
speedup  0.93
cpu  time for SCC    0.00 s
wall time for SCC    0.00 s
speedup  0.94
cpu  time for grad    0.01 s
wall time for grad    0.01 s
 E :    -40.91487815  G :  0.022174    pred/act E change: -0.341D-03 -0.236D-03
Maxdispl :   0.0826   ||displ|| :   0.1415   Lambda : -0.711D-03
Largest |displ|/coords:  0.0826 (   8)  0.0744 (   1)  0.0445 (  10)
................................................................................
.............................. CYCLE   46 ......................................
................................................................................
   1    -41.1094580 -0.411095E+02  0.128E-01    9.32       0.0  T
   2    -41.1094667 -0.872663E-05  0.948E-02    9.32       1.0  T
   3    -41.1094735 -0.680996E-05  0.212E-02    9.32       1.1  T
   4    -41.1094743 -0.729890E-06  0.683E-03    9.32       3.4  T
   5    -41.1094743 -0.578338E-07  0.210E-03    9.32      10.9  T
   6    -41.1094743 -0.432556E-08  0.113E-03    9.32      20.4  T
speedup  1.08
cpu  time for SCC    0.00 s
wall time for SCC    0.00 s
speedup  1.00
cpu  time for grad    0.01 s
wall time for grad    0.01 s
 E :    -40.91493921  G :  0.019423    pred/act E change: -0.358D-03 -0.611D-04
Maxdispl :   0.1064   ||displ|| :   0.1872   Lambda : -0.112D-02
Largest |displ|/coords:  0.1064 (   7)  0.1030 (   8)  0.0600 (   3)
................................................................................
.............................. CYCLE   47 ......................................
................................................................................
   1    -41.1118753 -0.411119E+02  0.171E-01    9.26       0.0  T
   2    -41.1118803 -0.493454E-05  0.129E-01    9.26       1.0  T
   3    -41.1118841 -0.383569E-05  0.185E-02    9.26       1.2  T
   4    -41.1118847 -0.602793E-06  0.564E-03    9.26       4.1  T
   5    -41.1118847 -0.253981E-07  0.185E-03    9.26      12.4  T
   6    -41.1118847 -0.133789E-08  0.978E-04    9.26      23.5  T
speedup  1.08
cpu  time for SCC    0.00 s
wall time for SCC    0.00 s
speedup  1.00
cpu  time for grad    0.01 s
wall time for grad    0.01 s
 E :    -40.91510845  G :  0.015361    pred/act E change: -0.362D-03 -0.169D-03
Maxdispl :   0.1586   ||displ|| :   0.2900   Lambda : -0.919D-03
Largest |displ|/coords:  0.1586 (   4)  0.1272 (   7)  0.0785 (   1)
................................................................................
.............................. CYCLE   48 ......................................
................................................................................
   1    -41.1075493 -0.411075E+02  0.246E-01    9.30       0.0  T
   2    -41.1075652 -0.158900E-04  0.185E-01    9.30       1.0  T
   3    -41.1075820 -0.168061E-04  0.315E-02    9.30       1.0  T
   4    -41.1075837 -0.166735E-05  0.992E-03    9.30       2.3  T
   5    -41.1075838 -0.107161E-06  0.379E-03    9.30       6.1  T
   6    -41.1075838 -0.994066E-08  0.193E-03    9.30      11.9  T
   7    -41.1075838 -0.609167E-08  0.380E-04    9.30      60.4  T
speedup  0.93
cpu  time for SCC    0.00 s
wall time for SCC    0.00 s
speedup  1.04
cpu  time for grad    0.01 s
wall time for grad    0.01 s
 E :    -40.91559795  G :  0.017000    pred/act E change: -0.581D-03 -0.489D-03
Maxdispl :   0.0798   ||displ|| :   0.1390   Lambda : -0.391D-03
Largest |displ|/coords:  0.0798 (   4)  0.0530 (   2)  0.0415 (   6)
................................................................................
.............................. CYCLE   49 ......................................
................................................................................
   1    -41.1086624 -0.411087E+02  0.105E-01    9.36       0.0  T
   2    -41.1086641 -0.166544E-05  0.785E-02    9.36       1.0  T
   3    -41.1086655 -0.141853E-05  0.106E-02    9.36       2.2  T
   4    -41.1086657 -0.165520E-06  0.329E-03    9.36       7.0  T
   5    -41.1086657 -0.124061E-07  0.103E-03    9.36      22.2  T
   6    -41.1086657 -0.989210E-09  0.602E-04    9.36      38.1  T
speedup  0.79
cpu  time for SCC    0.00 s
wall time for SCC    0.00 s
speedup  0.99
cpu  time for grad    0.01 s
wall time for grad    0.01 s
 E :    -40.91589137  G :  0.015142    pred/act E change: -0.498D-03 -0.293D-03
Maxdispl :   0.1522   ||displ|| :   0.3472   Lambda : -0.757D-03
Largest |displ|/coords:  0.1522 (   4)  0.1355 (   2)  0.1243 (   6)
................................................................................
.............................. CYCLE   50 ......................................
................................................................................
   1    -41.1083061 -0.411083E+02  0.280E-01    9.31       0.0  T
   2    -41.1083187 -0.125778E-04  0.208E-01    9.31       1.0  T
   3    -41.1083281 -0.937314E-05  0.321E-02    9.31       1.0  T
   4    -41.1083296 -0.149443E-05  0.858E-03    9.31       2.7  T
   5    -41.1083297 -0.828553E-07  0.278E-03    9.31       8.3  T
   6    -41.1083297 -0.759008E-08  0.165E-03    9.31      13.9  T
speedup  0.79
cpu  time for SCC    0.00 s
wall time for SCC    0.00 s
speedup  0.99
cpu  time for grad    0.01 s
wall time for grad    0.01 s
 E :    -40.91643983  G :  0.017387    pred/act E change: -0.199D-03 -0.548D-03
Maxdispl :   0.2317   ||displ|| :   0.4148   Lambda : -0.116D-02
Largest |displ|/coords:  0.2317 (   4)  0.1241 (  32)  0.1227 (   2)
................................................................................
.............................. CYCLE   51 ......................................
................................................................................
   1    -41.1130352 -0.411130E+02  0.314E-01    9.60       0.0  T
   2    -41.1130514 -0.162366E-04  0.236E-01    9.59       1.0  T
   3    -41.1130668 -0.153746E-04  0.286E-02    9.59       1.0  T
   4    -41.1130687 -0.186825E-05  0.109E-02    9.59       2.1  T
   5    -41.1130688 -0.118247E-06  0.386E-03    9.59       6.0  T
   6    -41.1130688 -0.130287E-07  0.198E-03    9.59      11.6  T
   7    -41.1130688 -0.627046E-08  0.530E-04    9.59      43.3  T
speedup  0.91
cpu  time for SCC    0.00 s
wall time for SCC    0.00 s
speedup  0.93
cpu  time for grad    0.01 s
wall time for grad    0.01 s
 E :    -40.91688545  G :  0.023955    pred/act E change: -0.424D-03 -0.446D-03
Maxdispl :   0.1695   ||displ|| :   0.3902   Lambda : -0.134D-02
Largest |displ|/coords:  0.1695 (  11)  0.1533 (   5)  0.1235 (   1)
................................................................................
.............................. CYCLE   52 ......................................
................................................................................
   1    -41.1090472 -0.411090E+02  0.364E-01    9.21       0.0  T
   2    -41.1090828 -0.356436E-04  0.270E-01    9.21       1.0  T
   3    -41.1091068 -0.239645E-04  0.529E-02    9.21       1.0  T
   4    -41.1091112 -0.446536E-05  0.174E-02    9.22       1.3  T
   5    -41.1091116 -0.308641E-06  0.443E-03    9.22       5.2  T
   6    -41.1091116 -0.165623E-07  0.271E-03    9.22       8.5  T
speedup  1.05
cpu  time for SCC    0.00 s
wall time for SCC    0.00 s
speedup  0.99
cpu  time for grad    0.01 s
wall time for grad    0.01 s
 E :    -40.91715082  G :  0.017638    pred/act E change: -0.678D-03 -0.265D-03
Maxdispl :   0.2201   ||displ|| :   0.3654   Lambda : -0.145D-02
Largest |displ|/coords:  0.2201 (   4)  0.1409 (   6)  0.1330 (   2)

generating ANC from model Hessian ...
 Shifting diagonal of input Hessian by   4.531942512701044E-003
 Lowest  eigenvalues of input Hessian
   -0.000000   -0.000000   -0.000000    0.000000    0.000000    0.000000
    0.005000    0.005597    0.006487    0.006851    0.008334    0.009277
    0.011867    0.012358    0.016155    0.016466    0.019898    0.022316
 Highest eigenvalues
    1.394601    1.413698    1.503457    2.653371    3.387160    3.646385
 
cpu  time for ANC gen    0.01 s
wall time for ANC gen    0.01 s
................................................................................
.............................. CYCLE   53 ......................................
................................................................................
   1    -41.1191602 -0.411192E+02  0.263E-01    9.35       0.0  T
   2    -41.1191839 -0.237543E-04  0.198E-01    9.35       1.0  T
   3    -41.1192103 -0.263671E-04  0.377E-02    9.35       1.0  T
   4    -41.1192124 -0.207011E-05  0.141E-02    9.35       1.6  T
   5    -41.1192125 -0.143439E-06  0.391E-03    9.35       5.9  T
   6    -41.1192125 -0.790720E-08  0.193E-03    9.35      11.9  T
   7    -41.1192125 -0.558255E-08  0.535E-04    9.35      42.9  T
   8    -41.1192125 -0.588493E-09  0.222E-04    9.35     103.1  T
speedup  1.02
cpu  time for SCC    0.00 s
wall time for SCC    0.00 s
speedup  1.05
cpu  time for grad    0.01 s
wall time for grad    0.01 s
 E :    -40.91538746  G :  0.057449    pred/act E change:  0.000D+00  0.176D-02
Maxdispl :   0.1407   ||displ|| :   0.2537   Lambda : -0.395D-02
Largest |displ|/coords:  0.1407 (   4)  0.1034 (   9)  0.0753 (   1)
................................................................................
.............................. CYCLE   54 ......................................
................................................................................
   1    -41.1135185 -0.411135E+02  0.261E-01    9.35       0.0  T
   2    -41.1135454 -0.268234E-04  0.198E-01    9.35       1.0  T
   3    -41.1135674 -0.220506E-04  0.345E-02    9.35       1.0  T
   4    -41.1135710 -0.353390E-05  0.950E-03    9.35       2.4  T
   5    -41.1135711 -0.118104E-06  0.402E-03    9.35       5.7  T
   6    -41.1135711 -0.727577E-08  0.209E-03    9.35      11.0  T
speedup  0.81
cpu  time for SCC    0.00 s
wall time for SCC    0.00 s
speedup  1.00
cpu  time for grad    0.01 s
wall time for grad    0.01 s
 E :    -40.91782694  G :  0.009612    pred/act E change:  0.000D+00 -0.244D-02
Maxdispl :   0.1695   ||displ|| :   0.2602   Lambda : -0.736D-03
Largest |displ|/coords:  0.1695 (   4)  0.0983 (   1)  0.0947 (  10)
................................................................................
.............................. CYCLE   55 ......................................
................................................................................
   1    -41.1108098 -0.411108E+02  0.211E-01    9.35       0.0  T
   2    -41.1108181 -0.831065E-05  0.160E-01    9.35       1.0  T
   3    -41.1108280 -0.988215E-05  0.182E-02    9.35       1.3  T
   4    -41.1108287 -0.721866E-06  0.635E-03    9.35       3.6  T
   5    -41.1108287 -0.322222E-07  0.287E-03    9.35       8.0  T
   6    -41.1108287 -0.925574E-08  0.994E-04    9.35      23.1  T
speedup  0.81
cpu  time for SCC    0.00 s
wall time for SCC    0.00 s
speedup  1.00
cpu  time for grad    0.01 s
wall time for grad    0.01 s
 E :    -40.91818354  G :  0.017828    pred/act E change: -0.210D-02 -0.357D-03
Maxdispl :   0.0893   ||displ|| :   0.1810   Lambda : -0.477D-03
Largest |displ|/coords:  0.0893 (   2)  0.0810 (   1)  0.0706 (  10)
................................................................................
.............................. CYCLE   56 ......................................
................................................................................
   1    -41.1122076 -0.411122E+02  0.159E-01    9.34       0.0  T
   2    -41.1122132 -0.558733E-05  0.119E-01    9.34       1.0  T
   3    -41.1122166 -0.340508E-05  0.172E-02    9.34       1.3  T
   4    -41.1122174 -0.836704E-06  0.428E-03    9.34       5.4  T
   5    -41.1122174 -0.396843E-07  0.161E-03    9.34      14.3  T
   6    -41.1122174 -0.122944E-08  0.955E-04    9.34      24.0  T
speedup  0.79
cpu  time for SCC    0.00 s
wall time for SCC    0.00 s
speedup  0.99
cpu  time for grad    0.01 s
wall time for grad    0.01 s
 E :    -40.91848234  G :  0.008843    pred/act E change: -0.393D-03 -0.299D-03
Maxdispl :   0.1652   ||displ|| :   0.2902   Lambda : -0.502D-03
Largest |displ|/coords:  0.1652 (   2)  0.1476 (   1)  0.0986 (  10)
................................................................................
.............................. CYCLE   57 ......................................
................................................................................
   1    -41.1116681 -0.411117E+02  0.236E-01    9.30       0.0  T
   2    -41.1116757 -0.754163E-05  0.178E-01    9.30       1.0  T
   3    -41.1116816 -0.590558E-05  0.183E-02    9.30       1.3  T
   4    -41.1116826 -0.105490E-05  0.458E-03    9.30       5.0  T
   5    -41.1116827 -0.274342E-07  0.219E-03    9.30      10.5  T
   6    -41.1116827 -0.339032E-08  0.111E-03    9.30      20.7  T
speedup  0.79
cpu  time for SCC    0.00 s
wall time for SCC    0.00 s
speedup  0.99
cpu  time for grad    0.01 s
wall time for grad    0.01 s
 E :    -40.91883022  G :  0.008565    pred/act E change: -0.247D-03 -0.348D-03
Maxdispl :   0.2230   ||displ|| :   0.3735   Lambda : -0.447D-03
Largest |displ|/coords:  0.2230 (   1)  0.2013 (   2)  0.1418 (  10)
................................................................................
.............................. CYCLE   58 ......................................
................................................................................
   1    -41.1096074 -0.411096E+02  0.289E-01    9.26       0.0  T
   2    -41.1096136 -0.623983E-05  0.217E-01    9.26       1.0  T
   3    -41.1096202 -0.653350E-05  0.184E-02    9.26       1.2  T
   4    -41.1096208 -0.625097E-06  0.593E-03    9.26       3.9  T
   5    -41.1096208 -0.313690E-07  0.262E-03    9.26       8.8  T
   6    -41.1096208 -0.641361E-08  0.108E-03    9.26      21.3  T
speedup  0.81
cpu  time for SCC    0.00 s
wall time for SCC    0.00 s
speedup  1.00
cpu  time for grad    0.01 s
wall time for grad    0.01 s
 E :    -40.91916018  G :  0.013957    pred/act E change: -0.272D-03 -0.330D-03
Maxdispl :   0.2649   ||displ|| :   0.4458   Lambda : -0.719D-03
Largest |displ|/coords:  0.2649 (   1)  0.2289 (   2)  0.1607 (  10)
................................................................................
.............................. CYCLE   59 ......................................
................................................................................
   1    -41.1108498 -0.411108E+02  0.292E-01    9.24       0.0  T
   2    -41.1108604 -0.105692E-04  0.219E-01    9.24       1.0  T
   3    -41.1108707 -0.103245E-04  0.247E-02    9.25       1.0  T
   4    -41.1108719 -0.116780E-05  0.827E-03    9.25       2.8  T
   5    -41.1108720 -0.688153E-07  0.317E-03    9.25       7.2  T
   6    -41.1108720 -0.933261E-08  0.159E-03    9.25      14.4  T
   7    -41.1108720 -0.449144E-08  0.442E-04    9.25      51.9  T
speedup  0.95
cpu  time for SCC    0.00 s
wall time for SCC    0.00 s
speedup  0.94
cpu  time for grad    0.01 s
wall time for grad    0.01 s
 E :    -40.91961125  G :  0.011570    pred/act E change: -0.254D-03 -0.451D-03
Maxdispl :   0.2760   ||displ|| :   0.4033   Lambda : -0.530D-03
Largest |displ|/coords:  0.2760 (   1)  0.1916 (   2)  0.1422 (  10)
................................................................................
.............................. CYCLE   60 ......................................
................................................................................
   1    -41.1099608 -0.411100E+02  0.268E-01    9.29       0.0  T
   2    -41.1099694 -0.862599E-05  0.201E-01    9.29       1.0  T
   3    -41.1099787 -0.930757E-05  0.213E-02    9.29       1.1  T
   4    -41.1099796 -0.895775E-06  0.912E-03    9.29       2.5  T
   5    -41.1099797 -0.826969E-07  0.319E-03    9.29       7.2  T
   6    -41.1099797 -0.847396E-08  0.166E-03    9.29      13.8  T
   7    -41.1099797 -0.455695E-08  0.334E-04    9.29      68.7  T
speedup  1.14
cpu  time for SCC    0.00 s
wall time for SCC    0.00 s
speedup  1.03
cpu  time for grad    0.01 s
wall time for grad    0.01 s
 E :    -40.91988705  G :  0.016098    pred/act E change: -0.431D-03 -0.276D-03
Maxdispl :   0.0782   ||displ|| :   0.1806   Lambda : -0.599D-03
Largest |displ|/coords:  0.0782 (   1)  0.0776 (  10)  0.0637 (   2)
................................................................................
.............................. CYCLE   61 ......................................
................................................................................
   1    -41.1201563 -0.411202E+02  0.128E-01    9.47       0.0  T
   2    -41.1201635 -0.723702E-05  0.936E-02    9.48       1.0  T
   3    -41.1201684 -0.482458E-05  0.197E-02    9.48       1.2  T
   4    -41.1201691 -0.737728E-06  0.742E-03    9.47       3.1  T
   5    -41.1201692 -0.662271E-07  0.197E-03    9.48      11.6  T
   6    -41.1201692 -0.295218E-08  0.114E-03    9.48      20.0  T
speedup  1.08
cpu  time for SCC    0.00 s
wall time for SCC    0.00 s
speedup  0.99
cpu  time for grad    0.01 s
wall time for grad    0.01 s
 E :    -40.91997945  G :  0.014537    pred/act E change: -0.308D-03 -0.924D-04
Maxdispl :   0.1876   ||displ|| :   0.2831   Lambda : -0.590D-03
Largest |displ|/coords:  0.1876 (   1)  0.1225 (   3)  0.0945 (   2)
................................................................................
.............................. CYCLE   62 ......................................
................................................................................
   1    -41.1160603 -0.411161E+02  0.230E-01    9.38       0.0  T
   2    -41.1160680 -0.769359E-05  0.173E-01    9.38       1.0  T
   3    -41.1160750 -0.696629E-05  0.224E-02    9.38       1.0  T
   4    -41.1160758 -0.867865E-06  0.741E-03    9.38       3.1  T
   5    -41.1160759 -0.611765E-07  0.244E-03    9.38       9.4  T
   6    -41.1160759 -0.464257E-08  0.142E-03    9.38      16.2  T
speedup  1.08
cpu  time for SCC    0.00 s
wall time for SCC    0.00 s
speedup  0.99
cpu  time for grad    0.01 s
wall time for grad    0.01 s
 E :    -40.92026589  G :  0.011712    pred/act E change: -0.309D-03 -0.286D-03
Maxdispl :   0.1332   ||displ|| :   0.2389   Lambda : -0.350D-03
Largest |displ|/coords:  0.1332 (   2)  0.1217 (  10)  0.0827 (   3)
................................................................................
.............................. CYCLE   63 ......................................
................................................................................
   1    -41.1107192 -0.411107E+02  0.180E-01    9.24       0.0  T
   2    -41.1107254 -0.624017E-05  0.135E-01    9.24       1.0  T
   3    -41.1107307 -0.529378E-05  0.216E-02    9.24       1.1  T
   4    -41.1107315 -0.746311E-06  0.768E-03    9.25       3.0  T
   5    -41.1107315 -0.519695E-07  0.207E-03    9.24      11.1  T
   6    -41.1107315 -0.349353E-08  0.126E-03    9.24      18.2  T
speedup  1.05
cpu  time for SCC    0.00 s
wall time for SCC    0.00 s
speedup  0.98
cpu  time for grad    0.01 s
wall time for grad    0.01 s
 E :    -40.92017861  G :  0.014138    pred/act E change: -0.319D-03  0.873D-04
Maxdispl :   0.1076   ||displ|| :   0.1603   Lambda : -0.508D-03
Largest |displ|/coords:  0.1076 (   2)  0.0656 (   7)  0.0525 (  10)
................................................................................
.............................. CYCLE   64 ......................................
................................................................................
   1    -41.1153856 -0.411154E+02  0.127E-01    9.37       0.0  T
   2    -41.1153890 -0.339913E-05  0.947E-02    9.37       1.0  T
   3    -41.1153913 -0.231749E-05  0.160E-02    9.37       1.4  T
   4    -41.1153917 -0.409943E-06  0.426E-03    9.37       5.4  T
   5    -41.1153917 -0.293301E-07  0.141E-03    9.37      16.3  T
   6    -41.1153917 -0.109761E-08  0.806E-04    9.37      28.5  T
speedup  1.08
cpu  time for SCC    0.00 s
wall time for SCC    0.00 s
speedup  0.99
cpu  time for grad    0.01 s
wall time for grad    0.01 s
 E :    -40.92038861  G :  0.008424    pred/act E change: -0.185D-03 -0.210D-03
Maxdispl :   0.0805   ||displ|| :   0.1576   Lambda : -0.362D-03
Largest |displ|/coords:  0.0805 (   3)  0.0697 (   5)  0.0638 (   8)
................................................................................
.............................. CYCLE   65 ......................................
................................................................................
   1    -41.1190851 -0.411191E+02  0.210E-01    9.52       0.0  T
   2    -41.1190978 -0.127230E-04  0.159E-01    9.52       1.0  T
   3    -41.1191075 -0.966340E-05  0.259E-02    9.52       1.0  T
   4    -41.1191091 -0.162892E-05  0.755E-03    9.52       3.0  T
   5    -41.1191092 -0.833180E-07  0.277E-03    9.52       8.3  T
   6    -41.1191092 -0.459151E-08  0.159E-03    9.52      14.4  T
speedup  1.08
cpu  time for SCC    0.00 s
wall time for SCC    0.00 s
speedup  0.99
cpu  time for grad    0.01 s
wall time for grad    0.01 s
 E :    -40.92006776  G :  0.026616    pred/act E change: -0.260D-03  0.321D-03
Maxdispl :   0.0788   ||displ|| :   0.1196   Lambda : -0.835D-03
[...]
   5    -41.1168976 -0.131614E-09  0.105E-04    9.38     219.0  T
speedup  0.97
cpu  time for SCC    0.00 s
wall time for SCC    0.00 s
speedup  1.02
cpu  time for grad    0.01 s
wall time for grad    0.01 s
 E :    -40.92069455  G :  0.000836    pred/act E change:  0.000D+00 -0.108D-05
Maxdispl :   0.0108   ||displ|| :   0.0223   Lambda : -0.542D-05
Largest |displ|/coords:  0.0108 (   1)  0.0099 (   2)  0.0096 (   4)
................................................................................
.............................. CYCLE   83 ......................................
................................................................................
   1    -41.1169373 -0.411169E+02  0.280E-02    9.39       0.0  T
   2    -41.1169373 -0.542745E-07  0.212E-02    9.39       1.1  T
   3    -41.1169374 -0.719724E-07  0.130E-03    9.39      17.6  T
   4    -41.1169374 -0.238411E-08  0.468E-04    9.39      49.0  T
   5    -41.1169374 -0.116692E-09  0.212E-04    9.39     108.3  T
speedup  0.94
cpu  time for SCC    0.00 s
wall time for SCC    0.00 s
speedup  1.01
cpu  time for grad    0.01 s
wall time for grad    0.01 s
 E :    -40.92069891  G :  0.000534    pred/act E change:  0.000D+00 -0.436D-05
Maxdispl :   0.0349   ||displ|| :   0.0649   Lambda : -0.114D-04
Largest |displ|/coords:  0.0349 (   1)  0.0291 (   8)  0.0284 (   2)
................................................................................
.............................. CYCLE   84 ......................................
................................................................................
   1    -41.1169152 -0.411169E+02  0.829E-02    9.39       0.0  T
   2    -41.1169156 -0.373051E-06  0.627E-02    9.39       1.0  T
   3    -41.1169161 -0.486559E-06  0.350E-03    9.39       6.6  T
   4    -41.1169161 -0.147947E-07  0.131E-03    9.39      17.5  T
   5    -41.1169161 -0.834874E-09  0.576E-04    9.39      39.9  T
   6    -41.1169161 -0.272287E-09  0.170E-04    9.39     134.8  T
speedup  1.03
cpu  time for SCC    0.00 s
wall time for SCC    0.00 s
speedup  1.05
cpu  time for grad    0.01 s
wall time for grad    0.01 s
 E :    -40.92070569  G :  0.001007    pred/act E change: -0.271D-05 -0.678D-05
Maxdispl :   0.0245   ||displ|| :   0.0453   Lambda : -0.522D-05
Largest |displ|/coords:  0.0245 (   2)  0.0238 (   1)  0.0172 (   8)
................................................................................
.............................. CYCLE   85 ......................................
................................................................................
   1    -41.1169311 -0.411169E+02  0.528E-02    9.39       0.0  T
   2    -41.1169313 -0.150994E-06  0.399E-02    9.39       1.0  T
   3    -41.1169314 -0.174729E-06  0.240E-03    9.39       9.5  T
   4    -41.1169315 -0.100160E-07  0.845E-04    9.39      27.2  T
   5    -41.1169315 -0.385626E-09  0.372E-04    9.39      61.7  T
speedup  0.97
cpu  time for SCC    0.00 s
wall time for SCC    0.00 s
speedup  0.92
cpu  time for grad    0.01 s
wall time for grad    0.01 s
 E :    -40.92070799  G :  0.001231    pred/act E change: -0.573D-05 -0.231D-05
Maxdispl :   0.0152   ||displ|| :   0.0226   Lambda : -0.350D-05
Largest |displ|/coords:  0.0152 (   1)  0.0080 (   3)  0.0068 (   2)
................................................................................
.............................. CYCLE   86 ......................................
................................................................................
   1    -41.1170891 -0.411171E+02  0.211E-02    9.39       0.0  T
   2    -41.1170892 -0.504958E-07  0.159E-02    9.39       1.4  T
   3    -41.1170892 -0.373093E-07  0.147E-03    9.39      15.6  T
   4    -41.1170892 -0.760363E-08  0.396E-04    9.39      58.0  T
   5    -41.1170892 -0.168626E-09  0.164E-04    9.39     140.0  T
speedup  1.25
cpu  time for SCC    0.00 s
wall time for SCC    0.00 s
speedup  1.02
cpu  time for grad    0.01 s
wall time for grad    0.01 s
 E :    -40.92071058  G :  0.000642    pred/act E change: -0.261D-05 -0.258D-05
Maxdispl :   0.0274   ||displ|| :   0.0374   Lambda : -0.266D-05
Largest |displ|/coords:  0.0274 (   1)  0.0129 (   2)  0.0118 (   7)
................................................................................
.............................. CYCLE   87 ......................................
................................................................................
   1    -41.1172423 -0.411172E+02  0.349E-02    9.39       0.0  T
   2    -41.1172424 -0.112371E-06  0.264E-02    9.39       1.0  T
   3    -41.1172425 -0.997826E-07  0.218E-03    9.39      10.5  T
   4    -41.1172426 -0.142615E-07  0.715E-04    9.39      32.1  T
   5    -41.1172426 -0.491781E-09  0.285E-04    9.39      80.5  T
speedup  0.94
cpu  time for SCC    0.00 s
wall time for SCC    0.00 s
speedup  0.91
cpu  time for grad    0.01 s
wall time for grad    0.01 s
 E :    -40.92071232  G :  0.000518    pred/act E change: -0.175D-05 -0.174D-05
Maxdispl :   0.0178   ||displ|| :   0.0228   Lambda : -0.886D-06
Largest |displ|/coords:  0.0178 (   1)  0.0068 (   2)  0.0067 (   7)
................................................................................
.............................. CYCLE   88 ......................................
................................................................................
   1    -41.1173041 -0.411173E+02  0.205E-02    9.39       0.0  T
   2    -41.1173042 -0.350091E-07  0.155E-02    9.39       1.5  T
   3    -41.1173042 -0.334063E-07  0.122E-03    9.39      18.8  T
   4    -41.1173042 -0.406506E-08  0.449E-04    9.39      51.1  T
   5    -41.1173042 -0.141860E-09  0.137E-04    9.39     167.6  T
speedup  1.29
cpu  time for SCC    0.00 s
wall time for SCC    0.00 s
speedup  1.03
cpu  time for grad    0.01 s
wall time for grad    0.01 s
 E :    -40.92071298  G :  0.000408    pred/act E change: -0.133D-05 -0.663D-06
Maxdispl :   0.0216   ||displ|| :   0.0261   Lambda : -0.774D-06
Largest |displ|/coords:  0.0216 (   1)  0.0070 (   7)  0.0066 (   8)
................................................................................
.............................. CYCLE   89 ......................................
................................................................................
   1    -41.1173279 -0.411173E+02  0.247E-02    9.38       0.0  T
   2    -41.1173280 -0.462105E-07  0.187E-02    9.38       1.2  T
   3    -41.1173280 -0.486404E-07  0.144E-03    9.39      16.0  T
   4    -41.1173280 -0.451477E-08  0.555E-04    9.38      41.3  T
   5    -41.1173280 -0.169791E-09  0.171E-04    9.38     134.1  T
speedup  0.97
cpu  time for SCC    0.00 s
wall time for SCC    0.00 s
speedup  1.02
cpu  time for grad    0.01 s
wall time for grad    0.01 s
 E :    -40.92071351  G :  0.000326    pred/act E change: -0.443D-06 -0.524D-06
Maxdispl :   0.0103   ||displ|| :   0.0133   Lambda : -0.507D-06
Largest |displ|/coords:  0.0103 (   1)  0.0048 (   4)  0.0040 (   3)
................................................................................
.............................. CYCLE   90 ......................................
................................................................................
   1    -41.1173897 -0.411174E+02  0.106E-02    9.38       0.0  T
   2    -41.1173897 -0.169922E-07  0.790E-03    9.38       2.9  T
   3    -41.1173897 -0.125855E-07  0.109E-03    9.38      21.0  T
   4    -41.1173897 -0.233178E-08  0.331E-04    9.38      69.4  T
   5    -41.1173897 -0.966054E-10  0.987E-05    9.38     232.4  T
speedup  0.97
cpu  time for SCC    0.00 s
wall time for SCC    0.00 s
speedup  1.03
cpu  time for grad    0.01 s
wall time for grad    0.01 s
 E :    -40.92071379  G :  0.000318    pred/act E change: -0.387D-06 -0.279D-06
Maxdispl :   0.0164   ||displ|| :   0.0194   Lambda : -0.463D-06
Largest |displ|/coords:  0.0164 (   1)  0.0064 (   8)  0.0044 (   9)
................................................................................
.............................. CYCLE   91 ......................................
................................................................................
   1    -41.1173461 -0.411173E+02  0.209E-02    9.38       0.0  T
   2    -41.1173461 -0.288625E-07  0.158E-02    9.38       1.5  T
   3    -41.1173462 -0.322358E-07  0.113E-03    9.38      20.3  T
   4    -41.1173462 -0.227258E-08  0.363E-04    9.38      63.2  T
   5    -41.1173462 -0.858122E-10  0.138E-04    9.38     166.5  T
speedup  0.97
cpu  time for SCC    0.00 s
wall time for SCC    0.00 s
speedup  1.02
cpu  time for grad    0.01 s
wall time for grad    0.01 s
 E :    -40.92071401  G :  0.000408    pred/act E change: -0.254D-06 -0.225D-06
Maxdispl :   0.0038   ||displ|| :   0.0065   Lambda : -0.214D-06
Largest |displ|/coords:  0.0038 (   2)  0.0030 (   1)  0.0026 (   5)
................................................................................
.............................. CYCLE   92 ......................................
................................................................................
   1    -41.1173579 -0.411174E+02  0.534E-03    9.39       0.0  T
   2    -41.1173579 -0.296323E-08  0.403E-03    9.39       5.7  T
   3    -41.1173579 -0.239210E-08  0.392E-04    9.38      58.5  T
   4    -41.1173579 -0.424642E-09  0.122E-04    9.38     187.4  T
speedup  1.15
cpu  time for SCC    0.00 s
wall time for SCC    0.00 s
speedup  0.96
cpu  time for grad    0.01 s
wall time for grad    0.01 s
 E :    -40.92071416  G :  0.000217    pred/act E change: -0.231D-06 -0.148D-06
Maxdispl :   0.0022   ||displ|| :   0.0042   Lambda : -0.141D-06
Largest |displ|/coords:  0.0022 (   2)  0.0021 (   5)  0.0014 (   1)
................................................................................
.............................. CYCLE   93 ......................................
................................................................................
   1    -41.1173654 -0.411174E+02  0.434E-03    9.39       0.0  T
   2    -41.1173654 -0.254897E-08  0.328E-03    9.39       7.0  T
   3    -41.1173654 -0.171549E-08  0.351E-04    9.38      65.4  T
   4    -41.1173654 -0.423277E-09  0.123E-04    9.39     187.2  T
speedup  1.15
cpu  time for SCC    0.00 s
wall time for SCC    0.00 s
speedup  0.98
cpu  time for grad    0.01 s
wall time for grad    0.01 s
 E :    -40.92071425  G :  0.000112    pred/act E change: -0.107D-06 -0.892D-07
Maxdispl :   0.0022   ||displ|| :   0.0032   Lambda : -0.539D-07
Largest |displ|/coords:  0.0022 (   1)  0.0011 (   5)  0.0011 (   8)

   *** GEOMETRY OPTIMIZATION CONVERGED AFTER 93 ITERATIONS ***

------------------------------------------------------------------------
 total energy gain (kcal):     -0.0124
------------------------------------------------------------------------
================
 final structure:
================
$coord
        0.29676337079993        2.26319714801274        1.62389157487258      S 
        1.98936041667765        4.21253566508465        0.73553791230538      O 
       -1.80209594500133        1.83066254862443       -0.16293082452950      O 
        1.53325633899483       -0.09223049421327        2.23701689705076      O 
       -0.97164070595545        3.29238375476285        4.12326783691934      O 
       -1.05608081593870        5.07249591226245        3.86362422346204      H 
        4.48250779023026        1.04670778043761       -2.13428885166965      O 
        3.78043170864697        2.49748965613110       -1.19777155327038      H 
        5.23933631511494       -0.01126533369718       -0.86509900130644      H 
       -4.54171409466673       -2.31419166505518        0.84222245519039      O 
       -3.73601842445062       -0.65929829520557        0.67765754853031      H 
       -6.13033656343017       -2.20504213469166       -0.02047564669997      H 
        0.02702143804035       -4.22298881788277       -0.06845205019416      O 
        0.78866474428938       -3.04627586820375        1.15665925459070      H 
       -1.78137571876394       -4.15426022650151        0.33037011562399      H 
        0.30291997495705       -0.94969332478509       -3.39747108955902      O 
        2.10873619460711       -0.24824388014742       -3.20848727559800      H 
        0.22173079349162       -2.62223517696644       -2.16837447270034      H 
       -0.75146681766506        0.31025278975695       -2.36689705304294      H 
$end
 
 Bond Distances (Angstroems)
 ---------------------------
S1-O2=1.4448         S1-O3=1.4765         S1-O4=1.4447         S1-O5=1.5800         O2-S1=1.4448         O3-S1=1.4765         
O4-S1=1.4447         O5-S1=1.5800         O5-H6=0.9530         H6-O5=0.9530         O7-H8=0.9864         O7-H9=0.9617         
H8-O7=0.9864         H9-O7=0.9617         O10-H11=0.9779       O10-H12=0.9584       H11-O10=0.9779       H12-O10=0.9584       
O13-H14=0.9851       O13-H15=0.9806       H14-O13=0.9851       H15-O13=0.9806       O16-H17=1.0300       O16-H18=1.0992       
O16-H19=1.0263       H17-O16=1.0300       H18-O16=1.0992       H19-O16=1.0263       
 O  H  Rav=0.9959 sigma=0.0424  Rmin=0.9530  Rmax=1.0992    10
 S  O  Rav=1.4865 sigma=0.0555  Rmin=1.4447  Rmax=1.5800     4
 
 selected bond angles (degree)
 --------------------
O3-S1-O2=111.63                O4-S1-O2=114.10                O4-S1-O3=110.54                O5-S1-O2=106.84                
O5-S1-O3=105.66                O5-S1-O4=107.57                H6-O5-S1=103.88                H9-O7-H8=105.01                
H12-O10-H11=106.62             
 
 selected dihedral angles (degree)
 ---------------------------------
H6-O5-S1-O2= 31.40            H6-O5-S1-O3=272.40            H6-O5-S1-O4=154.31            
 
 CMA Distance (Angstroems)
 ---------------------------
R(CMA):  2.5515

========================================================================
 FINAL SINGLEPOINT CALCULATION ON OPTIMIZED GEOMETRY
========================================================================

 Ncao       : 52
 Nao        : 51
 Nshell     : 29
 Nel        : 64
 T(el)      :   300.0
 intcut     :    25.0
 scfconv/Eh :  0.100E-05
   qconv/e  :  0.100E-03
 intneglect :  0.100E-07
 broydamp   :      0.250
 iter      E             dE          RMSdq      gap      omega  full diag
   1    -41.1173654 -0.411174E+02  0.383E-05    9.39       0.0  T
   2    -41.1173654 -0.107292E-11  0.229E-05    9.39    1002.5  T
   3    -41.1173654 -0.483169E-12  0.496E-06    9.39    4623.4  T
speedup  1.11
cpu  time for SCC    0.00 s
wall time for SCC    0.00 s

   *** convergence criteria satisfied after 3 iterations ***

          eigenvalues
 #    :          20         21         22         23         24         25         26         27
 occ. :        2.000      2.000      2.000      2.000      2.000      2.000      2.000      2.000
 eps  :       -14.556    -14.300    -13.984    -13.718    -12.953    -12.850    -12.823    -12.792
 #    :          28         29         30         31         32         33         34         35
 occ. :        2.000      2.000      2.000      2.000      2.000      0.000      0.000      0.000
 eps  :       -12.575    -12.422    -12.324    -12.305    -12.101     -2.716     -0.767     -0.404
 #    :          36         37         38         39         40         41         42         43
 occ. :        0.000      0.000      0.000      0.000      0.000      0.000      0.000      0.000
 eps  :         0.547      0.771      1.524      2.936      3.991      4.261      5.860      6.653


   #   Z            q   n(s)   n(p)   n(d)      C6AA      α(0)
   1  16 S      1.682  1.584  1.783  0.952    89.185    15.895
   2   8 O     -0.736  1.775  4.961  0.000    29.702     7.307
   3   8 O     -0.761  1.778  4.983  0.000    30.422     7.395
   4   8 O     -0.727  1.759  4.968  0.000    29.452     7.276
   5   8 O     -0.581  1.747  4.834  0.000    24.700     6.709
   6   1 H      0.351  0.649  0.000  0.000     0.579     1.191
   7   8 O     -0.597  1.740  4.857  0.000    25.113     6.764
   8   1 H      0.333  0.667  0.000  0.000     0.631     1.247
   9   1 H      0.310  0.690  0.000  0.000     0.691     1.306
  10   8 O     -0.613  1.742  4.871  0.000    25.502     6.816
  11   1 H      0.318  0.682  0.000  0.000     0.670     1.286
  12   1 H      0.288  0.712  0.000  0.000     0.758     1.367
  13   8 O     -0.583  1.753  4.831  0.000    24.745     6.716
  14   1 H      0.343  0.657  0.000  0.000     0.605     1.222
  15   1 H      0.346  0.654  0.000  0.000     0.599     1.216
  16   8 O     -0.513  1.732  4.781  0.000    23.111     6.493
  17   1 H      0.378  0.622  0.000  0.000     0.528     1.142
  18   1 H      0.390  0.610  0.000  0.000     0.498     1.106
  19   1 H      0.373  0.627  0.000  0.000     0.537     1.151

 Mol. C6AA /au·bohr⁶  :       3381.736417
 Mol. C8AA /au·bohr⁸  :      76584.764154
 Mol. α(0) /au        :         83.605231

 
 Wiberg/Mayer (AO) data. WBOs > 0.1 written file <wbo>
 largest (>0.05) Wiberg bond orders for each atom
           total WBO             WBO to atom ...
     1  S   4.853    O    4 1.360    O    2 1.338    O    3 1.209    O    5 0.907
     2  O   1.733    S    1 1.338    O    4 0.111    O    3 0.104    O    5 0.078    H    8 0.065
     3  O   1.735    S    1 1.209    H   19 0.123    O    4 0.111    O    2 0.104    O    5 0.068    H   11 0.052
     4  O   1.732    S    1 1.360    O    2 0.111    O    3 0.111    O    5 0.065    H   14 0.053
     5  O   1.984    S    1 0.907    H    6 0.860    O    2 0.078    O    3 0.068    O    4 0.065
     6  H   0.877    O    5 0.860
     7  O   1.945    H    9 0.899    H    8 0.818    H   17 0.138    O   16 0.052
     8  H   0.889    O    7 0.818    O    2 0.065
     9  H   0.904    O    7 0.899
    10  O   1.850    H   12 0.911    H   11 0.844
    11  H   0.899    O   10 0.844    O    3 0.052
    12  H   0.917    O   10 0.911
    13  O   2.035    H   15 0.831    H   14 0.825    H   18 0.245    O   16 0.079
    14  H   0.882    O   13 0.825    O    4 0.053
    15  H   0.881    O   13 0.831
    16  O   2.231    H   19 0.728    H   17 0.716    H   18 0.599    O   13 0.079    O    7 0.052
    17  H   0.857    O   16 0.716    O    7 0.138
    18  H   0.848    O   16 0.599    O   13 0.245
    19  H   0.861    O   16 0.728    O    3 0.123
 MOs/occ written to file <molden.input>
 
molecular dipole:
                 x           y           z       tot (Debye)
 q only:       -0.390      -0.507      -0.699
   full:       -0.669       0.242      -0.037       1.810
molecular quadrupole (traceless):
                xx          xy          yy          xz          yz          zz
 q only:        3.833      -3.678      -1.466       1.271       5.120      -2.367
  q+dip:        6.133      -4.477      -1.381       3.398       6.403      -4.752
   full:        6.069      -4.564      -1.218       3.323       6.714      -4.851

SCC energy    :     -41.1173654
rep           :       0.1965684
ES            :       0.1990720
AES           :      -0.0552371
AXC           :      -0.0102790
disp          :      -0.0141602
XB            :       0.0000000
fix           :       0.0000000
total E       :     -40.9207142
atomizationE  :       3.7149015     2331.14
(atE without considering molecular charge,
 total energy contains solvation terms)
H-L gap (eV)  :          9.3850
optimized geometry written to: xtbopt.xyz


------------------------------------------------------------------------
 * finished run on 2019/09/03 at 07:16:14.061     
------------------------------------------------------------------------
 total:
 * wall-time:     0 d,  0 h,  0 min,  1.440 sec
 *  cpu-time:     0 d,  0 h,  0 min,  1.425 sec
 * ratio c/w:     0.989 speedup
 SCF:
 * wall-time:     0 d,  0 h,  0 min,  0.092 sec
 *  cpu-time:     0 d,  0 h,  0 min,  0.089 sec
 * ratio c/w:     0.965 speedup
 ANC optimizer:
 * wall-time:     0 d,  0 h,  0 min,  1.327 sec
 *  cpu-time:     0 d,  0 h,  0 min,  1.316 sec
 * ratio c/w:     0.992 speedup

