      -----------------------------------------------------------      
     |                   =====================                   |     
     |                           x T B                           |     
     |                   =====================                   |     
     |                         S. Grimme                         |     
     |          Mulliken Center for Theoretical Chemistry        |     
     |                    University of Bonn                     |     
     |                 Version 6.0.1 (SAW181210)                 |     
      -----------------------------------------------------------      

   This program is distributed in the hope that it will be useful,
   but WITHOUT ANY WARRANTY; without even the implied warranty of
   MERCHANTABILITY or FITNESS FOR A PARTICULAR PURPOSE.
   
   FOR NON-COMMERCIAL, ACADEMIA USE ONLY.
   
   Cite this work as:
   S. Grimme, C. Bannwarth, P. Shushkov, J. Comput. Theory Chem., 2017,
   13, 1989-2009.
   C. Bannwarth, S. Ehlert and S. Grimme., ChemRxiv, 2018, preprint.
   http://doi.org/10.26434/chemrxiv.7246238.v1
   
   for sTDA-xTB:
   S. Grimme and C. Bannwarth, J. Chem. Phys., 2016, 145, 054103.
   
   in the mass-spec context:
   V. Asgeirsson, C. Bauer and S. Grimme, Chem. Sci., 2017, 8, 4879.
   
   if GBSA is used:
   P. Shushkov, F. März and S. Grimme, unpublished.
   
   for ANC optimizer:
   S. Grimme, unpublished.
   Rational Function algorithm used in ANCopt:
   F. Eckert, P. Pulay, H.-J. Werner, J. Comput. Chem., 1997, 18, 1473.
   
   with help from (in alphabetical order)
   C. Bannwarth, F. Bohle, G. Brandenburg, E. Caldeweyher, M. Checinski,
   S. Dohm, S. Ehlert, S. Ehrlich, F. März, H. Neugebauer, J. Pisarek,
   P. Pracht, P. Shushkov, and S. Spicher.
   
 * started run on 2019/09/03 at 07:17:24.866     
========================================================================
 # omp threads = 1
========================================================================
number of atoms            : 19
number of electrons        : 64
charge                     : 0
spin                       : .0
first test random number   : .8026

########################################################################
# WARNING! Please study the warnings concerning your input carefully
#  - XTBPATH is not set, using XTBHOME instead
#  - the use of '-opt' is discouraged, please use '--opt' next time
#  - the use of '-chrg' is discouraged, please use '--chrg' next time
#  - the use of '-uhf' is discouraged, please use '--uhf' next time
########################################################################

           ------------------------------------------------- 
          |                 G F N 2 - x T B                 |
          | Geometry, Frequencies, Noncovalent interactions |
          |            JCTC 2018 parametrisation            |
           ------------------------------------------------- 
      method parameters     
 k(s)        :  1.8500
 k(p)        :  2.2300
 k(d)        :  2.2300
 k(f)        :  2.0000
 kEN (H0ij)  : -2.0000
 D4 a1       :  0.5200
 D4 a2       :  5.0000
 D4 s6       :  1.0000
 D4 s8       :  2.7000
 D4 s9       :  5.0000
 alphaj      :  2.0000


            Z     q(EN)     CN     RAES       Cart. coordinates
     1  S   6.0    0.64    4.28    4.20    -3.10467    -0.15109    -2.98114
     2  O   6.0   -0.30    1.18    1.80    -4.76319    -0.09176    -0.70652
     3  O   6.0   -0.30    1.18    1.80    -2.58004     2.48213    -3.82912
     4  O   6.0   -0.30    1.21    1.80    -0.68003    -1.43182    -2.34164
     5  O   6.0   -0.24    2.08    1.84    -4.37773    -1.54356    -5.01899
     6  H   1.0    0.15    1.21    1.47    -5.94008    -0.71902    -5.43165
     7  O   6.0   -0.26    1.92    1.82     7.09106    -5.74666     2.91966
     8  H   1.0    0.14    0.97    1.43     8.28888    -4.57638     3.63401
     9  H   1.0    0.15    0.97    1.43     7.00224    -7.12721     4.10322
    10  O   6.0   -0.29    2.05    1.83    -0.56667     5.68346    -0.39947
    11  H   1.0    0.18    1.03    1.43    -1.15063     4.95448    -1.96222
    12  H   1.0    0.15    0.97    1.43     0.05918     7.33467    -0.84269
    13  O   6.0   -0.29    2.07    1.83     1.83986    -1.65561     1.90357
    14  H   1.0    0.18    1.05    1.44     1.23703    -1.83795     0.19537
    15  H   1.0    0.16    0.97    1.43     3.28862    -2.75178     2.02244
    16  O   6.0   -0.21    2.91    2.56    -1.47077     1.87715     2.57628
    17  H   1.0    0.15    1.07    1.44    -0.07629     0.63689     2.49242
    18  H   1.0    0.15    1.05    1.44    -1.02417     3.49030     1.74664
    19  H   1.0    0.15    1.04    1.43    -3.07259     1.17376     1.91983

  Z AO/shell   Hii/eV     exponent
  1     Wed Apr 25 08:07:45 CEST 2018   EN: 2.200 GM2: 0.406  GM3: 0.0800  RAES: 1.40
     1s    -10.707211    1.230000
  8     Wed Apr 25 08:07:45 CEST 2018   EN: 3.440 GM2: 0.452  GM3:-0.0517  RAES: 1.80
     2s    -20.229985    2.439742
     2p    -15.503117    2.137023
 16     Tue Apr 24 11:44:34 CEST 2018   EN: 2.580 GM2: 0.340  GM3:-0.0502  RAES: 3.10
     3s    -20.029654    1.981333
     3p    -11.377694    2.025643
     3d     -0.420282    1.702555
 no old-style atom pair restraining (fixing) potential

molecular fragmentation (1/2 indicates fragments):
1111112222222222222
# atoms in fragment 1/2:     6    13
 fragment masses (1/2) :       97.07       73.07
CMA distance (Bohr)    :   6.763
constraining FC (au)   :  0.0500
           ------------------------------------------------- 
          |        Self-Consistent Charge Iterations        |
           ------------------------------------------------- 

 Ncao       : 52
 Nao        : 51
 Nshell     : 29
 Nel        : 64
 T(el)      :   300.0
 intcut     :    25.0
 scfconv/Eh :  0.100E-05
   qconv/e  :  0.100E-03
 intneglect :  0.100E-07
 broydamp   :      0.250
 iter      E             dE          RMSdq      gap      omega  full diag
   1    -41.0063623 -0.410064E+02  0.768E+00   10.52       0.0  T
   2    -41.0470260 -0.406637E-01  0.554E+00   10.00       1.0  T
   3    -41.0778591 -0.308331E-01  0.145E+00    8.79       1.0  T
   4    -41.0821850 -0.432591E-02  0.603E-01    8.83       1.0  T
   5    -41.0828170 -0.631979E-03  0.327E-01    8.78       1.0  T
   6    -41.0831548 -0.337790E-03  0.143E-01    8.79       1.0  T
   7    -41.0832361 -0.813224E-04  0.504E-02    8.82       1.0  T
   8    -41.0832448 -0.869426E-05  0.312E-02    8.81       1.0  T
   9    -41.0832496 -0.486056E-05  0.705E-03    8.81       3.3  T
  10    -41.0832498 -0.153935E-06  0.206E-03    8.81      11.1  T
  11    -41.0832498 -0.108453E-07  0.880E-04    8.81      26.1  T
  12    -41.0832498 -0.264730E-08  0.438E-04    8.81      52.4  T
speedup  0.92
cpu  time for SCC    0.01 s
wall time for SCC    0.01 s

   *** convergence criteria satisfied after 12 iterations ***

          eigenvalues
 #    :          20         21         22         23         24         25         26         27
 occ. :        2.000      2.000      2.000      2.000      2.000      2.000      2.000      2.000
 eps  :       -14.196    -13.857    -12.677    -12.470    -12.446    -12.313    -11.897    -11.550
 #    :          28         29         30         31         32         33         34         35
 occ. :        2.000      2.000      2.000      2.000      2.000      0.000      0.000      0.000
 eps  :       -11.283    -11.205    -10.726    -10.654    -10.426     -1.619     -0.622      0.290
 #    :          36         37         38         39         40         41         42         43
 occ. :        0.000      0.000      0.000      0.000      0.000      0.000      0.000      0.000
 eps  :         1.338      1.742      1.807      2.331      4.002      4.209      6.222      7.430


   #   Z            q   n(s)   n(p)   n(d)      C6AA      α(0)
   1  16 S      1.556  1.586  1.865  0.993    92.105    16.153
   2   8 O     -0.763  1.775  4.988  0.000    30.481     7.402
   3   8 O     -0.759  1.777  4.982  0.000    30.357     7.387
   4   8 O     -0.731  1.768  4.963  0.000    29.563     7.290
   5   8 O     -0.534  1.716  4.819  0.000    23.640     6.564
   6   1 H      0.357  0.643  0.000  0.000     0.564     1.175
   7   8 O     -0.569  1.741  4.827  0.000    24.452     6.674
   8   1 H      0.284  0.716  0.000  0.000     0.770     1.379
   9   1 H      0.286  0.714  0.000  0.000     0.764     1.373
  10   8 O     -0.615  1.725  4.890  0.000    25.537     6.820
  11   1 H      0.339  0.661  0.000  0.000     0.613     1.230
  12   1 H      0.295  0.705  0.000  0.000     0.738     1.349
  13   8 O     -0.630  1.726  4.904  0.000    25.906     6.870
  14   1 H      0.339  0.661  0.000  0.000     0.613     1.230
  15   1 H      0.309  0.691  0.000  0.000     0.695     1.310
  16   8 O     -0.419  1.638  4.781  0.000    21.158     6.212
  17   1 H      0.425  0.575  0.000  0.000     0.442     1.044
  18   1 H      0.417  0.583  0.000  0.000     0.454     1.059
  19   1 H      0.411  0.589  0.000  0.000     0.465     1.071

 Mol. C6AA /au·bohr⁶  :       3376.411185
 Mol. C8AA /au·bohr⁸  :      76687.286332
 Mol. α(0) /au        :         83.592649

 
 Wiberg/Mayer (AO) data. WBOs > 0.1 written file <wbo>
 largest (>0.05) Wiberg bond orders for each atom
           total WBO             WBO to atom ...
     1  S   4.959    O    4 1.338    O    3 1.305    O    2 1.282    O    5 1.003
     2  O   1.678    S    1 1.282    O    3 0.115    O    4 0.114    O    5 0.071    H   19 0.068
     3  O   1.672    S    1 1.305    O    2 0.115    O    4 0.114    O    5 0.074
     4  O   1.706    S    1 1.338    O    2 0.114    O    3 0.114    O    5 0.054    H   14 0.053
     5  O   2.055    S    1 1.003    H    6 0.848    O    3 0.074    O    2 0.071    O    4 0.054
     6  H   0.872    O    5 0.848
     7  O   1.840    H    8 0.919    H    9 0.918
     8  H   0.919    O    7 0.919
     9  H   0.918    O    7 0.918
    10  O   1.861    H   12 0.900    H   11 0.837    H   18 0.076
    11  H   0.885    O   10 0.837
    12  H   0.913    O   10 0.900
    13  O   1.853    H   15 0.886    H   14 0.828    H   17 0.082
    14  H   0.885    O   13 0.828    O    4 0.053
    15  H   0.905    O   13 0.886
    16  O   2.329    H   19 0.757    H   18 0.744    H   17 0.730
    17  H   0.820    O   16 0.730    O   13 0.082
    18  H   0.826    O   16 0.744    O   10 0.076
    19  H   0.831    O   16 0.757    O    2 0.068
 MOs/occ written to file <molden.input>
 
molecular dipole:
                 x           y           z       tot (Debye)
 q only:        0.948       0.837       2.127
   full:        0.848       0.551       1.384       4.357
molecular quadrupole (traceless):
                xx          xy          yy          xz          yz          zz
 q only:        1.468      -4.111       1.321      10.243      -3.521      -2.789
  q+dip:        4.073      -4.953      -0.159      18.071      -7.513      -3.913
   full:        3.963      -4.743      -0.161      18.651      -7.390      -3.802

SCC energy    :     -41.0832498
rep           :       0.2164148
ES            :       0.2405963
AES           :      -0.0504703
AXC           :      -0.0108305
disp          :      -0.0111188
XB            :       0.0000000
fix           :       0.0000000
total E       :     -40.8668067
atomizationE  :       3.6609939     2297.31
(atE without considering molecular charge,
 total energy contains solvation terms)
H-L gap (eV)  :          8.8065
           ------------------------------------------------- 
          |                 ===============                 |
          |                   A N C O P T                   |
          |                 ===============                 |
          |          Approximate Normal Coordinate          |
          |           Rational Function Optimizer           |
           ------------------------------------------------- 
dumping coords to <xtbopt.coord> and <xtbopt.log>
 optlevel               2
 Maxcycle             380
 Maxmicro              25
 Econv         1.000000000000000E-007
 Gconv         2.000000000000000E-004
 Maxdispl       1.00000000000000     
 Hlow          5.000000000000000E-003
 S6             20.0000000000000     
 Nvar               51

generating ANC from model Hessian ...
 Shifting diagonal of input Hessian by   5.156646162384574E-003
 Lowest  eigenvalues of input Hessian
    0.005000    0.005045   -0.000000   -0.000000   -0.000000   -0.000000
    0.000000    0.000000    0.005266    0.005290    0.005398    0.005540
    0.005625    0.005734    0.005931    0.006874    0.007139    0.008552
 Highest eigenvalues
    1.455163    1.556684    1.563357    3.137634    3.211321    3.313181
 
cpu  time for ANC gen    0.00 s
wall time for ANC gen    0.01 s
................................................................................
.............................. CYCLE    1 ......................................
................................................................................
   1    -41.0832498 -0.410832E+02  0.109E-04    8.81       0.0  T
   2    -41.0832498 -0.156675E-10  0.833E-05    8.81     275.4  T
   3    -41.0832498 -0.112408E-10  0.321E-05    8.81     715.7  T
speedup  1.00
cpu  time for SCC    0.00 s
wall time for SCC    0.00 s
speedup  1.00
cpu  time for grad    0.01 s
wall time for grad    0.01 s
 E :    -40.86680669  G :  0.158131    pred/act E change:  0.000D+00  0.177D-07
Maxdispl :   0.3281   ||displ|| :   0.4204   Lambda : -0.195D-01
Largest |displ|/coords:  0.3281 (  20)  0.1148 (   9)  0.0973 (  19)
................................................................................
.............................. CYCLE    2 ......................................
................................................................................
   1    -41.0919327 -0.410919E+02  0.443E-01    8.92       0.0  T
   2    -41.0920529 -0.120182E-03  0.339E-01    8.96       1.0  T
   3    -41.0921016 -0.487190E-04  0.923E-02    9.04       1.0  T
   4    -41.0921196 -0.179462E-04  0.220E-02    9.03       1.0  T
   5    -41.0921204 -0.842456E-06  0.716E-03    9.03       3.2  T
   6    -41.0921205 -0.618659E-07  0.391E-03    9.03       5.9  T
   7    -41.0921205 -0.393762E-07  0.175E-03    9.03      13.1  T
speedup  0.89
cpu  time for SCC    0.00 s
wall time for SCC    0.00 s
speedup  0.99
cpu  time for grad    0.01 s
wall time for grad    0.01 s
 E :    -40.88358961  G :  0.105039    pred/act E change:  0.000D+00 -0.168D-01
Maxdispl :   0.3732   ||displ|| :   0.4581   Lambda : -0.136D-01
Largest |displ|/coords:  0.3732 (  20)  0.1166 (  19)  0.1044 (   9)
................................................................................
.............................. CYCLE    3 ......................................
................................................................................
   1    -41.0964663 -0.410965E+02  0.415E-01    9.09       0.0  T
   2    -41.0967333 -0.266973E-03  0.315E-01    9.13       1.0  T
   3    -41.0968505 -0.117212E-03  0.119E-01    9.19       1.0  T
   4    -41.0968713 -0.207474E-04  0.327E-02    9.19       1.0  T
   5    -41.0968726 -0.132704E-05  0.102E-02    9.18       2.3  T
   6    -41.0968727 -0.131366E-06  0.523E-03    9.18       4.4  T
   7    -41.0968728 -0.695885E-07  0.212E-03    9.18      10.8  T
speedup  0.95
cpu  time for SCC    0.00 s
wall time for SCC    0.00 s
speedup  0.90
cpu  time for grad    0.01 s
wall time for grad    0.01 s
 E :    -40.89378289  G :  0.066970    pred/act E change: -0.115D-01 -0.102D-01
Maxdispl :   0.1421   ||displ|| :   0.3407   Lambda : -0.451D-02
Largest |displ|/coords:  0.1421 (  20)  0.1103 (   9)  0.1028 (  11)
................................................................................
.............................. CYCLE    4 ......................................
................................................................................
   1    -41.0994156 -0.410994E+02  0.246E-01    9.17       0.0  T
   2    -41.0995111 -0.954729E-04  0.187E-01    9.19       1.0  T
   3    -41.0995533 -0.422031E-04  0.761E-02    9.23       1.0  T
   4    -41.0995595 -0.622648E-05  0.178E-02    9.23       1.3  T
   5    -41.0995600 -0.463778E-06  0.555E-03    9.23       4.1  T
   6    -41.0995600 -0.334884E-07  0.298E-03    9.23       7.7  T
speedup  1.08
cpu  time for SCC    0.00 s
wall time for SCC    0.00 s
speedup  1.07
cpu  time for grad    0.01 s
wall time for grad    0.01 s
 E :    -40.89714830  G :  0.044885    pred/act E change: -0.823D-02 -0.337D-02
Maxdispl :   0.3524   ||displ|| :   0.5517   Lambda : -0.469D-02
Largest |displ|/coords:  0.3524 (   9)  0.1701 (   5)  0.1622 (  10)
................................................................................
.............................. CYCLE    5 ......................................
................................................................................
   1    -41.0935079 -0.410935E+02  0.630E-01    9.15       0.0  T
   2    -41.0936663 -0.158350E-03  0.479E-01    9.19       1.0  T
   3    -41.0937284 -0.620743E-04  0.972E-02    9.26       1.0  T
   4    -41.0937566 -0.282591E-04  0.278E-02    9.24       1.0  T
   5    -41.0937579 -0.125851E-05  0.595E-03    9.24       3.9  T
   6    -41.0937579 -0.198310E-07  0.324E-03    9.24       7.1  T
speedup  1.05
cpu  time for SCC    0.00 s
wall time for SCC    0.00 s
speedup  1.06
cpu  time for grad    0.01 s
wall time for grad    0.01 s
 E :    -40.89874024  G :  0.049839    pred/act E change: -0.252D-02 -0.159D-02
Maxdispl :   0.3984   ||displ|| :   0.5816   Lambda : -0.906D-02
Largest |displ|/coords:  0.3984 (   3)  0.1646 (  10)  0.1519 (  14)
................................................................................
.............................. CYCLE    6 ......................................
................................................................................
   1    -41.1115234 -0.411115E+02  0.837E-01    9.06       0.0  T
   2    -41.1119385 -0.415051E-03  0.634E-01    9.11       1.0  T
   3    -41.1121185 -0.180054E-03  0.149E-01    9.18       1.0  T
   4    -41.1121781 -0.595607E-04  0.497E-02    9.16       1.0  T
   5    -41.1121823 -0.423126E-05  0.109E-02    9.16       2.1  T
   6    -41.1121824 -0.911908E-07  0.507E-03    9.16       4.5  T
   7    -41.1121824 -0.238997E-07  0.140E-03    9.16      16.4  T
speedup  1.22
cpu  time for SCC    0.00 s
wall time for SCC    0.00 s
speedup  1.02
cpu  time for grad    0.01 s
wall time for grad    0.01 s
 E :    -40.89728681  G :  0.069250    pred/act E change: -0.306D-02  0.145D-02
Maxdispl :   0.1477   ||displ|| :   0.3964   Lambda : -0.102D-01
Largest |displ|/coords:  0.1477 (  13)  0.1394 (  14)  0.1373 (  15)
................................................................................
.............................. CYCLE    7 ......................................
................................................................................
   1    -41.0996003 -0.410996E+02  0.541E-01    9.15       0.0  T
   2    -41.0998739 -0.273655E-03  0.410E-01    9.11       1.0  T
   3    -41.0999693 -0.953895E-04  0.119E-01    9.03       1.0  T
   4    -41.1000010 -0.317287E-04  0.412E-02    9.05       1.0  T
   5    -41.1000026 -0.156998E-05  0.701E-03    9.05       3.3  T
   6    -41.1000027 -0.478348E-07  0.364E-03    9.06       6.3  T
   7    -41.1000027 -0.221581E-07  0.117E-03    9.06      19.6  T
speedup  0.93
cpu  time for SCC    0.00 s
wall time for SCC    0.00 s
speedup  1.00
cpu  time for grad    0.01 s
wall time for grad    0.01 s
 E :    -40.89982883  G :  0.035835    pred/act E change: -0.606D-02 -0.254D-02
Maxdispl :   0.1410   ||displ|| :   0.2952   Lambda : -0.342D-02
Largest |displ|/coords:  0.1410 (   3)  0.1200 (   5)  0.1147 (   9)
................................................................................
.............................. CYCLE    8 ......................................
................................................................................
   1    -41.1030566 -0.411031E+02  0.259E-01    9.14       0.0  T
   2    -41.1030913 -0.347290E-04  0.192E-01    9.15       1.0  T
   3    -41.1031092 -0.178744E-04  0.400E-02    9.16       1.0  T
   4    -41.1031135 -0.426343E-05  0.119E-02    9.16       1.9  T
   5    -41.1031135 -0.959114E-07  0.284E-03    9.16       8.1  T
   6    -41.1031136 -0.117514E-07  0.145E-03    9.16      15.8  T
speedup  0.79
cpu  time for SCC    0.00 s
wall time for SCC    0.00 s
speedup  0.94
cpu  time for grad    0.01 s
wall time for grad    0.01 s
 E :    -40.90139643  G :  0.019323    pred/act E change: -0.590D-02 -0.157D-02
Maxdispl :   0.2860   ||displ|| :   0.5147   Lambda : -0.222D-02
Largest |displ|/coords:  0.2860 (   9)  0.2439 (   4)  0.1659 (   3)
................................................................................
.............................. CYCLE    9 ......................................
................................................................................
   1    -41.1092547 -0.411093E+02  0.538E-01    9.12       0.0  T
   2    -41.1093413 -0.866475E-04  0.410E-01    9.13       1.0  T
   3    -41.1094027 -0.613997E-04  0.607E-02    9.16       1.0  T
   4    -41.1094156 -0.128858E-04  0.223E-02    9.15       1.0  T
   5    -41.1094164 -0.726376E-06  0.577E-03    9.15       4.0  T
   6    -41.1094164 -0.578247E-08  0.310E-03    9.15       7.4  T
   7    -41.1094164 -0.101224E-07  0.870E-04    9.15      26.4  T
   8    -41.1094164 -0.701988E-09  0.203E-04    9.15     112.9  T
speedup  1.02
cpu  time for SCC    0.00 s
wall time for SCC    0.00 s
speedup  1.04
cpu  time for grad    0.01 s
wall time for grad    0.01 s
 E :    -40.90069200  G :  0.039598    pred/act E change: -0.186D-02  0.704D-03
Maxdispl :   0.2116   ||displ|| :   0.3685   Lambda : -0.321D-02
Largest |displ|/coords:  0.2116 (   5)  0.1699 (   9)  0.1245 (   3)
................................................................................
.............................. CYCLE   10 ......................................
................................................................................
   1    -41.1078643 -0.411079E+02  0.422E-01    9.09       0.0  T
   2    -41.1079006 -0.362790E-04  0.320E-01    9.10       1.0  T
   3    -41.1079295 -0.289101E-04  0.434E-02    9.10       1.0  T
   4    -41.1079342 -0.474989E-05  0.964E-03    9.10       2.4  T
   5    -41.1079344 -0.188371E-06  0.385E-03    9.10       6.0  T
   6    -41.1079344 -0.312352E-08  0.189E-03    9.10      12.2  T
speedup  1.11
cpu  time for SCC    0.00 s
wall time for SCC    0.00 s
speedup  1.07
cpu  time for grad    0.01 s
wall time for grad    0.01 s
 E :    -40.90263242  G :  0.023626    pred/act E change: -0.140D-02 -0.194D-02
Maxdispl :   0.2560   ||displ|| :   0.4503   Lambda : -0.239D-02
Largest |displ|/coords:  0.2560 (   9)  0.2036 (   5)  0.1696 (   3)
................................................................................
.............................. CYCLE   11 ......................................
................................................................................
   1    -41.0978032 -0.410978E+02  0.474E-01    9.17       0.0  T
   2    -41.0979260 -0.122712E-03  0.355E-01    9.15       1.0  T
   3    -41.0979892 -0.632779E-04  0.756E-02    9.12       1.0  T
   4    -41.0980062 -0.169609E-04  0.252E-02    9.13       1.0  T
   5    -41.0980073 -0.105260E-05  0.684E-03    9.13       3.4  T
   6    -41.0980073 -0.314826E-07  0.409E-03    9.13       5.6  T
   7    -41.0980073 -0.163937E-07  0.949E-04    9.13      24.2  T
speedup  1.16
cpu  time for SCC    0.00 s
wall time for SCC    0.00 s
speedup  1.10
cpu  time for grad    0.01 s
wall time for grad    0.01 s
 E :    -40.90184754  G :  0.054679    pred/act E change: -0.182D-02  0.785D-03
Maxdispl :   0.2508   ||displ|| :   0.4163   Lambda : -0.765D-02
Largest |displ|/coords:  0.2508 (   4)  0.1924 (   5)  0.1615 (   7)
................................................................................
.............................. CYCLE   12 ......................................
................................................................................
   1    -41.1116937 -0.411117E+02  0.641E-01    9.18       0.0  T
   2    -41.1118770 -0.183352E-03  0.481E-01    9.19       1.0  T
   3    -41.1119955 -0.118492E-03  0.899E-02    9.21       1.0  T
   4    -41.1120202 -0.246564E-04  0.227E-02    9.21       1.0  T
   5    -41.1120208 -0.596712E-06  0.946E-03    9.21       2.4  T
   6    -41.1120208 -0.336579E-07  0.487E-03    9.21       4.7  T
   7    -41.1120208 -0.291703E-07  0.107E-03    9.21      21.5  T
speedup  1.11
cpu  time for SCC    0.00 s
wall time for SCC    0.00 s
speedup  0.97
cpu  time for grad    0.01 s
wall time for grad    0.01 s
 E :    -40.90268595  G :  0.041382    pred/act E change: -0.143D-02 -0.838D-03
Maxdispl :   0.2108   ||displ|| :   0.2685   Lambda : -0.218D-02
Largest |displ|/coords:  0.2108 (  12)  0.1038 (   9)  0.0639 (   3)
................................................................................
.............................. CYCLE   13 ......................................
................................................................................
   1    -41.1142003 -0.411142E+02  0.412E-01    9.25       0.0  T
   2    -41.1142460 -0.457726E-04  0.314E-01    9.24       1.0  T
   3    -41.1142770 -0.309322E-04  0.432E-02    9.22       1.0  T
   4    -41.1142840 -0.705657E-05  0.136E-02    9.23       1.7  T
   5    -41.1142844 -0.347800E-06  0.403E-03    9.23       5.7  T
   6    -41.1142844 -0.458864E-08  0.201E-03    9.23      11.4  T
speedup  1.08
cpu  time for SCC    0.00 s
wall time for SCC    0.00 s
speedup  1.06
cpu  time for grad    0.01 s
wall time for grad    0.01 s
 E :    -40.90283476  G :  0.033194    pred/act E change: -0.449D-02 -0.149D-03
Maxdispl :   0.1527   ||displ|| :   0.2972   Lambda : -0.259D-02
Largest |displ|/coords:  0.1527 (   9)  0.1234 (  10)  0.1098 (  12)
................................................................................
.............................. CYCLE   14 ......................................
................................................................................
   1    -41.1022321 -0.411022E+02  0.426E-01    9.21       0.0  T
   2    -41.1022764 -0.443180E-04  0.324E-01    9.21       1.0  T
   3    -41.1023113 -0.349021E-04  0.416E-02    9.20       1.0  T
   4    -41.1023174 -0.613166E-05  0.131E-02    9.21       1.7  T
   5    -41.1023176 -0.160529E-06  0.414E-03    9.21       5.5  T
   6    -41.1023176 -0.928657E-08  0.226E-03    9.21      10.2  T
speedup  1.11
cpu  time for SCC    0.00 s
wall time for SCC    0.00 s
speedup  1.06
cpu  time for grad    0.01 s
wall time for grad    0.01 s
 E :    -40.90366855  G :  0.025927    pred/act E change: -0.117D-02 -0.834D-03
Maxdispl :   0.0865   ||displ|| :   0.1851   Lambda : -0.111D-02
Largest |displ|/coords:  0.0865 (   3)  0.0748 (  11)  0.0588 (   8)
................................................................................
.............................. CYCLE   15 ......................................
................................................................................
   1    -41.1078925 -0.411079E+02  0.178E-01    9.15       0.0  T
   2    -41.1079156 -0.230409E-04  0.134E-01    9.16       1.0  T
   3    -41.1079245 -0.890864E-05  0.375E-02    9.18       1.0  T
   4    -41.1079273 -0.277317E-05  0.116E-02    9.17       2.0  T
   5    -41.1079275 -0.197159E-06  0.266E-03    9.17       8.6  T
   6    -41.1079275 -0.484270E-08  0.141E-03    9.17      16.3  T
speedup  0.79
cpu  time for SCC    0.00 s
wall time for SCC    0.00 s
speedup  0.93
cpu  time for grad    0.01 s
wall time for grad    0.01 s
 E :    -40.90407824  G :  0.013666    pred/act E change: -0.141D-02 -0.410D-03
Maxdispl :   0.1093   ||displ|| :   0.1675   Lambda : -0.444D-03
Largest |displ|/coords:  0.1093 (   6)  0.0741 (   8)  0.0476 (   2)
................................................................................
.............................. CYCLE   16 ......................................
................................................................................
   1    -41.1104201 -0.411104E+02  0.165E-01    9.23       0.0  T
   2    -41.1104238 -0.376519E-05  0.123E-01    9.23       1.0  T
   3    -41.1104274 -0.350728E-05  0.136E-02    9.22       1.7  T
   4    -41.1104277 -0.340398E-06  0.556E-03    9.23       4.1  T
   5    -41.1104277 -0.356505E-07  0.170E-03    9.23      13.5  T
   6    -41.1104277 -0.272246E-08  0.932E-04    9.23      24.6  T
speedup  0.81
cpu  time for SCC    0.00 s
wall time for SCC    0.00 s
speedup  0.94
cpu  time for grad    0.01 s
wall time for grad    0.01 s
 E :    -40.90412565  G :  0.017560    pred/act E change: -0.573D-03 -0.474D-04
Maxdispl :   0.0747   ||displ|| :   0.1481   Lambda : -0.431D-03
Largest |displ|/coords:  0.0747 (   8)  0.0638 (   9)  0.0617 (  10)
................................................................................
.............................. CYCLE   17 ......................................
................................................................................
   1    -41.1085236 -0.411085E+02  0.139E-01    9.24       0.0  T
   2    -41.1085283 -0.463266E-05  0.105E-01    9.24       1.0  T
   3    -41.1085311 -0.289843E-05  0.142E-02    9.24       1.6  T
   4    -41.1085319 -0.727371E-06  0.557E-03    9.24       4.1  T
   5    -41.1085319 -0.375309E-07  0.162E-03    9.24      14.2  T
   6    -41.1085319 -0.186220E-08  0.899E-04    9.24      25.5  T
speedup  1.11
cpu  time for SCC    0.00 s
wall time for SCC    0.00 s
speedup  0.95
cpu  time for grad    0.01 s
wall time for grad    0.01 s
 E :    -40.90434617  G :  0.006942    pred/act E change: -0.228D-03 -0.221D-03
Maxdispl :   0.1026   ||displ|| :   0.1942   Lambda : -0.295D-03
Largest |displ|/coords:  0.1026 (  10)  0.0731 (   2)  0.0721 (   3)
................................................................................
.............................. CYCLE   18 ......................................
................................................................................
   1    -41.1061874 -0.411062E+02  0.148E-01    9.19       0.0  T
   2    -41.1061929 -0.549019E-05  0.111E-01    9.19       1.0  T
   3    -41.1061966 -0.373209E-05  0.165E-02    9.19       1.4  T
   4    -41.1061974 -0.767174E-06  0.521E-03    9.19       4.4  T
   5    -41.1061974 -0.416429E-07  0.177E-03    9.19      12.9  T
   6    -41.1061975 -0.233852E-08  0.992E-04    9.19      23.1  T
speedup  1.05
cpu  time for SCC    0.00 s
wall time for SCC    0.00 s
speedup  1.03
cpu  time for grad    0.01 s
wall time for grad    0.01 s
 E :    -40.90447095  G :  0.014416    pred/act E change: -0.220D-03 -0.125D-03
Maxdispl :   0.1191   ||displ|| :   0.1742   Lambda : -0.269D-03
Largest |displ|/coords:  0.1191 (   2)  0.0449 (   9)  0.0441 (   1)
................................................................................
.............................. CYCLE   19 ......................................
................................................................................
   1    -41.1075605 -0.411076E+02  0.601E-02    9.23       0.0  T
   2    -41.1075618 -0.124171E-05  0.453E-02    9.22       1.0  T
   3    -41.1075626 -0.859831E-06  0.809E-03    9.22       2.8  T
   4    -41.1075628 -0.172138E-06  0.325E-03    9.22       7.1  T
   5    -41.1075628 -0.853687E-08  0.733E-04    9.22      31.3  T
   6    -41.1075628 -0.414190E-09  0.432E-04    9.22      53.1  T
speedup  1.08
cpu  time for SCC    0.00 s
wall time for SCC    0.00 s
speedup  0.94
cpu  time for grad    0.01 s
wall time for grad    0.01 s
 E :    -40.90465585  G :  0.008235    pred/act E change: -0.153D-03 -0.185D-03
Maxdispl :   0.2547   ||displ|| :   0.4596   Lambda : -0.582D-03
Largest |displ|/coords:  0.2547 (   2)  0.1899 (  10)  0.1367 (   9)
................................................................................
.............................. CYCLE   20 ......................................
................................................................................
   1    -41.1090635 -0.411091E+02  0.219E-01    9.30       0.0  T
   2    -41.1090760 -0.125535E-04  0.164E-01    9.30       1.0  T
   3    -41.1090848 -0.882050E-05  0.239E-02    9.30       1.0  T
   4    -41.1090866 -0.173971E-05  0.894E-03    9.30       2.6  T
   5    -41.1090867 -0.713997E-07  0.261E-03    9.30       8.8  T
   6    -41.1090867 -0.520465E-08  0.145E-03    9.30      15.8  T
speedup  1.08
cpu  time for SCC    0.00 s
wall time for SCC    0.00 s
speedup  1.06
cpu  time for grad    0.01 s
wall time for grad    0.01 s
 E :    -40.90498081  G :  0.010262    pred/act E change: -0.139D-03 -0.325D-03
Maxdispl :   0.2164   ||displ|| :   0.4144   Lambda : -0.358D-03
Largest |displ|/coords:  0.2164 (   2)  0.1495 (   1)  0.1488 (   9)
................................................................................
.............................. CYCLE   21 ......................................
................................................................................
   1    -41.1065325 -0.411065E+02  0.242E-01    9.33       0.0  T
   2    -41.1065477 -0.151537E-04  0.183E-01    9.33       1.0  T
   3    -41.1065590 -0.113072E-04  0.255E-02    9.33       1.0  T
   4    -41.1065611 -0.213895E-05  0.872E-03    9.33       2.6  T
   5    -41.1065612 -0.764011E-07  0.272E-03    9.33       8.4  T
   6    -41.1065612 -0.523811E-08  0.161E-03    9.33      14.3  T
speedup  1.08
cpu  time for SCC    0.00 s
wall time for SCC    0.00 s
speedup  1.06
cpu  time for grad    0.01 s
wall time for grad    0.01 s
 E :    -40.90513650  G :  0.013389    pred/act E change: -0.352D-03 -0.156D-03
Maxdispl :   0.1035   ||displ|| :   0.1908   Lambda : -0.326D-03
Largest |displ|/coords:  0.1035 (   1)  0.0798 (   9)  0.0703 (   2)
................................................................................
.............................. CYCLE   22 ......................................
................................................................................
   1    -41.1066229 -0.411066E+02  0.105E-01    9.31       0.0  T
   2    -41.1066255 -0.260998E-05  0.793E-02    9.31       1.0  T
   3    -41.1066275 -0.195863E-05  0.106E-02    9.30       2.2  T
   4    -41.1066278 -0.376528E-06  0.429E-03    9.30       5.4  T
   5    -41.1066279 -0.265656E-07  0.131E-03    9.30      17.5  T
   6    -41.1066279 -0.146706E-08  0.748E-04    9.30      30.7  T
speedup  1.03
cpu  time for SCC    0.00 s
wall time for SCC    0.00 s
speedup  0.91
cpu  time for grad    0.01 s
wall time for grad    0.01 s
 E :    -40.90534865  G :  0.011105    pred/act E change: -0.210D-03 -0.212D-03
Maxdispl :   0.1886   ||displ|| :   0.3114   Lambda : -0.501D-03
Largest |displ|/coords:  0.1886 (   1)  0.1435 (   2)  0.0766 (   5)
................................................................................
.............................. CYCLE   23 ......................................
................................................................................
   1    -41.1083058 -0.411083E+02  0.157E-01    9.28       0.0  T
   2    -41.1083144 -0.864028E-05  0.120E-01    9.28       1.0  T
   3    -41.1083222 -0.783192E-05  0.187E-02    9.27       1.2  T
   4    -41.1083233 -0.103829E-05  0.699E-03    9.27       3.3  T
   5    -41.1083233 -0.498152E-07  0.240E-03    9.27       9.6  T
   6    -41.1083233 -0.576141E-08  0.140E-03    9.27      16.4  T
speedup  1.11
cpu  time for SCC    0.00 s
wall time for SCC    0.00 s
speedup  1.06
cpu  time for grad    0.01 s
wall time for grad    0.01 s
 E :    -40.90565103  G :  0.011719    pred/act E change: -0.169D-03 -0.302D-03
Maxdispl :   0.3013   ||displ|| :   0.5185   Lambda : -0.614D-03
Largest |displ|/coords:  0.3013 (   1)  0.2281 (   2)  0.1602 (   3)
................................................................................
.............................. CYCLE   24 ......................................
................................................................................
   1    -41.1063079 -0.411063E+02  0.272E-01    9.26       0.0  T
   2    -41.1063315 -0.235873E-04  0.207E-01    9.26       1.0  T
   3    -41.1063528 -0.212717E-04  0.304E-02    9.25       1.0  T
   4    -41.1063557 -0.290891E-05  0.117E-02    9.25       2.0  T
   5    -41.1063558 -0.136952E-06  0.403E-03    9.25       5.7  T
   6    -41.1063558 -0.139535E-07  0.238E-03    9.25       9.7  T
   7    -41.1063558 -0.730442E-08  0.456E-04    9.25      50.4  T
speedup  0.93
cpu  time for SCC    0.00 s
wall time for SCC    0.00 s
speedup  0.98
cpu  time for grad    0.01 s
wall time for grad    0.01 s
 E :    -40.90611359  G :  0.009111    pred/act E change: -0.275D-03 -0.463D-03
Maxdispl :   0.3398   ||displ|| :   0.5914   Lambda : -0.558D-03
Largest |displ|/coords:  0.3398 (   1)  0.2597 (   2)  0.2069 (   3)
................................................................................
.............................. CYCLE   25 ......................................
................................................................................
   1    -41.1018814 -0.411019E+02  0.294E-01    9.25       0.0  T
   2    -41.1019145 -0.330420E-04  0.222E-01    9.25       1.0  T
   3    -41.1019406 -0.261257E-04  0.361E-02    9.24       1.0  T
   4    -41.1019452 -0.454297E-05  0.106E-02    9.24       2.2  T
   5    -41.1019453 -0.109309E-06  0.464E-03    9.24       4.9  T
   6    -41.1019453 -0.146022E-07  0.244E-03    9.24       9.4  T
   7    -41.1019453 -0.630737E-08  0.443E-04    9.24      51.7  T
speedup  1.16
cpu  time for SCC    0.00 s
wall time for SCC    0.00 s
speedup  1.09
cpu  time for grad    0.01 s
wall time for grad    0.01 s
 E :    -40.90635848  G :  0.018348    pred/act E change: -0.390D-03 -0.245D-03
Maxdispl :   0.1386   ||displ|| :   0.3307   Lambda : -0.746D-03
Largest |displ|/coords:  0.1386 (   1)  0.1377 (  11)  0.1307 (   5)

generating ANC from model Hessian ...
 Shifting diagonal of input Hessian by   5.127172051456767E-003
 Lowest  eigenvalues of input Hessian
    0.005000    0.005123   -0.000000   -0.000000   -0.000000   -0.000000
   -0.000000    0.000000    0.005531    0.005638    0.007204    0.007534
    0.008003    0.009814    0.013464    0.016042    0.017141    0.018365
 Highest eigenvalues
    1.415771    1.420029    1.468913    2.568010    3.421893    3.692164
 
cpu  time for ANC gen    0.00 s
wall time for ANC gen    0.00 s
................................................................................
.............................. CYCLE   26 ......................................
................................................................................
   1    -41.1095690 -0.411096E+02  0.169E-01    9.28       0.0  T
   2    -41.1095895 -0.205094E-04  0.125E-01    9.28       1.0  T
   3    -41.1096015 -0.119365E-04  0.316E-02    9.28       1.0  T
   4    -41.1096037 -0.228964E-05  0.103E-02    9.28       2.2  T
   5    -41.1096039 -0.152153E-06  0.328E-03    9.28       7.0  T
   6    -41.1096039 -0.841214E-08  0.182E-03    9.28      12.6  T
   7    -41.1096039 -0.379985E-08  0.560E-04    9.28      41.0  T
   8    -41.1096039 -0.536424E-09  0.187E-04    9.28     122.9  T
speedup  1.02
cpu  time for SCC    0.00 s
wall time for SCC    0.00 s
speedup  1.09
cpu  time for grad    0.01 s
wall time for grad    0.01 s
 E :    -40.90626116  G :  0.021784    pred/act E change:  0.000D+00  0.973D-04
Maxdispl :   0.1187   ||displ|| :   0.2463   Lambda : -0.102D-02
Largest |displ|/coords:  0.1187 (   7)  0.1074 (   4)  0.1046 (   8)
................................................................................
.............................. CYCLE   27 ......................................
................................................................................
   1    -41.1070991 -0.411071E+02  0.212E-01    9.28       0.0  T
   2    -41.1071036 -0.451249E-05  0.160E-01    9.28       1.0  T
   3    -41.1071070 -0.340864E-05  0.148E-02    9.27       1.6  T
   4    -41.1071077 -0.670764E-06  0.497E-03    9.27       4.6  T
   5    -41.1071077 -0.202914E-07  0.204E-03    9.27      11.2  T
speedup  0.97
cpu  time for SCC    0.00 s
wall time for SCC    0.00 s
speedup  1.00
cpu  time for grad    0.01 s
wall time for grad    0.01 s
 E :    -40.90671404  G :  0.010758    pred/act E change:  0.000D+00 -0.453D-03
Maxdispl :   0.1017   ||displ|| :   0.1723   Lambda : -0.591D-03
Largest |displ|/coords:  0.1017 (   2)  0.0823 (  14)  0.0491 (   6)
................................................................................
.............................. CYCLE   28 ......................................
................................................................................
   1    -41.1053913 -0.411054E+02  0.229E-01    9.28       0.0  T
   2    -41.1054007 -0.944287E-05  0.174E-01    9.28       1.0  T
   3    -41.1054084 -0.765002E-05  0.217E-02    9.28       1.1  T
   4    -41.1054096 -0.125935E-05  0.532E-03    9.28       4.3  T
   5    -41.1054097 -0.453037E-07  0.199E-03    9.28      11.5  T
   6    -41.1054097 -0.852900E-09  0.102E-03    9.28      22.5  T
speedup  1.08
cpu  time for SCC    0.00 s
wall time for SCC    0.00 s
speedup  1.05
cpu  time for grad    0.01 s
wall time for grad    0.01 s
 E :    -40.90699297  G :  0.012074    pred/act E change: -0.541D-03 -0.279D-03
Maxdispl :   0.0892   ||displ|| :   0.1526   Lambda : -0.254D-03
Largest |displ|/coords:  0.0892 (   2)  0.0743 (   4)  0.0672 (   7)
................................................................................
.............................. CYCLE   29 ......................................
................................................................................
   1    -41.1061508 -0.411062E+02  0.124E-01    9.28       0.0  T
   2    -41.1061527 -0.186850E-05  0.938E-02    9.28       1.0  T
   3    -41.1061544 -0.168514E-05  0.950E-03    9.28       2.4  T
   4    -41.1061546 -0.216716E-06  0.306E-03    9.28       7.5  T
   5    -41.1061546 -0.760524E-08  0.110E-03    9.28      20.8  T
   6    -41.1061546 -0.273992E-09  0.534E-04    9.28      43.0  T
speedup  1.08
cpu  time for SCC    0.00 s
wall time for SCC    0.00 s
speedup  1.05
cpu  time for grad    0.01 s
wall time for grad    0.01 s
 E :    -40.90713250  G :  0.008642    pred/act E change: -0.304D-03 -0.140D-03
Maxdispl :   0.1590   ||displ|| :   0.1924   Lambda : -0.245D-03
Largest |displ|/coords:  0.1590 (   2)  0.0584 (   1)  0.0512 (   4)
................................................................................
.............................. CYCLE   30 ......................................
................................................................................
   1    -41.1067919 -0.411068E+02  0.119E-01    9.28       0.0  T
   2    -41.1067939 -0.190766E-05  0.896E-02    9.28       1.0  T
   3    -41.1067954 -0.149450E-05  0.102E-02    9.28       2.3  T
   4    -41.1067956 -0.265806E-06  0.301E-03    9.28       7.6  T
   5    -41.1067956 -0.908902E-08  0.102E-03    9.28      22.4  T
   6    -41.1067956 -0.434163E-09  0.513E-04    9.28      44.8  T
speedup  0.83
cpu  time for SCC    0.00 s
wall time for SCC    0.00 s
speedup  0.94
cpu  time for grad    0.01 s
wall time for grad    0.01 s
 E :    -40.90732077  G :  0.005799    pred/act E change: -0.130D-03 -0.188D-03
Maxdispl :   0.3531   ||displ|| :   0.4308   Lambda : -0.341D-03
Largest |displ|/coords:  0.3531 (   2)  0.1354 (   4)  0.1077 (   3)
................................................................................
.............................. CYCLE   31 ......................................
................................................................................
   1    -41.1032231 -0.411032E+02  0.335E-01    9.27       0.0  T
   2    -41.1032357 -0.126478E-04  0.254E-01    9.27       1.0  T
   3    -41.1032494 -0.136579E-04  0.219E-02    9.26       1.0  T
   4    -41.1032505 -0.114025E-05  0.806E-03    9.27       2.8  T
   5    -41.1032506 -0.430361E-07  0.327E-03    9.27       7.0  T
   6    -41.1032506 -0.513933E-08  0.131E-03    9.27      17.5  T
   7    -41.1032506 -0.343033E-08  0.356E-04    9.27      64.4  T
speedup  0.93
cpu  time for SCC    0.00 s
wall time for SCC    0.00 s
speedup  0.96
cpu  time for grad    0.01 s
wall time for grad    0.01 s
 E :    -40.90744796  G :  0.017731    pred/act E change: -0.127D-03 -0.127D-03
Maxdispl :   0.1851   ||displ|| :   0.2075   Lambda : -0.440D-03
Largest |displ|/coords:  0.1851 (   2)  0.0567 (   1)  0.0278 (   4)
................................................................................
.............................. CYCLE   32 ......................................
................................................................................
   1    -41.1062433 -0.411062E+02  0.106E-01    9.27       0.0  T
   2    -41.1062503 -0.701518E-05  0.793E-02    9.27       1.0  T
   3    -41.1062556 -0.523380E-05  0.172E-02    9.27       1.3  T
   4    -41.1062564 -0.804129E-06  0.426E-03    9.27       5.4  T
   5    -41.1062564 -0.161379E-07  0.187E-03    9.27      12.2  T
   6    -41.1062564 -0.224532E-08  0.831E-04    9.27      27.6  T
speedup  1.08
cpu  time for SCC    0.00 s
wall time for SCC    0.00 s
speedup  1.05
cpu  time for grad    0.01 s
wall time for grad    0.01 s
 E :    -40.90755154  G :  0.015032    pred/act E change: -0.202D-03 -0.104D-03
Maxdispl :   0.1577   ||displ|| :   0.2302   Lambda : -0.486D-03
Largest |displ|/coords:  0.1577 (   2)  0.0797 (   6)  0.0775 (   1)
................................................................................
.............................. CYCLE   33 ......................................
................................................................................
   1    -41.1079160 -0.411079E+02  0.262E-01    9.29       0.0  T
   2    -41.1079316 -0.155629E-04  0.199E-01    9.29       1.0  T
   3    -41.1079438 -0.121733E-04  0.248E-02    9.29       1.0  T
   4    -41.1079460 -0.217714E-05  0.628E-03    9.29       3.7  T
   5    -41.1079460 -0.477800E-07  0.282E-03    9.29       8.1  T
   6    -41.1079460 -0.195761E-08  0.141E-03    9.29      16.3  T
speedup  1.08
cpu  time for SCC    0.00 s
wall time for SCC    0.00 s
speedup  1.05
cpu  time for grad    0.01 s
wall time for grad    0.01 s
 E :    -40.90762176  G :  0.015928    pred/act E change: -0.229D-03 -0.702D-04
Maxdispl :   0.1493   ||displ|| :   0.1841   Lambda : -0.315D-03
Largest |displ|/coords:  0.1493 (   2)  0.0511 (   5)  0.0461 (   6)
................................................................................
.............................. CYCLE   34 ......................................
................................................................................
   1    -41.1054323 -0.411054E+02  0.155E-01    9.29       0.0  T
   2    -41.1054363 -0.392212E-05  0.118E-01    9.29       1.0  T
   3    -41.1054404 -0.418150E-05  0.113E-02    9.29       2.0  T
   4    -41.1054408 -0.390771E-06  0.349E-03    9.29       6.6  T
   5    -41.1054408 -0.468587E-08  0.176E-03    9.29      13.0  T
   6    -41.1054408 -0.260699E-08  0.539E-04    9.29      42.5  T
speedup  1.08
cpu  time for SCC    0.00 s
wall time for SCC    0.00 s
speedup  1.03
cpu  time for grad    0.01 s
wall time for grad    0.01 s
 E :    -40.90783491  G :  0.011101    pred/act E change: -0.256D-03 -0.213D-03
Maxdispl :   0.1870   ||displ|| :   0.2135   Lambda : -0.230D-03
Largest |displ|/coords:  0.1870 (   2)  0.0516 (   3)  0.0435 (   5)
................................................................................
.............................. CYCLE   35 ......................................
................................................................................
   1    -41.1052406 -0.411052E+02  0.156E-01    9.30       0.0  T
   2    -41.1052449 -0.431946E-05  0.118E-01    9.30       1.0  T
   3    -41.1052496 -0.466404E-05  0.123E-02    9.31       1.9  T
   4    -41.1052500 -0.394283E-06  0.417E-03    9.30       5.5  T
   5    -41.1052500 -0.139709E-07  0.167E-03    9.30      13.8  T
   6    -41.1052500 -0.168948E-08  0.746E-04    9.30      30.8  T
speedup  1.05
cpu  time for SCC    0.00 s
wall time for SCC    0.00 s
speedup  1.03
cpu  time for grad    0.01 s
wall time for grad    0.01 s
 E :    -40.90793860  G :  0.011175    pred/act E change: -0.163D-03 -0.104D-03
Maxdispl :   0.2292   ||displ|| :   0.2550   Lambda : -0.181D-03
Largest |displ|/coords:  0.2292 (   2)  0.0843 (   1)  0.0343 (  10)
................................................................................
.............................. CYCLE   36 ......................................
................................................................................
   1    -41.1056935 -0.411057E+02  0.134E-01    9.29       0.0  T
   2    -41.1056956 -0.211832E-05  0.102E-01    9.30       1.0  T
   3    -41.1056979 -0.229755E-05  0.882E-03    9.30       2.6  T
   4    -41.1056981 -0.186678E-06  0.267E-03    9.30       8.6  T
   5    -41.1056981 -0.387683E-08  0.128E-03    9.30      18.0  T
speedup  0.97
cpu  time for SCC    0.00 s
wall time for SCC    0.00 s
speedup  1.00
cpu  time for grad    0.01 s
wall time for grad    0.01 s
 E :    -40.90808346  G :  0.007260    pred/act E change: -0.120D-03 -0.145D-03
Maxdispl :   0.4124   ||displ|| :   0.4569   Lambda : -0.242D-03
Largest |displ|/coords:  0.4124 (   2)  0.1428 (   1)  0.0778 (  10)
................................................................................
.............................. CYCLE   37 ......................................
................................................................................
   1    -41.1059543 -0.411060E+02  0.224E-01    9.27       0.0  T
   2    -41.1059594 -0.512872E-05  0.170E-01    9.27       1.0  T
   3    -41.1059662 -0.675277E-05  0.138E-02    9.27       1.7  T
   4    -41.1059664 -0.235717E-06  0.481E-03    9.27       4.8  T
   5    -41.1059664 -0.156182E-07  0.210E-03    9.27      10.9  T
   6    -41.1059664 -0.398447E-08  0.888E-04    9.27      25.8  T
speedup  0.81
cpu  time for SCC    0.00 s
wall time for SCC    0.00 s
speedup  0.93
cpu  time for grad    0.01 s
wall time for grad    0.01 s
 E :    -40.90826042  G :  0.006575    pred/act E change: -0.964D-04 -0.177D-03
Maxdispl :   0.2709   ||displ|| :   0.3203   Lambda : -0.201D-03
Largest |displ|/coords:  0.2709 (   2)  0.0978 (   1)  0.0655 (  10)
................................................................................
.............................. CYCLE   38 ......................................
................................................................................
   1    -41.1100916 -0.411101E+02  0.144E-01    9.28       0.0  T
   2    -41.1100962 -0.462890E-05  0.108E-01    9.28       1.0  T
   3    -41.1101001 -0.388885E-05  0.153E-02    9.29       1.5  T
   4    -41.1101006 -0.546718E-06  0.493E-03    9.29       4.7  T
   5    -41.1101007 -0.288698E-07  0.177E-03    9.29      12.9  T
   6    -41.1101007 -0.206387E-08  0.910E-04    9.29      25.2  T
speedup  1.05
cpu  time for SCC    0.00 s
wall time for SCC    0.00 s
speedup  1.02
cpu  time for grad    0.01 s
wall time for grad    0.01 s
 E :    -40.90829302  G :  0.010537    pred/act E change: -0.147D-03 -0.326D-04
Maxdispl :   0.4700   ||displ|| :   0.5276   Lambda : -0.338D-03
Largest |displ|/coords:  0.4700 (   2)  0.1634 (   1)  0.0885 (  10)
................................................................................
.............................. CYCLE   39 ......................................
................................................................................
   1    -41.1044154 -0.411044E+02  0.291E-01    9.22       0.0  T
   2    -41.1044288 -0.134165E-04  0.220E-01    9.22       1.0  T
   3    -41.1044427 -0.138859E-04  0.234E-02    9.22       1.0  T
   4    -41.1044440 -0.137909E-05  0.636E-03    9.22       3.6  T
   5    -41.1044441 -0.240336E-07  0.363E-03    9.22       6.3  T
   6    -41.1044441 -0.169003E-07  0.128E-03    9.22      18.0  T
   7    -41.1044441 -0.163796E-08  0.300E-04    9.22      76.4  T
speedup  0.95
cpu  time for SCC    0.00 s
wall time for SCC    0.00 s
speedup  0.98
cpu  time for grad    0.01 s
wall time for grad    0.01 s
 E :    -40.90841763  G :  0.012828    pred/act E change: -0.111D-03 -0.125D-03
Maxdispl :   0.1846   ||displ|| :   0.2025   Lambda : -0.159D-03
Largest |displ|/coords:  0.1846 (   2)  0.0565 (   1)  0.0347 (  10)
................................................................................
.............................. CYCLE   40 ......................................
................................................................................
   1    -41.1068924 -0.411069E+02  0.100E-01    9.28       0.0  T
   2    -41.1068947 -0.232977E-05  0.752E-02    9.28       1.0  T
   3    -41.1068966 -0.188829E-05  0.114E-02    9.27       2.0  T
   4    -41.1068969 -0.288257E-06  0.392E-03    9.27       5.8  T
   5    -41.1068969 -0.172474E-07  0.124E-03    9.27      18.6  T
   6    -41.1068969 -0.125971E-08  0.672E-04    9.27      34.1  T
speedup  1.08
cpu  time for SCC    0.00 s
wall time for SCC    0.00 s
speedup  1.03
cpu  time for grad    0.01 s
wall time for grad    0.01 s
 E :    -40.90848908  G :  0.006327    pred/act E change: -0.216D-03 -0.715D-04
Maxdispl :   0.1058   ||displ|| :   0.1404   Lambda : -0.118D-03
Largest |displ|/coords:  0.1058 (   2)  0.0403 (   3)  0.0389 (   1)
................................................................................
.............................. CYCLE   41 ......................................
................................................................................
   1    -41.1080910 -0.411081E+02  0.930E-02    9.29       0.0  T
   2    -41.1080934 -0.239186E-05  0.697E-02    9.28       1.0  T
   3    -41.1080950 -0.155432E-05  0.115E-02    9.28       2.0  T
   4    -41.1080953 -0.333425E-06  0.299E-03    9.28       7.7  T
   5    -41.1080953 -0.126004E-07  0.107E-03    9.28      21.5  T
speedup  0.97
cpu  time for SCC    0.00 s
wall time for SCC    0.00 s
speedup  0.99
cpu  time for grad    0.01 s
wall time for grad    0.01 s
 E :    -40.90851793  G :  0.007264    pred/act E change: -0.827D-04 -0.288D-04
Maxdispl :   0.2646   ||displ|| :   0.3166   Lambda : -0.165D-03
Largest |displ|/coords:  0.2646 (   2)  0.1034 (   1)  0.0592 (  11)
................................................................................
.............................. CYCLE   42 ......................................
................................................................................
   1    -41.1065340 -0.411065E+02  0.171E-01    9.29       0.0  T
   2    -41.1065381 -0.418956E-05  0.129E-01    9.29       1.0  T
   3    -41.1065430 -0.483205E-05  0.134E-02    9.29       1.7  T
   4    -41.1065433 -0.358083E-06  0.433E-03    9.29       5.3  T
   5    -41.1065434 -0.159520E-07  0.199E-03    9.29      11.5  T
   6    -41.1065434 -0.365132E-08  0.935E-04    9.29      24.5  T
speedup  1.11
cpu  time for SCC    0.00 s
wall time for SCC    0.00 s
speedup  1.05
cpu  time for grad    0.01 s
wall time for grad    0.01 s
 E :    -40.90864276  G :  0.005127    pred/act E change: -0.600D-04 -0.125D-03
Maxdispl :   0.3200   ||displ|| :   0.3924   Lambda : -0.115D-03
Largest |displ|/coords:  0.3200 (   2)  0.1348 (   1)  0.0773 (  10)
................................................................................
.............................. CYCLE   43 ......................................
................................................................................
   1    -41.1045914 -0.411046E+02  0.216E-01    9.29       0.0  T
   2    -41.1045980 -0.661288E-05  0.163E-01    9.29       1.0  T
   3    -41.1046057 -0.765455E-05  0.163E-02    9.29       1.4  T
   4    -41.1046063 -0.557047E-06  0.513E-03    9.29       4.5  T
   5    -41.1046063 -0.212381E-07  0.248E-03    9.29       9.3  T
   6    -41.1046063 -0.678735E-08  0.113E-03    9.29      20.3  T
speedup  0.83
cpu  time for SCC    0.00 s
wall time for SCC    0.00 s
speedup  0.93
cpu  time for grad    0.01 s
wall time for grad    0.01 s
 E :    -40.90868718  G :  0.011745    pred/act E change: -0.908D-04 -0.444D-04
Maxdispl :   0.0267   ||displ|| :   0.0385   Lambda : -0.106D-03
Largest |displ|/coords:  0.0267 (   2)  0.0114 (   4)  0.0108 (  12)
................................................................................
.............................. CYCLE   44 ......................................
................................................................................
   1    -41.1066388 -0.411066E+02  0.283E-02    9.32       0.0  T
   2    -41.1066397 -0.870642E-06  0.205E-02    9.32       1.1  T
   3    -41.1066402 -0.523736E-06  0.582E-03    9.32       3.9  T
   4    -41.1066402 -0.662163E-07  0.163E-03    9.32      14.1  T
   5    -41.1066403 -0.279392E-08  0.552E-04    9.32      41.6  T
speedup  0.94
cpu  time for SCC    0.00 s
wall time for SCC    0.00 s
speedup  1.07
cpu  time for grad    0.01 s
wall time for grad    0.01 s
 E :    -40.90875636  G :  0.006397    pred/act E change: -0.665D-04 -0.692D-04
Maxdispl :   0.1927   ||displ|| :   0.2460   Lambda : -0.110D-03
Largest |displ|/coords:  0.1927 (   2)  0.0852 (   1)  0.0523 (  11)
................................................................................
.............................. CYCLE   45 ......................................
................................................................................
   1    -41.1062323 -0.411062E+02  0.153E-01    9.29       0.0  T
   2    -41.1062364 -0.404375E-05  0.116E-01    9.29       1.0  T
   3    -41.1062405 -0.414434E-05  0.141E-02    9.29       1.6  T
   4    -41.1062409 -0.416280E-06  0.353E-03    9.29       6.5  T
   5    -41.1062409 -0.115945E-07  0.171E-03    9.29      13.4  T
   6    -41.1062409 -0.324874E-08  0.806E-04    9.29      28.5  T
speedup  1.08
cpu  time for SCC    0.00 s
wall time for SCC    0.00 s
speedup  1.03
cpu  time for grad    0.01 s
wall time for grad    0.01 s
 E :    -40.90882325  G :  0.004514    pred/act E change: -0.531D-04 -0.669D-04
Maxdispl :   0.2178   ||displ|| :   0.3052   Lambda : -0.116D-03
Largest |displ|/coords:  0.2178 (   2)  0.1042 (   1)  0.0800 (  11)
................................................................................
.............................. CYCLE   46 ......................................
................................................................................
   1    -41.1070483 -0.411070E+02  0.194E-01    9.38       0.0  T
   2    -41.1070549 -0.662456E-05  0.147E-01    9.38       1.0  T
   3    -41.1070622 -0.735660E-05  0.180E-02    9.38       1.3  T
   4    -41.1070629 -0.610401E-06  0.621E-03    9.38       3.7  T
   5    -41.1070629 -0.336815E-07  0.236E-03    9.38       9.7  T
   6    -41.1070629 -0.458300E-08  0.118E-03    9.38      19.5  T
speedup  1.08
cpu  time for SCC    0.00 s
wall time for SCC    0.00 s
speedup  0.93
cpu  time for grad    0.01 s
wall time for grad    0.01 s
 E :    -40.90885485  G :  0.007874    pred/act E change: -0.584D-04 -0.316D-04
Maxdispl :   0.0871   ||displ|| :   0.1082   Lambda : -0.839D-04
Largest |displ|/coords:  0.0871 (   2)  0.0429 (   1)  0.0250 (  11)
................................................................................
.............................. CYCLE   47 ......................................
................................................................................
   1    -41.1055875 -0.411056E+02  0.699E-02    9.30       0.0  T
   2    -41.1055887 -0.125906E-05  0.518E-02    9.30       1.0  T
   3    -41.1055897 -0.101765E-05  0.913E-03    9.30       2.5  T
   4    -41.1055899 -0.135742E-06  0.212E-03    9.30      10.8  T
   5    -41.1055899 -0.601519E-08  0.822E-04    9.30      27.9  T
speedup  1.29
cpu  time for SCC    0.00 s
wall time for SCC    0.00 s
speedup  1.11
cpu  time for grad    0.01 s
wall time for grad    0.01 s
 E :    -40.90888866  G :  0.007081    pred/act E change: -0.632D-04 -0.338D-04
Maxdispl :   0.0864   ||displ|| :   0.1101   Lambda : -0.474D-04
Largest |displ|/coords:  0.0864 (   2)  0.0391 (   1)  0.0233 (  10)
................................................................................
.............................. CYCLE   48 ......................................
................................................................................
   1    -41.1077732 -0.411078E+02  0.624E-02    9.32       0.0  T
   2    -41.1077746 -0.133881E-05  0.468E-02    9.32       1.0  T
   3    -41.1077755 -0.891849E-06  0.826E-03    9.32       2.8  T
   4    -41.1077757 -0.189356E-06  0.269E-03    9.32       8.5  T
   5    -41.1077757 -0.100140E-07  0.852E-04    9.32      26.9  T
speedup  1.29
cpu  time for SCC    0.00 s
wall time for SCC    0.00 s
speedup  1.11
cpu  time for grad    0.01 s
wall time for grad    0.01 s
 E :    -40.90889991  G :  0.004608    pred/act E change: -0.424D-04 -0.113D-04
Maxdispl :   0.1241   ||displ|| :   0.1522   Lambda : -0.387D-04
Largest |displ|/coords:  0.1241 (   2)  0.0487 (   1)  0.0347 (  11)
................................................................................
.............................. CYCLE   49 ......................................
................................................................................
   1    -41.1067926 -0.411068E+02  0.866E-02    9.31       0.0  T
   2    -41.1067938 -0.122785E-05  0.653E-02    9.31       1.0  T
   3    -41.1067952 -0.134366E-05  0.781E-03    9.31       2.9  T
   4    -41.1067953 -0.111820E-06  0.234E-03    9.31       9.8  T
   5    -41.1067953 -0.499352E-08  0.962E-04    9.31      23.8  T
speedup  0.97
cpu  time for SCC    0.00 s
wall time for SCC    0.00 s
speedup  0.99
cpu  time for grad    0.01 s
wall time for grad    0.01 s
 E :    -40.90892659  G :  0.002359    pred/act E change: -0.240D-04 -0.267D-04
Maxdispl :   0.1588   ||displ|| :   0.2010   Lambda : -0.394D-04
Largest |displ|/coords:  0.1588 (   2)  0.0618 (   1)  0.0565 (  11)
................................................................................
.............................. CYCLE   50 ......................................
................................................................................
   1    -41.1059342 -0.411059E+02  0.118E-01    9.32       0.0  T
   2    -41.1059366 -0.237534E-05  0.889E-02    9.32       1.0  T
   3    -41.1059393 -0.268093E-05  0.108E-02    9.32       2.1  T
   4    -41.1059395 -0.213895E-06  0.358E-03    9.32       6.4  T
   5    -41.1059395 -0.121637E-07  0.137E-03    9.32      16.8  T
   6    -41.1059395 -0.151717E-08  0.688E-04    9.32      33.4  T
   7    -41.1059395 -0.823015E-09  0.148E-04    9.32     154.7  T
speedup  1.11
cpu  time for SCC    0.00 s
wall time for SCC    0.00 s
speedup  1.02
cpu  time for grad    0.01 s
wall time for grad    0.01 s
 E :    -40.90894641  G :  0.005618    pred/act E change: -0.198D-04 -0.198D-04
Maxdispl :   0.0447   ||displ|| :   0.0529   Lambda : -0.300D-04
Largest |displ|/coords:  0.0447 (   2)  0.0114 (  11)  0.0107 (   4)
................................................................................
.............................. CYCLE   51 ......................................
................................................................................
   1    -41.1064235 -0.411064E+02  0.270E-02    9.31       0.0  T
   2    -41.1064237 -0.185874E-06  0.198E-02    9.31       1.2  T
   3    -41.1064238 -0.128780E-06  0.372E-03    9.32       6.2  T
   4    -41.1064239 -0.195384E-07  0.117E-03    9.31      19.6  T
   5    -41.1064239 -0.144117E-08  0.306E-04    9.31      75.0  T
speedup  1.00
cpu  time for SCC    0.00 s
wall time for SCC    0.00 s
speedup  1.00
cpu  time for grad    0.01 s
wall time for grad    0.01 s
 E :    -40.90897119  G :  0.004294    pred/act E change: -0.205D-04 -0.248D-04
Maxdispl :   0.1542   ||displ|| :   0.1795   Lambda : -0.702D-04
Largest |displ|/coords:  0.1542 (   2)  0.0507 (  11)  0.0308 (  44)
................................................................................
.............................. CYCLE   52 ......................................
................................................................................
   1    -41.1072648 -0.411073E+02  0.929E-02    9.31       0.0  T
   2    -41.1072660 -0.127798E-05  0.693E-02    9.32       1.0  T
   3    -41.1072675 -0.144968E-05  0.101E-02    9.32       2.3  T
   4    -41.1072676 -0.992165E-07  0.243E-03    9.32       9.4  T
   5    -41.1072676 -0.688610E-08  0.105E-03    9.32      21.8  T
speedup  0.97
cpu  time for SCC    0.00 s
wall time for SCC    0.00 s
speedup  0.99
cpu  time for grad    0.01 s
wall time for grad    0.01 s
 E :    -40.90901582  G :  0.005356    pred/act E change: -0.150D-04 -0.446D-04
Maxdispl :   0.2042   ||displ|| :   0.2389   Lambda : -0.484D-04
Largest |displ|/coords:  0.2042 (   2)  0.0546 (  11)  0.0444 (   1)

generating ANC from model Hessian ...
 Shifting diagonal of input Hessian by   5.054569951682829E-003
 Lowest  eigenvalues of input Hessian
    0.005000   -0.000000   -0.000000   -0.000000    0.000000    0.000000
    0.000000    0.005077    0.005522    0.005583    0.006048    0.006346
    0.007999    0.008570    0.013395    0.015362    0.019454    0.020846
 Highest eigenvalues
    1.391455    1.413068    1.443509    2.578282    3.390065    3.670051
 
cpu  time for ANC gen    0.00 s
wall time for ANC gen    0.01 s
................................................................................
.............................. CYCLE   53 ......................................
................................................................................
   1    -41.1067828 -0.411068E+02  0.118E-01    9.29       0.0  T
   2    -41.1067845 -0.168759E-05  0.888E-02    9.29       1.0  T
   3    -41.1067868 -0.229548E-05  0.953E-03    9.29       2.4  T
   4    -41.1067868 -0.817760E-07  0.246E-03    9.29       9.3  T
   5    -41.1067868 -0.776958E-08  0.126E-03    9.29      18.2  T
   6    -41.1067869 -0.153147E-08  0.664E-04    9.29      34.6  T
   7    -41.1067869 -0.350056E-09  0.964E-05    9.29     238.0  T
speedup  1.14
cpu  time for SCC    0.00 s
wall time for SCC    0.00 s
speedup  1.03
cpu  time for grad    0.01 s
wall time for grad    0.01 s
 E :    -40.90904769  G :  0.005746    pred/act E change:  0.000D+00 -0.319D-04
Maxdispl :   0.0721   ||displ|| :   0.1300   Lambda : -0.171D-03
Largest |displ|/coords:  0.0721 (   5)  0.0636 (   1)  0.0414 (  10)
................................................................................
.............................. CYCLE   54 ......................................
................................................................................
   1    -41.1067616 -0.411068E+02  0.147E-01    9.30       0.0  T
   2    -41.1067641 -0.244487E-05  0.112E-01    9.30       1.0  T
   3    -41.1067675 -0.343464E-05  0.756E-03    9.30       3.0  T
   4    -41.1067676 -0.458025E-07  0.305E-03    9.30       7.5  T
   5    -41.1067676 -0.512564E-08  0.105E-03    9.30      21.9  T
   6    -41.1067676 -0.799915E-09  0.420E-04    9.30      54.6  T
speedup  0.81
cpu  time for SCC    0.00 s
wall time for SCC    0.00 s
speedup  0.92
cpu  time for grad    0.01 s
wall time for grad    0.01 s
 E :    -40.90919103  G :  0.004262    pred/act E change:  0.000D+00 -0.143D-03
Maxdispl :   0.2339   ||displ|| :   0.4016   Lambda : -0.408D-03
Largest |displ|/coords:  0.2339 (   1)  0.1426 (   5)  0.1258 (   4)
................................................................................
.............................. CYCLE   55 ......................................
................................................................................
   1    -41.1024072 -0.411024E+02  0.368E-01    9.32       0.0  T
   2    -41.1024270 -0.197589E-04  0.279E-01    9.32       1.0  T
   3    -41.1024488 -0.218177E-04  0.266E-02    9.31       1.0  T
   4    -41.1024506 -0.174031E-05  0.848E-03    9.31       2.7  T
   5    -41.1024506 -0.382905E-07  0.427E-03    9.31       5.4  T
   6    -41.1024506 -0.159226E-07  0.154E-03    9.31      14.9  T
   7    -41.1024506 -0.482946E-08  0.339E-04    9.31      67.7  T
speedup  0.93
cpu  time for SCC    0.00 s
wall time for SCC    0.00 s
speedup  0.97
cpu  time for grad    0.01 s
wall time for grad    0.01 s
 E :    -40.90921900  G :  0.022070    pred/act E change: -0.870D-04 -0.280D-04
Maxdispl :   0.1026   ||displ|| :   0.1562   Lambda : -0.706D-03
Largest |displ|/coords:  0.1026 (   4)  0.0730 (   5)  0.0551 (   7)
................................................................................
.............................. CYCLE   56 ......................................
................................................................................
   1    -41.1064298 -0.411064E+02  0.304E-01    9.32       0.0  T
   2    -41.1064513 -0.215528E-04  0.232E-01    9.31       1.0  T
   3    -41.1064689 -0.175717E-04  0.273E-02    9.31       1.0  T
   4    -41.1064720 -0.304569E-05  0.446E-03    9.31       5.1  T
   5    -41.1064720 -0.192540E-07  0.258E-03    9.31       8.9  T
speedup  0.97
cpu  time for SCC    0.00 s
wall time for SCC    0.00 s
speedup  0.98
cpu  time for grad    0.01 s
wall time for grad    0.01 s
 E :    -40.90944525  G :  0.007391    pred/act E change: -0.237D-03 -0.226D-03
Maxdispl :   0.0612   ||displ|| :   0.0978   Lambda : -0.128D-03
Largest |displ|/coords:  0.0612 (   1)  0.0347 (   6)  0.0343 (   2)
................................................................................
.............................. CYCLE   57 ......................................
................................................................................
   1    -41.1074026 -0.411074E+02  0.654E-02    9.32       0.0  T
   2    -41.1074034 -0.877915E-06  0.497E-02    9.32       1.0  T
   3    -41.1074043 -0.854369E-06  0.554E-03    9.32       4.1  T
   4    -41.1074044 -0.995063E-07  0.208E-03    9.32      11.0  T
   5    -41.1074044 -0.464507E-08  0.741E-04    9.32      31.0  T
speedup  0.94
cpu  time for SCC    0.00 s
wall time for SCC    0.00 s
speedup  0.98
cpu  time for grad    0.01 s
wall time for grad    0.01 s
 E :    -40.90953268  G :  0.002788    pred/act E change: -0.361D-03 -0.874D-04
Maxdispl :   0.2202   ||displ|| :   0.3261   Lambda : -0.198D-03
Largest |displ|/coords:  0.2202 (   1)  0.1334 (   4)  0.0997 (   6)
................................................................................
.............................. CYCLE   58 ......................................
................................................................................
   1    -41.1060231 -0.411060E+02  0.197E-01    9.32       0.0  T
   2    -41.1060291 -0.603892E-05  0.149E-01    9.32       1.0  T
   3    -41.1060362 -0.702058E-05  0.144E-02    9.32       1.6  T
   4    -41.1060367 -0.548734E-06  0.565E-03    9.32       4.1  T
   5    -41.1060367 -0.261699E-07  0.234E-03    9.32       9.8  T
   6    -41.1060367 -0.589642E-08  0.102E-03    9.32      22.5  T
   7    -41.1060368 -0.219575E-08  0.193E-04    9.32     118.8  T
   8    -41.1060368 -0.415810E-10  0.495E-05    9.32     463.3  T
speedup  1.00
cpu  time for SCC    0.00 s
wall time for SCC    0.01 s
speedup  1.07
cpu  time for grad    0.01 s
wall time for grad    0.01 s
 E :    -40.90961554  G :  0.013277    pred/act E change: -0.649D-04 -0.829D-04
Maxdispl :   0.1069   ||displ|| :   0.1456   Lambda : -0.219D-03
Largest |displ|/coords:  0.1069 (   1)  0.0717 (   5)  0.0407 (   9)
................................................................................
.............................. CYCLE   59 ......................................
................................................................................
   1    -41.1079559 -0.411080E+02  0.167E-01    9.32       0.0  T
   2    -41.1079595 -0.360436E-05  0.128E-01    9.32       1.0  T
   3    -41.1079642 -0.467649E-05  0.710E-03    9.32       3.2  T
   4    -41.1079643 -0.120055E-06  0.280E-03    9.32       8.2  T
   5    -41.1079643 -0.423107E-08  0.109E-03    9.32      21.0  T
speedup  1.29
cpu  time for SCC    0.00 s
wall time for SCC    0.00 s
speedup  1.11
cpu  time for grad    0.01 s
wall time for grad    0.01 s
 E :    -40.90973484  G :  0.008878    pred/act E change: -0.109D-03 -0.119D-03
Maxdispl :   0.1726   ||displ|| :   0.2307   Lambda : -0.167D-03
Largest |displ|/coords:  0.1726 (   1)  0.1033 (   4)  0.0854 (   5)
................................................................................
.............................. CYCLE   60 ......................................
................................................................................
   1    -41.1073263 -0.411073E+02  0.137E-01    9.32       0.0  T
   2    -41.1073284 -0.209700E-05  0.104E-01    9.32       1.0  T
   3    -41.1073311 -0.269668E-05  0.818E-03    9.32       2.8  T
   4    -41.1073312 -0.109104E-06  0.353E-03    9.32       6.5  T
   5    -41.1073312 -0.762319E-08  0.115E-03    9.32      20.0  T
   6    -41.1073312 -0.118855E-08  0.500E-04    9.32      45.9  T
speedup  1.08
cpu  time for SCC    0.00 s
wall time for SCC    0.00 s
speedup  1.03
cpu  time for grad    0.01 s
wall time for grad    0.01 s
 E :    -40.90982703  G :  0.007505    pred/act E change: -0.112D-03 -0.922D-04
Maxdispl :   0.2377   ||displ|| :   0.2845   Lambda : -0.185D-03
Largest |displ|/coords:  0.2377 (   1)  0.0967 (   4)  0.0572 (   2)
................................................................................
.............................. CYCLE   61 ......................................
................................................................................
   1    -41.1077048 -0.411077E+02  0.124E-01    9.32       0.0  T
   2    -41.1077068 -0.204319E-05  0.944E-02    9.32       1.0  T
   3    -41.1077097 -0.288654E-05  0.853E-03    9.32       2.7  T
   4    -41.1077098 -0.870520E-07  0.363E-03    9.32       6.3  T
   5    -41.1077098 -0.105291E-07  0.122E-03    9.32      18.8  T
   6    -41.1077098 -0.148132E-08  0.666E-04    9.32      34.4  T
speedup  1.05
cpu  time for SCC    0.00 s
wall time for SCC    0.00 s
speedup  1.00
cpu  time for grad    0.01 s
wall time for grad    0.01 s
 E :    -40.90997389  G :  0.006861    pred/act E change: -0.881D-04 -0.147D-03
Maxdispl :   0.3953   ||displ|| :   0.4671   Lambda : -0.293D-03
Largest |displ|/coords:  0.3953 (   1)  0.1439 (   2)  0.1052 (   4)
................................................................................
.............................. CYCLE   62 ......................................
................................................................................
   1    -41.1084064 -0.411084E+02  0.184E-01    9.32       0.0  T
   2    -41.1084097 -0.329040E-05  0.139E-01    9.32       1.0  T
   3    -41.1084138 -0.407419E-05  0.123E-02    9.33       1.9  T
   4    -41.1084140 -0.205542E-06  0.473E-03    9.33       4.9  T
   5    -41.1084140 -0.181661E-07  0.171E-03    9.33      13.4  T
   6    -41.1084140 -0.278914E-08  0.987E-04    9.33      23.2  T
speedup  0.83
cpu  time for SCC    0.00 s
wall time for SCC    0.00 s
speedup  0.92
cpu  time for grad    0.01 s
wall time for grad    0.01 s
 E :    -40.91016596  G :  0.008981    pred/act E change: -0.100D-03 -0.192D-03
Maxdispl :   0.3370   ||displ|| :   0.4170   Lambda : -0.345D-03
Largest |displ|/coords:  0.3370 (   1)  0.1540 (   2)  0.0970 (   3)
................................................................................
.............................. CYCLE   63 ......................................
................................................................................
   1    -41.1112831 -0.411113E+02  0.193E-01    9.32       0.0  T
   2    -41.1112911 -0.794048E-05  0.146E-01    9.32       1.0  T
   3    -41.1112997 -0.859429E-05  0.189E-02    9.33       1.2  T
   4    -41.1113005 -0.788142E-06  0.629E-03    9.32       3.6  T
   5    -41.1113005 -0.331423E-07  0.271E-03    9.32       8.5  T
   6    -41.1113005 -0.664721E-08  0.130E-03    9.32      17.7  T
speedup  1.08
cpu  time for SCC    0.00 s
wall time for SCC    0.00 s
speedup  1.02
cpu  time for grad    0.01 s
wall time for grad    0.01 s
 E :    -40.91030115  G :  0.013659    pred/act E change: -0.178D-03 -0.135D-03
Maxdispl :   0.5035   ||displ|| :   0.5938   Lambda : -0.519D-03
Largest |displ|/coords:  0.5035 (   1)  0.1756 (   5)  0.1333 (   2)
................................................................................
.............................. CYCLE   64 ......................................
................................................................................
   1    -41.1018930 -0.411019E+02  0.392E-01    9.31       0.0  T
   2    -41.1019552 -0.622754E-04  0.295E-01    9.31       1.0  T
   3    -41.1019970 -0.417950E-04  0.525E-02    9.32       1.0  T
   4    -41.1020062 -0.913909E-05  0.111E-02    9.32       2.1  T
   5    -41.1020063 -0.806562E-07  0.535E-03    9.32       4.3  T
   6    -41.1020063 -0.247627E-07  0.238E-03    9.32       9.6  T
   7    -41.1020063 -0.705532E-08  0.439E-04    9.32      52.2  T
speedup  0.91
cpu  time for SCC    0.00 s
wall time for SCC    0.00 s
speedup  0.95
cpu  time for grad    0.01 s
wall time for grad    0.01 s
 E :    -40.90948774  G :  0.045044    pred/act E change: -0.202D-03  0.813D-03
Maxdispl :   0.1680   ||displ|| :   0.2069   Lambda : -0.295D-02
Largest |displ|/coords:  0.1680 (   3)  0.0630 (   1)  0.0560 (   4)
................................................................................
.............................. CYCLE   65 ......................................
................................................................................
   1    -41.1075034 -0.411075E+02  0.228E-01    9.31       0.0  T
   2    -41.1075456 -0.422119E-04  0.169E-01    9.31       1.0  T
   3    -41.1075762 -0.305336E-04  0.418E-02    9.31       1.0  T
   4    -41.1075806 -0.442514E-05  0.914E-03    9.31       2.5  T
   5    -41.1075806 -0.636912E-07  0.475E-03    9.31       4.8  T
   6    -41.1075807 -0.136228E-07  0.123E-03    9.31      18.6  T
speedup  1.08
cpu  time for SCC    0.00 s
wall time for SCC    0.00 s
speedup  1.02
cpu  time for grad    0.01 s
wall time for grad    0.01 s
 E :    -40.91051356  G :  0.020972    pred/act E change: -0.351D-03 -0.103D-02
Maxdispl :   0.1462   ||displ|| :   0.2109   Lambda : -0.896D-03
Largest |displ|/coords:  0.1462 (   3)  0.0750 (   2)  0.0723 (   5)
................................................................................
.............................. CYCLE   66 ......................................
................................................................................
   1    -41.1131560 -0.411132E+02  0.239E-01    9.31       0.0  T
   2    -41.1131720 -0.159632E-04  0.180E-01    9.31       1.0  T
   3    -41.1131847 -0.127440E-04  0.264E-02    9.31       1.0  T
   4    -41.1131867 -0.201697E-05  0.765E-03    9.31       3.0  T
   5    -41.1131868 -0.527704E-07  0.365E-03    9.31       6.3  T
   6    -41.1131868 -0.952286E-08  0.156E-03    9.31      14.7  T
speedup  1.08
cpu  time for SCC    0.00 s
wall time for SCC    0.00 s
speedup  1.02
cpu  time for grad    0.01 s
wall time for grad    0.01 s
 E :    -40.91048308  G :  0.021161    pred/act E change: -0.154D-02  0.305D-04
Maxdispl :   0.1156   ||displ|| :   0.1694   Lambda : -0.607D-03
Largest |displ|/coords:  0.1156 (   1)  0.0755 (   5)  0.0457 (   2)
................................................................................
[...]
speedup  0.97
cpu  time for SCC    0.00 s
wall time for SCC    0.00 s
speedup  1.02
cpu  time for grad    0.01 s
wall time for grad    0.01 s
 E :    -40.92007170  G :  0.000472    pred/act E change: -0.111D-05 -0.103D-05
Maxdispl :   0.0052   ||displ|| :   0.0110   Lambda : -0.736D-06
Largest |displ|/coords:  0.0052 (   3)  0.0047 (   8)  0.0046 (  16)
................................................................................
.............................. CYCLE  106 ......................................
................................................................................
   1    -41.1175674 -0.411176E+02  0.109E-02    9.36       0.0  T
   2    -41.1175675 -0.142587E-07  0.821E-03    9.36       2.8  T
   3    -41.1175675 -0.145582E-07  0.100E-03    9.36      22.9  T
   4    -41.1175675 -0.128239E-08  0.345E-04    9.36      66.5  T
speedup  0.83
cpu  time for SCC    0.00 s
wall time for SCC    0.00 s
speedup  0.99
cpu  time for grad    0.01 s
wall time for grad    0.01 s
 E :    -40.92007217  G :  0.000319    pred/act E change: -0.764D-06 -0.473D-06
Maxdispl :   0.0077   ||displ|| :   0.0137   Lambda : -0.431D-06
Largest |displ|/coords:  0.0077 (   1)  0.0062 (   2)  0.0044 (   3)
................................................................................
.............................. CYCLE  107 ......................................
................................................................................
   1    -41.1175704 -0.411176E+02  0.876E-03    9.36       0.0  T
   2    -41.1175704 -0.117009E-07  0.652E-03    9.36       3.5  T
   3    -41.1175704 -0.129654E-07  0.101E-03    9.36      22.7  T
   4    -41.1175704 -0.113497E-08  0.360E-04    9.36      63.7  T
   5    -41.1175704 -0.145995E-09  0.108E-04    9.36     212.7  T
speedup  0.97
cpu  time for SCC    0.00 s
wall time for SCC    0.00 s
speedup  1.02
cpu  time for grad    0.01 s
wall time for grad    0.01 s
 E :    -40.92007242  G :  0.000323    pred/act E change: -0.368D-06 -0.254D-06
Maxdispl :   0.0024   ||displ|| :   0.0056   Lambda : -0.267D-06
Largest |displ|/coords:  0.0024 (   9)  0.0023 (   2)  0.0023 (   1)
................................................................................
.............................. CYCLE  108 ......................................
................................................................................
   1    -41.1175290 -0.411175E+02  0.499E-03    9.36       0.0  T
   2    -41.1175290 -0.380540E-08  0.378E-03    9.36       6.1  T
   3    -41.1175290 -0.341961E-08  0.421E-04    9.36      54.4  T
   4    -41.1175290 -0.460048E-09  0.207E-04    9.36     110.9  T
speedup  1.15
cpu  time for SCC    0.00 s
wall time for SCC    0.00 s
speedup  0.96
cpu  time for grad    0.01 s
wall time for grad    0.01 s
 E :    -40.92007261  G :  0.000223    pred/act E change: -0.216D-06 -0.192D-06
Maxdispl :   0.0025   ||displ|| :   0.0058   Lambda : -0.276D-06
Largest |displ|/coords:  0.0025 (  15)  0.0023 (  10)  0.0021 (   1)
................................................................................
.............................. CYCLE  109 ......................................
................................................................................
   1    -41.1175041 -0.411175E+02  0.463E-03    9.36       0.0  T
   2    -41.1175042 -0.589873E-08  0.347E-03    9.36       6.6  T
   3    -41.1175042 -0.244329E-08  0.670E-04    9.36      34.3  T
   4    -41.1175042 -0.967930E-09  0.238E-04    9.36      96.3  T
speedup  0.77
cpu  time for SCC    0.00 s
wall time for SCC    0.00 s
speedup  0.98
cpu  time for grad    0.01 s
wall time for grad    0.01 s
 E :    -40.92007282  G :  0.000246    pred/act E change: -0.134D-06 -0.204D-06
Maxdispl :   0.0034   ||displ|| :   0.0074   Lambda : -0.261D-06
Largest |displ|/coords:  0.0034 (   1)  0.0029 (  15)  0.0028 (  25)
................................................................................
.............................. CYCLE  110 ......................................
................................................................................
   1    -41.1174990 -0.411175E+02  0.629E-03    9.36       0.0  T
   2    -41.1174990 -0.961710E-08  0.469E-03    9.36       4.9  T
   3    -41.1174990 -0.345149E-08  0.954E-04    9.36      24.1  T
   4    -41.1174990 -0.159015E-08  0.291E-04    9.36      78.9  T
speedup  1.11
cpu  time for SCC    0.00 s
wall time for SCC    0.00 s
speedup  1.08
cpu  time for grad    0.01 s
wall time for grad    0.01 s
 E :    -40.92007301  G :  0.000279    pred/act E change: -0.138D-06 -0.193D-06
Maxdispl :   0.0039   ||displ|| :   0.0080   Lambda : -0.253D-06
Largest |displ|/coords:  0.0039 (   1)  0.0035 (  25)  0.0028 (  15)
................................................................................
.............................. CYCLE  111 ......................................
................................................................................
   1    -41.1175041 -0.411175E+02  0.724E-03    9.36       0.0  T
   2    -41.1175041 -0.128030E-07  0.538E-03    9.36       4.3  T
   3    -41.1175041 -0.453185E-08  0.112E-03    9.36      20.4  T
   4    -41.1175041 -0.205756E-08  0.350E-04    9.36      65.5  T
   5    -41.1175041 -0.608864E-10  0.459E-05    9.36     499.3  T
speedup  0.91
cpu  time for SCC    0.00 s
wall time for SCC    0.00 s
speedup  1.01
cpu  time for grad    0.01 s
wall time for grad    0.01 s
 E :    -40.92007321  G :  0.000294    pred/act E change: -0.131D-06 -0.197D-06
Maxdispl :   0.0059   ||displ|| :   0.0115   Lambda : -0.351D-06
Largest |displ|/coords:  0.0059 (   1)  0.0054 (  25)  0.0038 (  15)
................................................................................
.............................. CYCLE  112 ......................................
................................................................................
   1    -41.1175178 -0.411175E+02  0.110E-02    9.36       0.0  T
   2    -41.1175178 -0.291173E-07  0.815E-03    9.36       2.8  T
   3    -41.1175178 -0.111488E-07  0.163E-03    9.36      14.1  T
   4    -41.1175178 -0.467013E-08  0.544E-04    9.36      42.2  T
   5    -41.1175178 -0.167283E-09  0.718E-05    9.36     319.5  T
speedup  0.94
cpu  time for SCC    0.00 s
wall time for SCC    0.00 s
speedup  1.01
cpu  time for grad    0.01 s
wall time for grad    0.01 s
 E :    -40.92007345  G :  0.000292    pred/act E change: -0.127D-06 -0.247D-06
Maxdispl :   0.0042   ||displ|| :   0.0079   Lambda : -0.286D-06
Largest |displ|/coords:  0.0042 (   1)  0.0039 (  25)  0.0024 (  15)

generating ANC from model Hessian ...
 Shifting diagonal of input Hessian by   4.618227498331764E-003
 Lowest  eigenvalues of input Hessian
   -0.000000   -0.000000   -0.000000   -0.000000    0.000000    0.000000
    0.005000    0.005665    0.006589    0.007264    0.008232    0.008965
    0.012678    0.014733    0.015437    0.018181    0.019732    0.023848
 Highest eigenvalues
    1.402833    1.403624    1.416591    2.595002    3.391252    3.699921
 
cpu  time for ANC gen    0.01 s
wall time for ANC gen    0.01 s
................................................................................
.............................. CYCLE  113 ......................................
................................................................................
   1    -41.1175328 -0.411175E+02  0.777E-03    9.36       0.0  T
   2    -41.1175328 -0.206974E-07  0.579E-03    9.36       4.0  T
   3    -41.1175328 -0.835931E-08  0.122E-03    9.36      18.9  T
   4    -41.1175328 -0.308987E-08  0.409E-04    9.36      56.1  T
   5    -41.1175328 -0.170239E-09  0.684E-05    9.36     335.6  T
speedup  1.25
cpu  time for SCC    0.00 s
wall time for SCC    0.00 s
speedup  1.02
cpu  time for grad    0.01 s
wall time for grad    0.01 s
 E :    -40.92007367  G :  0.000269    pred/act E change:  0.000D+00 -0.214D-06
Maxdispl :   0.0013   ||displ|| :   0.0023   Lambda : -0.148D-06
Largest |displ|/coords:  0.0013 (   9)  0.0011 (   2)  0.0009 (   7)
................................................................................
.............................. CYCLE  114 ......................................
................................................................................
   1    -41.1175193 -0.411175E+02  0.200E-03    9.36       0.0  T
   2    -41.1175193 -0.727695E-09  0.151E-03    9.36      15.2  T
   3    -41.1175193 -0.569187E-09  0.200E-04    9.36     114.9  T
   4    -41.1175193 -0.103263E-09  0.678E-05    9.36     338.6  T
speedup  1.20
cpu  time for SCC    0.00 s
wall time for SCC    0.00 s
speedup  1.10
cpu  time for grad    0.01 s
wall time for grad    0.01 s
 E :    -40.92007379  G :  0.000154    pred/act E change:  0.000D+00 -0.117D-06
Maxdispl :   0.0037   ||displ|| :   0.0060   Lambda : -0.215D-06
Largest |displ|/coords:  0.0037 (   2)  0.0026 (   4)  0.0022 (   9)
................................................................................
.............................. CYCLE  115 ......................................
................................................................................
   1    -41.1175059 -0.411175E+02  0.514E-03    9.36       0.0  T
   2    -41.1175059 -0.433472E-08  0.386E-03    9.36       5.9  T
   3    -41.1175059 -0.290218E-08  0.502E-04    9.36      45.7  T
   4    -41.1175059 -0.675357E-09  0.166E-04    9.36     138.0  T
speedup  0.77
cpu  time for SCC    0.00 s
wall time for SCC    0.00 s
speedup  0.98
cpu  time for grad    0.01 s
wall time for grad    0.01 s
 E :    -40.92007391  G :  0.000161    pred/act E change: -0.741D-07 -0.129D-06
Maxdispl :   0.0029   ||displ|| :   0.0043   Lambda : -0.874D-07
Largest |displ|/coords:  0.0029 (   2)  0.0013 (   9)  0.0013 (   5)
................................................................................
.............................. CYCLE  116 ......................................
................................................................................
   1    -41.1175101 -0.411175E+02  0.348E-03    9.36       0.0  T
   2    -41.1175101 -0.164257E-08  0.261E-03    9.36       8.8  T
   3    -41.1175102 -0.145373E-08  0.303E-04    9.36      75.7  T
   4    -41.1175102 -0.198114E-09  0.966E-05    9.36     237.6  T
speedup  1.15
cpu  time for SCC    0.00 s
wall time for SCC    0.00 s
speedup  0.98
cpu  time for grad    0.01 s
wall time for grad    0.01 s
 E :    -40.92007395  G :  0.000154    pred/act E change: -0.107D-06 -0.369D-07
Maxdispl :   0.0021   ||displ|| :   0.0035   Lambda : -0.688D-07
Largest |displ|/coords:  0.0021 (   2)  0.0015 (   4)  0.0014 (   1)

   *** GEOMETRY OPTIMIZATION CONVERGED AFTER 116 ITERATIONS ***

------------------------------------------------------------------------
 total energy gain (kcal):     -0.0002
------------------------------------------------------------------------
================
 final structure:
================
$coord
       -1.66024654922130       -0.89472705851074       -1.84358492101691      S 
       -1.99856069728838       -1.31828693255236        0.89395614917234      O 
       -3.28696092808139        1.10528229327804       -2.74806717135409      O 
        0.97134646278082       -0.61264097049177       -2.46974444268152      O 
       -2.59725676226758       -3.42745991027552       -3.14146476839903      O 
       -4.37791967925123       -3.20281516012075       -3.27869880992558      H 
        2.01675183487533       -4.34768860163518        1.67044771881851      O 
        2.24342197891883       -5.23271778245005        0.10467173047485      H 
        0.38629539216256       -3.49848029046187        1.53604171768214      H 
       -1.11063711643385        4.98355124544894       -0.63007673303097      O 
       -1.91608815956597        3.63057158945033       -1.63825620793551      H 
       -2.36871601974049        6.26978652383834       -0.40109437828210      H 
        4.23693406198228        0.13439047233968        1.19308960073155      O 
        3.51095541893996        0.09679126924251       -0.51693435657203      H 
        3.96711429269768       -1.61338468898677        1.77746998674375      H 
        0.43653569971999        2.18465571313802        2.96997399499332      O 
        2.29839170669322        1.45025785384026        2.37685994279056      H 
       -0.02821656238010        3.57070277606681        1.71492794285647      H 
       -0.72314437635198        0.72221167893141        2.43048296669366      H 
$end
 
 Bond Distances (Angstroems)
 ---------------------------
S1-O2=1.4768         S1-O3=1.4458         S1-O4=1.4392         S1-O5=1.5855         O2-S1=1.4768         O3-S1=1.4458         
O4-S1=1.4392         O5-S1=1.5855         O5-H6=0.9525         H6-O5=0.9525         O7-H8=0.9593         O7-H9=0.9754         
H8-O7=0.9593         H9-O7=0.9754         O10-H11=0.9894       O10-H12=0.9598       H11-O10=0.9894       H12-O10=0.9598       
O13-H14=0.9833       O13-H15=0.9856       H14-O13=0.9833       H15-O13=0.9856       O16-H17=1.1047       O16-H18=1.0196       
O16-H19=1.0281       H17-O16=1.1047       H18-O16=1.0196       H19-O16=1.0281       
 O  H  Rav=0.9958 sigma=0.0432  Rmin=0.9525  Rmax=1.1047    10
 S  O  Rav=1.4868 sigma=0.0587  Rmin=1.4392  Rmax=1.5855     4
 
 selected bond angles (degree)
 --------------------
O3-S1-O2=111.33                O4-S1-O2=111.03                O4-S1-O3=115.09                O5-S1-O2=104.99                
O5-S1-O3=106.81                O5-S1-O4=106.89                H6-O5-S1=103.70                H9-O7-H8=105.82                
H12-O10-H11=106.41             
 
 selected dihedral angles (degree)
 ---------------------------------
H6-O5-S1-O2= 84.65            H6-O5-S1-O3=326.34            H6-O5-S1-O4=202.66            
 
 CMA Distance (Angstroems)
 ---------------------------
R(CMA):  2.4883

========================================================================
 FINAL SINGLEPOINT CALCULATION ON OPTIMIZED GEOMETRY
========================================================================

 Ncao       : 52
 Nao        : 51
 Nshell     : 29
 Nel        : 64
 T(el)      :   300.0
 intcut     :    25.0
 scfconv/Eh :  0.100E-05
   qconv/e  :  0.100E-03
 intneglect :  0.100E-07
 broydamp   :      0.250
 iter      E             dE          RMSdq      gap      omega  full diag
   1    -41.1175102 -0.411175E+02  0.402E-05    9.36       0.0  T
   2    -41.1175102 -0.973444E-12  0.248E-05    9.36     924.3  T
   3    -41.1175102 -0.483169E-12  0.473E-06    9.36    4855.2  T
speedup  1.11
cpu  time for SCC    0.00 s
wall time for SCC    0.00 s

   *** convergence criteria satisfied after 3 iterations ***

          eigenvalues
 #    :          20         21         22         23         24         25         26         27
 occ. :        2.000      2.000      2.000      2.000      2.000      2.000      2.000      2.000
 eps  :       -14.482    -14.391    -13.930    -13.772    -12.894    -12.833    -12.805    -12.729
 #    :          28         29         30         31         32         33         34         35
 occ. :        2.000      2.000      2.000      2.000      2.000      0.000      0.000      0.000
 eps  :       -12.624    -12.391    -12.318    -12.198    -12.106     -2.748     -0.826     -0.387
 #    :          36         37         38         39         40         41         42         43
 occ. :        0.000      0.000      0.000      0.000      0.000      0.000      0.000      0.000
 eps  :         0.578      0.786      1.679      2.961      3.907      4.434      5.983      6.684


   #   Z            q   n(s)   n(p)   n(d)      C6AA      α(0)
   1  16 S      1.679  1.583  1.784  0.954    89.246    15.900
   2   8 O     -0.761  1.779  4.981  0.000    30.402     7.393
   3   8 O     -0.735  1.774  4.961  0.000    29.672     7.303
   4   8 O     -0.716  1.759  4.957  0.000    29.139     7.237
   5   8 O     -0.587  1.748  4.839  0.000    24.847     6.729
   6   1 H      0.349  0.651  0.000  0.000     0.583     1.196
   7   8 O     -0.604  1.740  4.864  0.000    25.285     6.787
   8   1 H      0.291  0.709  0.000  0.000     0.750     1.360
   9   1 H      0.314  0.686  0.000  0.000     0.681     1.296
  10   8 O     -0.608  1.741  4.867  0.000    25.378     6.799
  11   1 H      0.333  0.667  0.000  0.000     0.630     1.247
  12   1 H      0.302  0.698  0.000  0.000     0.713     1.327
  13   8 O     -0.579  1.754  4.826  0.000    24.643     6.703
  14   1 H      0.344  0.656  0.000  0.000     0.603     1.220
  15   1 H      0.345  0.655  0.000  0.000     0.601     1.218
  16   8 O     -0.512  1.731  4.781  0.000    23.094     6.490
  17   1 H      0.392  0.608  0.000  0.000     0.494     1.101
  18   1 H      0.377  0.623  0.000  0.000     0.530     1.144
  19   1 H      0.376  0.624  0.000  0.000     0.530     1.144

 Mol. C6AA /au·bohr⁶  :       3380.443578
 Mol. C8AA /au·bohr⁸  :      76555.115120
 Mol. α(0) /au        :         83.593850

 
 Wiberg/Mayer (AO) data. WBOs > 0.1 written file <wbo>
 largest (>0.05) Wiberg bond orders for each atom
           total WBO             WBO to atom ...
     1  S   4.859    O    4 1.380    O    3 1.330    O    2 1.213    O    5 0.900
     2  O   1.738    S    1 1.213    H   19 0.127    O    4 0.111    O    3 0.105    O    5 0.067
     3  O   1.736    S    1 1.330    O    4 0.113    O    2 0.105    O    5 0.077    H   11 0.074
     4  O   1.743    S    1 1.380    O    3 0.113    O    2 0.111    O    5 0.065
     5  O   1.977    S    1 0.900    H    6 0.862    O    3 0.077    O    2 0.067    O    4 0.065
     6  H   0.878    O    5 0.862
     7  O   1.870    H    8 0.913    H    9 0.850    H   15 0.055
     8  H   0.916    O    7 0.913
     9  H   0.901    O    7 0.850
    10  O   1.918    H   12 0.903    H   11 0.809    H   18 0.121
    11  H   0.889    O   10 0.809    O    3 0.074
    12  H   0.908    O   10 0.903
    13  O   2.044    H   14 0.830    H   15 0.824    H   17 0.254    O   16 0.080
    14  H   0.882    O   13 0.830
    15  H   0.881    O   13 0.824    O    7 0.055
    16  O   2.230    H   18 0.733    H   19 0.723    H   17 0.589    O   13 0.080
    17  H   0.846    O   16 0.589    O   13 0.254
    18  H   0.858    O   16 0.733    O   10 0.121
    19  H   0.858    O   16 0.723    O    2 0.127
 MOs/occ written to file <molden.input>
 
molecular dipole:
                 x           y           z       tot (Debye)
 q only:       -0.160       0.571       0.646
   full:       -1.003       0.167      -0.087       2.594
molecular quadrupole (traceless):
                xx          xy          yy          xz          yz          zz
 q only:        0.531      -0.851       5.050       0.902       5.647      -5.580
  q+dip:        1.262      -1.716       6.093       0.607       6.338      -7.355
   full:        1.222      -1.712       6.330       0.972       6.727      -7.552

SCC energy    :     -41.1175102
rep           :       0.1973572
ES            :       0.1983857
AES           :      -0.0539884
AXC           :      -0.0101252
disp          :      -0.0141706
XB            :       0.0000000
fix           :       0.0000000
total E       :     -40.9200739
atomizationE  :       3.7142612     2330.73
(atE without considering molecular charge,
 total energy contains solvation terms)
H-L gap (eV)  :          9.3581
optimized geometry written to: xtbopt.xyz


------------------------------------------------------------------------
 * finished run on 2019/09/03 at 07:17:27.096     
------------------------------------------------------------------------
 total:
 * wall-time:     0 d,  0 h,  0 min,  2.227 sec
 *  cpu-time:     0 d,  0 h,  0 min,  1.771 sec
 * ratio c/w:     0.795 speedup
 SCF:
 * wall-time:     0 d,  0 h,  0 min,  0.096 sec
 *  cpu-time:     0 d,  0 h,  0 min,  0.093 sec
 * ratio c/w:     0.970 speedup
 ANC optimizer:
 * wall-time:     0 d,  0 h,  0 min,  2.107 sec
 *  cpu-time:     0 d,  0 h,  0 min,  1.655 sec
 * ratio c/w:     0.785 speedup

