      -----------------------------------------------------------      
     |                   =====================                   |     
     |                           x T B                           |     
     |                   =====================                   |     
     |                         S. Grimme                         |     
     |          Mulliken Center for Theoretical Chemistry        |     
     |                    University of Bonn                     |     
     |                 Version 6.0.1 (SAW181210)                 |     
      -----------------------------------------------------------      

   This program is distributed in the hope that it will be useful,
   but WITHOUT ANY WARRANTY; without even the implied warranty of
   MERCHANTABILITY or FITNESS FOR A PARTICULAR PURPOSE.
   
   FOR NON-COMMERCIAL, ACADEMIA USE ONLY.
   
   Cite this work as:
   S. Grimme, C. Bannwarth, P. Shushkov, J. Comput. Theory Chem., 2017,
   13, 1989-2009.
   C. Bannwarth, S. Ehlert and S. Grimme., ChemRxiv, 2018, preprint.
   http://doi.org/10.26434/chemrxiv.7246238.v1
   
   for sTDA-xTB:
   S. Grimme and C. Bannwarth, J. Chem. Phys., 2016, 145, 054103.
   
   in the mass-spec context:
   V. Asgeirsson, C. Bauer and S. Grimme, Chem. Sci., 2017, 8, 4879.
   
   if GBSA is used:
   P. Shushkov, F. März and S. Grimme, unpublished.
   
   for ANC optimizer:
   S. Grimme, unpublished.
   Rational Function algorithm used in ANCopt:
   F. Eckert, P. Pulay, H.-J. Werner, J. Comput. Chem., 1997, 18, 1473.
   
   with help from (in alphabetical order)
   C. Bannwarth, F. Bohle, G. Brandenburg, E. Caldeweyher, M. Checinski,
   S. Dohm, S. Ehlert, S. Ehrlich, F. März, H. Neugebauer, J. Pisarek,
   P. Pracht, P. Shushkov, and S. Spicher.
   
 * started run on 2019/09/03 at 07:57:36.344     
========================================================================
 # omp threads = 1
========================================================================
number of atoms            : 19
number of electrons        : 64
charge                     : 0
spin                       : .0
first test random number   : .9759

########################################################################
# WARNING! Please study the warnings concerning your input carefully
#  - XTBPATH is not set, using XTBHOME instead
#  - the use of '-opt' is discouraged, please use '--opt' next time
#  - the use of '-chrg' is discouraged, please use '--chrg' next time
#  - the use of '-uhf' is discouraged, please use '--uhf' next time
########################################################################

           ------------------------------------------------- 
          |                 G F N 2 - x T B                 |
          | Geometry, Frequencies, Noncovalent interactions |
          |            JCTC 2018 parametrisation            |
           ------------------------------------------------- 
      method parameters     
 k(s)        :  1.8500
 k(p)        :  2.2300
 k(d)        :  2.2300
 k(f)        :  2.0000
 kEN (H0ij)  : -2.0000
 D4 a1       :  0.5200
 D4 a2       :  5.0000
 D4 s6       :  1.0000
 D4 s8       :  2.7000
 D4 s9       :  5.0000
 alphaj      :  2.0000


            Z     q(EN)     CN     RAES       Cart. coordinates
     1  S   6.0    0.65    4.28    4.20     2.31370     2.26645     0.10878
     2  O   6.0   -0.32    1.22    1.80    -0.23481     2.67685    -1.01584
     3  O   6.0   -0.31    1.20    1.80     2.07882     0.64644     2.39975
     4  O   6.0   -0.30    1.24    1.80     3.97658     0.99423    -1.77389
     5  O   6.0   -0.24    2.08    1.84     3.41889     4.71429     0.81528
     6  H   1.0    0.15    1.21    1.47     2.34808     5.53468     2.02831
     7  O   6.0   -0.30    2.04    1.83    -2.08271    -2.10728     3.13790
     8  H   1.0    0.15    0.97    1.43    -2.17633    -2.75410     4.83715
     9  H   1.0    0.18    1.05    1.44    -0.50561    -1.20158     3.05371
    10  O   6.0   -0.28    2.07    1.83    -2.04329    -2.08844    -2.01107
    11  H   1.0    0.17    1.01    1.43    -2.04894    -0.26858    -2.06294
    12  H   1.0    0.16    1.01    1.43    -2.54280    -2.52330    -0.31519
    13  O   6.0   -0.25    1.94    1.82    -4.47339     2.38749     1.88320
    14  H   1.0    0.16    1.01    1.43    -3.98849     0.74809     2.50917
    15  H   1.0    0.17    1.03    1.43    -3.19760     2.83377     0.66344
    16  O   6.0   -0.21    2.88    2.50     2.31671    -2.99469    -3.96794
    17  H   1.0    0.12    0.96    1.42     3.10579    -4.53212    -3.25835
    18  H   1.0    0.14    1.06    1.44     0.49776    -2.88704    -3.55584
    19  H   1.0    0.16    1.08    1.44     3.23763    -1.44516    -3.47563

  Z AO/shell   Hii/eV     exponent
  1     Wed Apr 25 08:07:45 CEST 2018   EN: 2.200 GM2: 0.406  GM3: 0.0800  RAES: 1.40
     1s    -10.707211    1.230000
  8     Wed Apr 25 08:07:45 CEST 2018   EN: 3.440 GM2: 0.452  GM3:-0.0517  RAES: 1.80
     2s    -20.229985    2.439742
     2p    -15.503117    2.137023
 16     Tue Apr 24 11:44:34 CEST 2018   EN: 2.580 GM2: 0.340  GM3:-0.0502  RAES: 3.10
     3s    -20.029654    1.981333
     3p    -11.377694    2.025643
     3d     -0.420282    1.702555
 no old-style atom pair restraining (fixing) potential

molecular fragmentation (1/2 indicates fragments):
1111112222222222222
# atoms in fragment 1/2:     6    13
 fragment masses (1/2) :       97.07       73.07
CMA distance (Bohr)    :   5.181
constraining FC (au)   :  0.0500
           ------------------------------------------------- 
          |        Self-Consistent Charge Iterations        |
           ------------------------------------------------- 

 Ncao       : 52
 Nao        : 51
 Nshell     : 29
 Nel        : 64
 T(el)      :   300.0
 intcut     :    25.0
 scfconv/Eh :  0.100E-05
   qconv/e  :  0.100E-03
 intneglect :  0.100E-07
 broydamp   :      0.250
 iter      E             dE          RMSdq      gap      omega  full diag
   1    -41.0072524 -0.410073E+02  0.768E+00   10.42       0.0  T
   2    -41.0471452 -0.398928E-01  0.556E+00    9.89       1.0  T
   3    -41.0793907 -0.322455E-01  0.146E+00    7.35       1.0  T
   4    -41.0835804 -0.418975E-02  0.641E-01    7.68       1.0  T
   5    -41.0843239 -0.743448E-03  0.339E-01    7.68       1.0  T
   6    -41.0846995 -0.375657E-03  0.149E-01    7.77       1.0  T
   7    -41.0847921 -0.925628E-04  0.530E-02    7.79       1.0  T
   8    -41.0848025 -0.103671E-04  0.317E-02    7.79       1.0  T
   9    -41.0848069 -0.439903E-05  0.123E-02    7.81       1.9  T
  10    -41.0848075 -0.680525E-06  0.254E-03    7.81       9.0  T
  11    -41.0848076 -0.175321E-07  0.105E-03    7.81      21.9  T
  12    -41.0848076 -0.350715E-08  0.493E-04    7.81      46.6  T
  13    -41.0848076 -0.933184E-09  0.114E-04    7.81     202.1  T
speedup  0.95
cpu  time for SCC    0.01 s
wall time for SCC    0.01 s

   *** convergence criteria satisfied after 13 iterations ***

          eigenvalues
 #    :          20         21         22         23         24         25         26         27
 occ. :        2.000      2.000      2.000      2.000      2.000      2.000      2.000      2.000
 eps  :       -13.643    -13.396    -13.032    -12.571    -12.407    -12.261    -11.787    -11.778
 #    :          28         29         30         31         32         33         34         35
 occ. :        2.000      2.000      2.000      2.000      2.000      0.000      0.000      0.000
 eps  :       -11.638    -11.275    -11.241    -10.964    -10.418     -2.607     -1.379     -0.234
 #    :          36         37         38         39         40         41         42         43
 occ. :        0.000      0.000      0.000      0.000      0.000      0.000      0.000      0.000
 eps  :         0.958      1.246      1.382      3.720      3.893      5.348      5.957      7.158


   #   Z            q   n(s)   n(p)   n(d)      C6AA      α(0)
   1  16 S      1.610  1.583  1.833  0.975    90.844    16.042
   2   8 O     -0.760  1.779  4.981  0.000    30.395     7.392
   3   8 O     -0.759  1.779  4.980  0.000    30.361     7.388
   4   8 O     -0.744  1.763  4.981  0.000    29.929     7.335
   5   8 O     -0.544  1.719  4.825  0.000    23.855     6.594
   6   1 H      0.366  0.634  0.000  0.000     0.543     1.153
   7   8 O     -0.617  1.740  4.877  0.000    25.603     6.829
   8   1 H      0.284  0.716  0.000  0.000     0.770     1.378
   9   1 H      0.335  0.665  0.000  0.000     0.626     1.242
  10   8 O     -0.629  1.730  4.899  0.000    25.890     6.867
  11   1 H      0.331  0.669  0.000  0.000     0.635     1.252
  12   1 H      0.337  0.663  0.000  0.000     0.620     1.237
  13   8 O     -0.635  1.751  4.884  0.000    26.050     6.889
  14   1 H      0.293  0.707  0.000  0.000     0.742     1.353
  15   1 H      0.294  0.706  0.000  0.000     0.738     1.350
  16   8 O     -0.396  1.640  4.756  0.000    20.718     6.147
  17   1 H      0.384  0.616  0.000  0.000     0.516     1.128
  18   1 H      0.424  0.576  0.000  0.000     0.443     1.045
  19   1 H      0.426  0.574  0.000  0.000     0.439     1.041

 Mol. C6AA /au·bohr⁶  :       3384.905781
 Mol. C8AA /au·bohr⁸  :      76792.483367
 Mol. α(0) /au        :         83.662192

 
 Wiberg/Mayer (AO) data. WBOs > 0.1 written file <wbo>
 largest (>0.05) Wiberg bond orders for each atom
           total WBO             WBO to atom ...
     1  S   4.907    O    3 1.297    O    2 1.286    O    4 1.286    O    5 0.999
     2  O   1.679    S    1 1.286    O    3 0.117    O    4 0.109    O    5 0.074
     3  O   1.676    S    1 1.297    O    2 0.117    O    4 0.110    O    5 0.075    H    9 0.054
     4  O   1.716    S    1 1.286    O    3 0.110    O    2 0.109    H   19 0.107    O    5 0.051
     5  O   2.047    S    1 0.999    H    6 0.842    O    3 0.075    O    2 0.074    O    4 0.051
     6  H   0.865    O    5 0.842
     7  O   1.857    H    8 0.910    H    9 0.830
     8  H   0.919    O    7 0.910
     9  H   0.888    O    7 0.830    O    3 0.054
    10  O   1.894    H   11 0.857    H   12 0.850    H   18 0.110
    11  H   0.891    O   10 0.857
    12  H   0.887    O   10 0.850
    13  O   1.800    H   14 0.878    H   15 0.876
    14  H   0.914    O   13 0.878
    15  H   0.913    O   13 0.876
    16  O   2.339    H   17 0.848    H   18 0.705    H   19 0.704
    17  H   0.853    O   16 0.848
    18  H   0.820    O   16 0.705    O   10 0.110
    19  H   0.818    O   16 0.704    O    4 0.107
 MOs/occ written to file <molden.input>
 
molecular dipole:
                 x           y           z       tot (Debye)
 q only:        1.214      -2.519      -1.251
   full:        1.698      -1.978      -0.570       6.783
molecular quadrupole (traceless):
                xx          xy          yy          xz          yz          zz
 q only:      -16.114      -3.305      10.720      -3.714      10.793       5.394
  q+dip:      -18.247      -0.626      13.729      -1.971       8.762       4.518
   full:      -18.455      -0.404      14.093      -2.254       8.634       4.361

SCC energy    :     -41.0848076
rep           :       0.2164303
ES            :       0.2483515
AES           :      -0.0554050
AXC           :      -0.0112342
disp          :      -0.0132733
XB            :       0.0000000
fix           :       0.0000000
total E       :     -40.8682650
atomizationE  :       3.6624522     2298.22
(atE without considering molecular charge,
 total energy contains solvation terms)
H-L gap (eV)  :          7.8116
           ------------------------------------------------- 
          |                 ===============                 |
          |                   A N C O P T                   |
          |                 ===============                 |
          |          Approximate Normal Coordinate          |
          |           Rational Function Optimizer           |
           ------------------------------------------------- 
dumping coords to <xtbopt.coord> and <xtbopt.log>
 optlevel               2
 Maxcycle             380
 Maxmicro              25
 Econv         1.000000000000000E-007
 Gconv         2.000000000000000E-004
 Maxdispl       1.00000000000000     
 Hlow          5.000000000000000E-003
 S6             20.0000000000000     
 Nvar               51

generating ANC from model Hessian ...
 Shifting diagonal of input Hessian by   4.681669337568745E-003
 Lowest  eigenvalues of input Hessian
   -0.000000   -0.000000   -0.000000   -0.000000    0.000000    0.000000
    0.005000    0.005369    0.005727    0.006483    0.007001    0.007519
    0.008741    0.009759    0.010532    0.011545    0.012368    0.013177
 Highest eigenvalues
    1.454060    1.549063    1.561086    3.141361    3.212147    3.319182
 
cpu  time for ANC gen    0.01 s
wall time for ANC gen    0.01 s
................................................................................
.............................. CYCLE    1 ......................................
................................................................................
   1    -41.0848076 -0.410848E+02  0.865E-05    7.81       0.0  T
   2    -41.0848076 -0.954969E-11  0.688E-05    7.81     333.3  T
   3    -41.0848076 -0.146514E-10  0.273E-05    7.81     839.4  T
speedup  0.95
cpu  time for SCC    0.00 s
wall time for SCC    0.00 s
speedup  1.05
cpu  time for grad    0.01 s
wall time for grad    0.01 s
 E :    -40.86826500  G :  0.164877    pred/act E change:  0.000D+00  0.326D-07
Maxdispl :   0.2430   ||displ|| :   0.3874   Lambda : -0.207D-01
Largest |displ|/coords:  0.2430 (  19)  0.1694 (  23)  0.1094 (  20)
................................................................................
.............................. CYCLE    2 ......................................
................................................................................
   1    -41.0929954 -0.410930E+02  0.378E-01    7.96       0.0  T
   2    -41.0931745 -0.179067E-03  0.287E-01    8.01       1.0  T
   3    -41.0932571 -0.826002E-04  0.971E-02    8.09       1.0  T
   4    -41.0932738 -0.167026E-04  0.221E-02    8.08       1.0  T
   5    -41.0932748 -0.107277E-05  0.596E-03    8.07       3.9  T
   6    -41.0932749 -0.397402E-07  0.375E-03    8.07       6.1  T
speedup  0.81
cpu  time for SCC    0.00 s
wall time for SCC    0.00 s
speedup  1.01
cpu  time for grad    0.01 s
wall time for grad    0.01 s
 E :    -40.88565280  G :  0.110078    pred/act E change:  0.000D+00 -0.174D-01
Maxdispl :   0.2034   ||displ|| :   0.3721   Lambda : -0.134D-01
Largest |displ|/coords:  0.2034 (  23)  0.1848 (  19)  0.1109 (  15)
................................................................................
.............................. CYCLE    3 ......................................
................................................................................
   1    -41.0997297 -0.410997E+02  0.323E-01    8.12       0.0  T
   2    -41.0999708 -0.241104E-03  0.243E-01    8.14       1.0  T
   3    -41.1000826 -0.111768E-03  0.102E-01    8.17       1.0  T
   4    -41.1000952 -0.126383E-04  0.225E-02    8.16       1.0  T
   5    -41.1000960 -0.760378E-06  0.689E-03    8.16       3.3  T
   6    -41.1000960 -0.688029E-07  0.400E-03    8.16       5.7  T
   7    -41.1000961 -0.349515E-07  0.156E-03    8.16      14.7  T
speedup  1.16
cpu  time for SCC    0.00 s
wall time for SCC    0.00 s
speedup  1.04
cpu  time for grad    0.01 s
wall time for grad    0.01 s
 E :    -40.89626293  G :  0.067877    pred/act E change: -0.119D-01 -0.106D-01
Maxdispl :   0.1235   ||displ|| :   0.2759   Lambda : -0.601D-02
Largest |displ|/coords:  0.1235 (  19)  0.1174 (  15)  0.1143 (  23)
................................................................................
.............................. CYCLE    4 ......................................
................................................................................
   1    -41.1020612 -0.411021E+02  0.221E-01    8.17       0.0  T
   2    -41.1022283 -0.167105E-03  0.163E-01    8.18       1.0  T
   3    -41.1023071 -0.788034E-04  0.779E-02    8.18       1.0  T
   4    -41.1023121 -0.500946E-05  0.175E-02    8.18       1.3  T
   5    -41.1023124 -0.361925E-06  0.557E-03    8.18       4.1  T
   6    -41.1023125 -0.406736E-07  0.306E-03    8.18       7.5  T
speedup  1.03
cpu  time for SCC    0.00 s
wall time for SCC    0.00 s
speedup  0.98
cpu  time for grad    0.01 s
wall time for grad    0.01 s
 E :    -40.90063498  G :  0.037838    pred/act E change: -0.765D-02 -0.437D-02
Maxdispl :   0.1338   ||displ|| :   0.3001   Lambda : -0.337D-02
Largest |displ|/coords:  0.1338 (   1)  0.1044 (   2)  0.1017 (   4)
................................................................................
.............................. CYCLE    5 ......................................
................................................................................
   1    -41.0999352 -0.410999E+02  0.402E-01    8.10       0.0  T
   2    -41.1000768 -0.141614E-03  0.302E-01    8.13       1.0  T
   3    -41.1001346 -0.578263E-04  0.797E-02    8.18       1.0  T
   4    -41.1001534 -0.188199E-04  0.202E-02    8.17       1.1  T
   5    -41.1001541 -0.636112E-06  0.576E-03    8.17       4.0  T
   6    -41.1001541 -0.291610E-07  0.291E-03    8.17       7.9  T
speedup  0.79
cpu  time for SCC    0.00 s
wall time for SCC    0.00 s
speedup  0.99
cpu  time for grad    0.01 s
wall time for grad    0.01 s
 E :    -40.90244538  G :  0.020336    pred/act E change: -0.323D-02 -0.181D-02
Maxdispl :   0.2458   ||displ|| :   0.4624   Lambda : -0.297D-02
Largest |displ|/coords:  0.2458 (   2)  0.2195 (   6)  0.2195 (   3)
................................................................................
.............................. CYCLE    6 ......................................
................................................................................
   1    -41.1008229 -0.411008E+02  0.784E-01    8.04       0.0  T
   2    -41.1010242 -0.201304E-03  0.598E-01    8.04       1.0  T
   3    -41.1011203 -0.960990E-04  0.868E-02    8.06       1.0  T
   4    -41.1011627 -0.423887E-04  0.245E-02    8.09       1.0  T
   5    -41.1011636 -0.859846E-06  0.788E-03    8.09       2.9  T
   6    -41.1011636 -0.314637E-07  0.401E-03    8.09       5.7  T
   7    -41.1011636 -0.139209E-07  0.926E-04    8.09      24.8  T
speedup  0.91
cpu  time for SCC    0.00 s
wall time for SCC    0.00 s
speedup  0.93
cpu  time for grad    0.01 s
wall time for grad    0.01 s
 E :    -40.90133772  G :  0.027125    pred/act E change: -0.184D-02  0.111D-02
Maxdispl :   0.1154   ||displ|| :   0.2391   Lambda : -0.244D-02
Largest |displ|/coords:  0.1154 (   1)  0.1008 (   6)  0.0877 (   3)
................................................................................
.............................. CYCLE    7 ......................................
................................................................................
   1    -41.1048189 -0.411048E+02  0.410E-01    8.17       0.0  T
   2    -41.1048684 -0.494356E-04  0.313E-01    8.15       1.0  T
   3    -41.1048963 -0.279658E-04  0.464E-02    8.12       1.0  T
   4    -41.1049054 -0.910683E-05  0.124E-02    8.14       1.9  T
   5    -41.1049057 -0.262519E-06  0.380E-03    8.14       6.0  T
   6    -41.1049057 -0.715436E-08  0.203E-03    8.14      11.3  T
speedup  0.77
cpu  time for SCC    0.00 s
wall time for SCC    0.00 s
speedup  0.98
cpu  time for grad    0.01 s
wall time for grad    0.01 s
 E :    -40.90290585  G :  0.014376    pred/act E change: -0.180D-02 -0.157D-02
Maxdispl :   0.2258   ||displ|| :   0.3090   Lambda : -0.120D-02
Largest |displ|/coords:  0.2258 (   3)  0.1608 (   1)  0.0718 (   2)
................................................................................
.............................. CYCLE    8 ......................................
................................................................................
   1    -41.0969962 -0.410970E+02  0.472E-01    8.08       0.0  T
   2    -41.0970390 -0.427429E-04  0.359E-01    8.11       1.0  T
   3    -41.0970682 -0.292200E-04  0.409E-02    8.17       1.0  T
   4    -41.0970752 -0.696144E-05  0.117E-02    8.15       2.0  T
   5    -41.0970754 -0.234545E-06  0.415E-03    8.14       5.5  T
   6    -41.0970754 -0.177414E-08  0.206E-03    8.14      11.1  T
   7    -41.0970754 -0.609784E-08  0.453E-04    8.14      50.7  T
speedup  1.04
cpu  time for SCC    0.00 s
wall time for SCC    0.00 s
speedup  0.98
cpu  time for grad    0.01 s
wall time for grad    0.01 s
 E :    -40.90300811  G :  0.023796    pred/act E change: -0.129D-02 -0.102D-03
Maxdispl :   0.1054   ||displ|| :   0.1793   Lambda : -0.121D-02
Largest |displ|/coords:  0.1054 (   3)  0.0942 (   2)  0.0683 (   1)
................................................................................
.............................. CYCLE    9 ......................................
................................................................................
   1    -41.1026943 -0.411027E+02  0.252E-01    8.17       0.0  T
   2    -41.1027162 -0.219248E-04  0.191E-01    8.15       1.0  T
   3    -41.1027286 -0.123346E-04  0.296E-02    8.12       1.0  T
   4    -41.1027325 -0.391276E-05  0.776E-03    8.14       3.0  T
   5    -41.1027326 -0.766459E-07  0.288E-03    8.14       8.0  T
   6    -41.1027326 -0.316219E-08  0.151E-03    8.14      15.2  T
speedup  1.08
cpu  time for SCC    0.00 s
wall time for SCC    0.00 s
speedup  1.09
cpu  time for grad    0.01 s
wall time for grad    0.01 s
 E :    -40.90348425  G :  0.005055    pred/act E change: -0.655D-03 -0.476D-03
Maxdispl :   0.1581   ||displ|| :   0.1895   Lambda : -0.237D-03
Largest |displ|/coords:  0.1581 (   1)  0.0581 (   3)  0.0551 (   6)
................................................................................
.............................. CYCLE   10 ......................................
................................................................................
   1    -41.1021504 -0.411022E+02  0.115E-01    8.14       0.0  T
   2    -41.1021541 -0.361738E-05  0.861E-02    8.14       1.0  T
   3    -41.1021556 -0.152545E-05  0.123E-02    8.15       1.9  T
   4    -41.1021563 -0.717771E-06  0.275E-03    8.15       8.3  T
   5    -41.1021563 -0.803094E-08  0.121E-03    8.15      19.0  T
speedup  0.94
cpu  time for SCC    0.00 s
wall time for SCC    0.00 s
speedup  0.95
cpu  time for grad    0.01 s
wall time for grad    0.01 s
 E :    -40.90369215  G :  0.005952    pred/act E change: -0.625D-03 -0.208D-03
Maxdispl :   0.5348   ||displ|| :   0.6100   Lambda : -0.646D-03
Largest |displ|/coords:  0.5348 (   1)  0.1630 (   6)  0.1545 (   3)
................................................................................
.............................. CYCLE   11 ......................................
................................................................................
   1    -41.0984803 -0.410985E+02  0.342E-01    8.13       0.0  T
   2    -41.0985032 -0.229098E-04  0.257E-01    8.15       1.0  T
   3    -41.0985151 -0.118447E-04  0.331E-02    8.18       1.0  T
   4    -41.0985192 -0.412047E-05  0.831E-03    8.17       2.8  T
   5    -41.0985193 -0.912681E-07  0.321E-03    8.17       7.1  T
   6    -41.0985193 -0.347850E-08  0.161E-03    8.17      14.3  T
   7    -41.0985193 -0.300388E-08  0.381E-04    8.17      60.2  T
speedup  1.14
cpu  time for SCC    0.00 s
wall time for SCC    0.00 s
speedup  1.03
cpu  time for grad    0.01 s
wall time for grad    0.01 s
 E :    -40.90398662  G :  0.015559    pred/act E change: -0.123D-03 -0.294D-03
Maxdispl :   0.1389   ||displ|| :   0.1931   Lambda : -0.405D-03
Largest |displ|/coords:  0.1389 (   1)  0.0633 (   2)  0.0494 (   4)
................................................................................
.............................. CYCLE   12 ......................................
................................................................................
   1    -41.1001894 -0.411002E+02  0.137E-01    8.25       0.0  T
   2    -41.1001966 -0.714516E-05  0.103E-01    8.23       1.0  T
   3    -41.1001997 -0.311549E-05  0.166E-02    8.21       1.4  T
   4    -41.1002010 -0.129781E-05  0.394E-03    8.22       5.8  T
   5    -41.1002010 -0.197879E-07  0.174E-03    8.22      13.2  T
   6    -41.1002010 -0.165012E-08  0.835E-04    8.22      27.5  T
speedup  1.05
cpu  time for SCC    0.00 s
wall time for SCC    0.00 s
speedup  0.99
cpu  time for grad    0.01 s
wall time for grad    0.01 s
 E :    -40.90414795  G :  0.010580    pred/act E change: -0.443D-03 -0.161D-03
Maxdispl :   0.1294   ||displ|| :   0.1867   Lambda : -0.423D-03
Largest |displ|/coords:  0.1294 (   1)  0.0814 (   5)  0.0554 (   6)
................................................................................
.............................. CYCLE   13 ......................................
................................................................................
   1    -41.1034630 -0.411035E+02  0.124E-01    8.27       0.0  T
   2    -41.1034683 -0.529171E-05  0.938E-02    8.26       1.0  T
   3    -41.1034719 -0.356538E-05  0.149E-02    8.24       1.5  T
   4    -41.1034727 -0.849595E-06  0.516E-03    8.25       4.4  T
   5    -41.1034727 -0.302363E-07  0.173E-03    8.25      13.3  T
   6    -41.1034727 -0.234851E-08  0.955E-04    8.25      24.0  T
speedup  1.03
cpu  time for SCC    0.00 s
wall time for SCC    0.00 s
speedup  1.09
cpu  time for grad    0.01 s
wall time for grad    0.01 s
 E :    -40.90430880  G :  0.007817    pred/act E change: -0.210D-03 -0.161D-03
Maxdispl :   0.2718   ||displ|| :   0.2933   Lambda : -0.298D-03
Largest |displ|/coords:  0.2718 (   1)  0.0475 (   6)  0.0378 (  16)
................................................................................
.............................. CYCLE   14 ......................................
................................................................................
   1    -41.1030888 -0.411031E+02  0.140E-01    8.28       0.0  T
   2    -41.1030919 -0.312615E-05  0.106E-01    8.28       1.0  T
   3    -41.1030944 -0.253463E-05  0.112E-02    8.29       2.0  T
   4    -41.1030948 -0.429482E-06  0.492E-03    8.29       4.7  T
   5    -41.1030949 -0.249846E-07  0.130E-03    8.28      17.7  T
   6    -41.1030949 -0.134887E-08  0.750E-04    8.28      30.6  T
speedup  0.77
cpu  time for SCC    0.00 s
wall time for SCC    0.00 s
speedup  0.98
cpu  time for grad    0.01 s
wall time for grad    0.01 s
 E :    -40.90450222  G :  0.006855    pred/act E change: -0.219D-03 -0.193D-03
Maxdispl :   0.3614   ||displ|| :   0.4379   Lambda : -0.305D-03
Largest |displ|/coords:  0.3614 (   1)  0.1272 (   6)  0.1009 (   4)
................................................................................
.............................. CYCLE   15 ......................................
................................................................................
   1    -41.0995450 -0.410995E+02  0.233E-01    8.33       0.0  T
   2    -41.0995560 -0.109730E-04  0.176E-01    8.33       1.0  T
   3    -41.0995627 -0.668295E-05  0.232E-02    8.34       1.0  T
   4    -41.0995645 -0.180819E-05  0.828E-03    8.34       2.8  T
   5    -41.0995646 -0.895090E-07  0.253E-03    8.34       9.1  T
   6    -41.0995646 -0.317174E-08  0.142E-03    8.34      16.2  T
speedup  1.08
cpu  time for SCC    0.00 s
wall time for SCC    0.00 s
speedup  0.99
cpu  time for grad    0.01 s
wall time for grad    0.01 s
 E :    -40.90457488  G :  0.015829    pred/act E change: -0.162D-03 -0.727D-04
Maxdispl :   0.0410   ||displ|| :   0.1011   Lambda : -0.359D-03
Largest |displ|/coords:  0.0410 (   2)  0.0313 (   3)  0.0300 (   9)
................................................................................
.............................. CYCLE   16 ......................................
................................................................................
   1    -41.1032123 -0.411032E+02  0.729E-02    8.40       0.0  T
   2    -41.1032159 -0.367616E-05  0.526E-02    8.39       1.0  T
   3    -41.1032180 -0.208731E-05  0.142E-02    8.37       1.6  T
   4    -41.1032183 -0.250244E-06  0.422E-03    8.37       5.4  T
   5    -41.1032183 -0.242775E-07  0.109E-03    8.37      21.0  T
   6    -41.1032183 -0.115749E-08  0.596E-04    8.37      38.5  T
speedup  1.05
cpu  time for SCC    0.00 s
wall time for SCC    0.00 s
speedup  0.99
cpu  time for grad    0.01 s
wall time for grad    0.01 s
 E :    -40.90470986  G :  0.011553    pred/act E change: -0.182D-03 -0.135D-03
Maxdispl :   0.1533   ||displ|| :   0.2226   Lambda : -0.422D-03
Largest |displ|/coords:  0.1533 (   1)  0.0972 (   3)  0.0799 (   5)
................................................................................
.............................. CYCLE   17 ......................................
................................................................................
   1    -41.1039471 -0.411039E+02  0.171E-01    8.39       0.0  T
   2    -41.1039535 -0.640734E-05  0.129E-01    8.38       1.0  T
   3    -41.1039602 -0.666226E-05  0.176E-02    8.36       1.3  T
   4    -41.1039609 -0.726903E-06  0.582E-03    8.37       3.9  T
   5    -41.1039609 -0.335268E-07  0.241E-03    8.37       9.5  T
   6    -41.1039609 -0.535982E-08  0.949E-04    8.37      24.2  T
speedup  1.05
cpu  time for SCC    0.00 s
wall time for SCC    0.00 s
speedup  1.10
cpu  time for grad    0.01 s
wall time for grad    0.01 s
 E :    -40.90482124  G :  0.014405    pred/act E change: -0.182D-03 -0.111D-03
Maxdispl :   0.2002   ||displ|| :   0.2639   Lambda : -0.363D-03
Largest |displ|/coords:  0.2002 (   1)  0.1247 (   6)  0.0577 (   5)
................................................................................
.............................. CYCLE   18 ......................................
................................................................................
   1    -41.1035548 -0.411036E+02  0.149E-01    8.39       0.0  T
   2    -41.1035586 -0.380326E-05  0.112E-01    8.40       1.0  T
   3    -41.1035620 -0.338597E-05  0.147E-02    8.40       1.6  T
   4    -41.1035625 -0.453294E-06  0.505E-03    8.40       4.5  T
   5    -41.1035625 -0.262995E-07  0.166E-03    8.40      13.8  T
   6    -41.1035625 -0.255837E-08  0.857E-04    8.40      26.8  T
speedup  0.81
cpu  time for SCC    0.00 s
wall time for SCC    0.00 s
speedup  0.99
cpu  time for grad    0.01 s
wall time for grad    0.01 s
 E :    -40.90498653  G :  0.010613    pred/act E change: -0.221D-03 -0.165D-03
Maxdispl :   0.2179   ||displ|| :   0.3334   Lambda : -0.537D-03
Largest |displ|/coords:  0.2179 (   1)  0.1193 (   6)  0.1134 (   2)
................................................................................
.............................. CYCLE   19 ......................................
................................................................................
   1    -41.1012431 -0.411012E+02  0.203E-01    8.38       0.0  T
   2    -41.1012529 -0.980993E-05  0.153E-01    8.39       1.0  T
   3    -41.1012592 -0.630791E-05  0.235E-02    8.43       1.0  T
   4    -41.1012606 -0.138996E-05  0.669E-03    8.42       3.4  T
   5    -41.1012607 -0.722276E-07  0.196E-03    8.42      11.7  T
   6    -41.1012607 -0.205884E-08  0.118E-03    8.42      19.4  T
speedup  1.08
cpu  time for SCC    0.00 s
wall time for SCC    0.00 s
speedup  0.99
cpu  time for grad    0.01 s
wall time for grad    0.01 s
 E :    -40.90520275  G :  0.014019    pred/act E change: -0.194D-03 -0.216D-03
Maxdispl :   0.1128   ||displ|| :   0.2449   Lambda : -0.431D-03
Largest |displ|/coords:  0.1128 (   5)  0.1012 (   1)  0.0899 (   2)
................................................................................
.............................. CYCLE   20 ......................................
................................................................................
   1    -41.1023935 -0.411024E+02  0.156E-01    8.44       0.0  T
   2    -41.1023987 -0.524416E-05  0.116E-01    8.43       1.0  T
   3    -41.1024018 -0.308641E-05  0.214E-02    8.41       1.1  T
   4    -41.1024026 -0.749690E-06  0.506E-03    8.42       4.5  T
   5    -41.1024026 -0.389662E-07  0.178E-03    8.42      12.9  T
   6    -41.1024026 -0.197776E-08  0.102E-03    8.42      22.4  T
speedup  1.11
cpu  time for SCC    0.00 s
wall time for SCC    0.00 s
speedup  1.01
cpu  time for grad    0.01 s
wall time for grad    0.01 s
 E :    -40.90553691  G :  0.010784    pred/act E change: -0.298D-03 -0.334D-03
Maxdispl :   0.2925   ||displ|| :   0.6240   Lambda : -0.108D-02
Largest |displ|/coords:  0.2925 (   2)  0.2331 (   1)  0.2302 (   5)
................................................................................
.............................. CYCLE   21 ......................................
................................................................................
   1    -41.1021894 -0.411022E+02  0.405E-01    8.35       0.0  T
   2    -41.1022183 -0.288854E-04  0.303E-01    8.36       1.0  T
   3    -41.1022390 -0.207727E-04  0.518E-02    8.38       1.0  T
   4    -41.1022431 -0.402856E-05  0.126E-02    8.38       1.8  T
   5    -41.1022432 -0.169713E-06  0.414E-03    8.38       5.5  T
   6    -41.1022432 -0.130088E-07  0.230E-03    8.38      10.0  T
   7    -41.1022432 -0.101481E-07  0.776E-04    8.38      29.6  T
speedup  0.91
cpu  time for SCC    0.00 s
wall time for SCC    0.00 s
speedup  1.02
cpu  time for grad    0.01 s
wall time for grad    0.01 s
 E :    -40.90609091  G :  0.020915    pred/act E change: -0.229D-03 -0.554D-03
Maxdispl :   0.3200   ||displ|| :   0.5462   Lambda : -0.105D-02
Largest |displ|/coords:  0.3200 (   1)  0.2159 (   5)  0.1627 (   3)
................................................................................
.............................. CYCLE   22 ......................................
................................................................................
   1    -41.0992611 -0.410993E+02  0.340E-01    8.31       0.0  T
   2    -41.0992890 -0.278686E-04  0.254E-01    8.30       1.0  T
   3    -41.0993037 -0.147727E-04  0.497E-02    8.28       1.0  T
   4    -41.0993081 -0.434331E-05  0.119E-02    8.29       1.9  T
   5    -41.0993083 -0.192706E-06  0.362E-03    8.29       6.3  T
   6    -41.0993083 -0.902722E-08  0.213E-03    8.29      10.8  T
speedup  1.03
cpu  time for SCC    0.00 s
wall time for SCC    0.00 s
speedup  1.02
cpu  time for grad    0.01 s
wall time for grad    0.01 s
 E :    -40.90683523  G :  0.023872    pred/act E change: -0.749D-03 -0.744D-03
Maxdispl :   0.1654   ||displ|| :   0.3657   Lambda : -0.141D-02
Largest |displ|/coords:  0.1654 (   5)  0.1313 (   4)  0.1257 (   2)
................................................................................
.............................. CYCLE   23 ......................................
................................................................................
   1    -41.1057987 -0.411058E+02  0.241E-01    8.40       0.0  T
   2    -41.1058187 -0.200493E-04  0.180E-01    8.37       1.0  T
   3    -41.1058327 -0.140408E-04  0.314E-02    8.33       1.0  T
   4    -41.1058350 -0.226557E-05  0.110E-02    8.34       2.1  T
   5    -41.1058352 -0.181425E-06  0.314E-03    8.35       7.3  T
   6    -41.1058352 -0.942264E-08  0.197E-03    8.35      11.7  T
speedup  0.79
cpu  time for SCC    0.00 s
wall time for SCC    0.00 s
speedup  0.98
cpu  time for grad    0.01 s
wall time for grad    0.01 s
 E :    -40.90702660  G :  0.034310    pred/act E change: -0.681D-03 -0.191D-03
Maxdispl :   0.3649   ||displ|| :   0.5416   Lambda : -0.247D-02
Largest |displ|/coords:  0.3649 (   1)  0.2356 (   5)  0.1430 (   2)
................................................................................
.............................. CYCLE   24 ......................................
................................................................................
   1    -41.0946396 -0.410946E+02  0.365E-01    8.29       0.0  T
   2    -41.0946924 -0.527559E-04  0.273E-01    8.33       1.0  T
   3    -41.0947192 -0.267776E-04  0.537E-02    8.41       1.0  T
   4    -41.0947265 -0.734276E-05  0.170E-02    8.39       1.4  T
   5    -41.0947271 -0.569764E-06  0.436E-03    8.37       5.3  T
   6    -41.0947271 -0.102697E-07  0.276E-03    8.37       8.3  T
speedup  1.05
cpu  time for SCC    0.00 s
wall time for SCC    0.00 s
speedup  0.98
cpu  time for grad    0.01 s
wall time for grad    0.01 s
 E :    -40.90785780  G :  0.036415    pred/act E change: -0.800D-03 -0.831D-03
Maxdispl :   0.1005   ||displ|| :   0.2507   Lambda : -0.274D-02
Largest |displ|/coords:  0.1005 (   4)  0.0988 (   3)  0.0784 (  10)
................................................................................
.............................. CYCLE   25 ......................................
................................................................................
   1    -41.0990676 -0.410991E+02  0.288E-01    8.62       0.0  T
   2    -41.0991119 -0.443552E-04  0.215E-01    8.61       1.0  T
   3    -41.0991459 -0.339381E-04  0.545E-02    8.59       1.0  T
   4    -41.0991508 -0.488162E-05  0.180E-02    8.60       1.3  T
   5    -41.0991512 -0.458122E-06  0.559E-03    8.60       4.1  T
   6    -41.0991512 -0.271651E-07  0.313E-03    8.60       7.3  T
speedup  1.08
cpu  time for SCC    0.00 s
wall time for SCC    0.00 s
speedup  0.99
cpu  time for grad    0.01 s
wall time for grad    0.01 s
 E :    -40.90789620  G :  0.049414    pred/act E change: -0.160D-02 -0.384D-04
Maxdispl :   0.1237   ||displ|| :   0.2700   Lambda : -0.317D-02
Largest |displ|/coords:  0.1237 (   9)  0.1111 (   5)  0.1034 (   6)

generating ANC from model Hessian ...
 Shifting diagonal of input Hessian by   4.709523264703660E-003
 Lowest  eigenvalues of input Hessian
   -0.000000   -0.000000    0.000000    0.000000    0.000000    0.000000
    0.005000    0.005476    0.006293    0.007064    0.007579    0.008332
    0.008902    0.010264    0.010420    0.013101    0.015715    0.018197
 Highest eigenvalues
    1.390096    1.394737    1.424875    2.713400    3.403546    3.460635
 
cpu  time for ANC gen    0.01 s
wall time for ANC gen    0.01 s
................................................................................
.............................. CYCLE   26 ......................................
................................................................................
   1    -41.1030138 -0.411030E+02  0.220E-01    8.71       0.0  T
   2    -41.1030374 -0.235988E-04  0.162E-01    8.70       1.0  T
   3    -41.1030559 -0.185156E-04  0.389E-02    8.69       1.0  T
   4    -41.1030583 -0.237248E-05  0.137E-02    8.70       1.7  T
   5    -41.1030585 -0.248242E-06  0.402E-03    8.71       5.7  T
   6    -41.1030585 -0.147211E-07  0.231E-03    8.71      10.0  T
   7    -41.1030586 -0.854774E-08  0.653E-04    8.70      35.2  T
   8    -41.1030586 -0.122620E-08  0.198E-04    8.70     115.9  T
speedup  1.00
cpu  time for SCC    0.00 s
wall time for SCC    0.00 s
speedup  0.93
cpu  time for grad    0.01 s
wall time for grad    0.01 s
 E :    -40.90935739  G :  0.018793    pred/act E change:  0.000D+00 -0.146D-02
Maxdispl :   0.2529   ||displ|| :   0.4541   Lambda : -0.291D-02
Largest |displ|/coords:  0.2529 (   4)  0.2202 (   9)  0.2125 (   1)
................................................................................
.............................. CYCLE   27 ......................................
................................................................................
   1    -41.0974601 -0.410975E+02  0.651E-01    8.76       0.0  T
   2    -41.0975357 -0.755894E-04  0.496E-01    8.81       1.0  T
   3    -41.0976059 -0.702835E-04  0.606E-02    8.94       1.0  T
   4    -41.0976145 -0.851062E-05  0.166E-02    8.91       1.4  T
   5    -41.0976149 -0.391343E-06  0.617E-03    8.90       3.7  T
   6    -41.0976149 -0.108187E-07  0.338E-03    8.90       6.8  T
   7    -41.0976149 -0.185372E-07  0.834E-04    8.90      27.5  T
   8    -41.0976149 -0.112129E-08  0.275E-04    8.90      83.5  T
speedup  1.02
cpu  time for SCC    0.00 s
wall time for SCC    0.00 s
speedup  1.05
cpu  time for grad    0.01 s
wall time for grad    0.01 s
 E :    -40.90973642  G :  0.040952    pred/act E change:  0.000D+00 -0.379D-03
Maxdispl :   0.1426   ||displ|| :   0.2810   Lambda : -0.375D-02
Largest |displ|/coords:  0.1426 (   4)  0.1273 (   5)  0.0999 (   1)
................................................................................
.............................. CYCLE   28 ......................................
................................................................................
   1    -41.1063165 -0.411063E+02  0.465E-01    9.01       0.0  T
   2    -41.1063690 -0.524276E-04  0.353E-01    8.97       1.0  T
   3    -41.1064035 -0.345166E-04  0.529E-02    8.90       1.0  T
   4    -41.1064115 -0.801964E-05  0.124E-02    8.94       1.9  T
   5    -41.1064119 -0.396366E-06  0.480E-03    8.95       4.8  T
   6    -41.1064119 -0.250494E-08  0.284E-03    8.95       8.1  T
speedup  1.05
cpu  time for SCC    0.00 s
wall time for SCC    0.00 s
speedup  0.99
cpu  time for grad    0.01 s
wall time for grad    0.01 s
 E :    -40.91106042  G :  0.010727    pred/act E change: -0.175D-02 -0.132D-02
Maxdispl :   0.2173   ||displ|| :   0.2870   Lambda : -0.799D-03
Largest |displ|/coords:  0.2173 (   1)  0.0886 (   3)  0.0790 (  12)
................................................................................
.............................. CYCLE   29 ......................................
................................................................................
   1    -41.1063707 -0.411064E+02  0.160E-01    9.06       0.0  T
   2    -41.1063754 -0.471998E-05  0.121E-01    9.08       1.0  T
   3    -41.1063802 -0.476498E-05  0.142E-02    9.11       1.6  T
   4    -41.1063807 -0.490456E-06  0.431E-03    9.11       5.3  T
   5    -41.1063807 -0.169266E-07  0.194E-03    9.10      11.8  T
   6    -41.1063807 -0.324549E-08  0.872E-04    9.10      26.3  T
speedup  1.08
cpu  time for SCC    0.00 s
wall time for SCC    0.00 s
speedup  1.10
cpu  time for grad    0.01 s
wall time for grad    0.01 s
 E :    -40.91174945  G :  0.011976    pred/act E change: -0.202D-02 -0.689D-03
Maxdispl :   0.4167   ||displ|| :   0.6201   Lambda : -0.151D-02
Largest |displ|/coords:  0.4167 (   1)  0.2218 (   4)  0.1745 (   3)
................................................................................
.............................. CYCLE   30 ......................................
................................................................................
   1    -41.1017883 -0.411018E+02  0.380E-01    9.34       0.0  T
   2    -41.1018264 -0.380691E-04  0.287E-01    9.39       1.0  T
   3    -41.1018539 -0.275072E-04  0.404E-02    9.48       1.0  T
   4    -41.1018593 -0.540749E-05  0.880E-03    9.48       2.6  T
   5    -41.1018594 -0.888912E-07  0.488E-03    9.48       4.7  T
   6    -41.1018594 -0.195021E-07  0.244E-03    9.48       9.4  T
   7    -41.1018594 -0.595858E-08  0.579E-04    9.48      39.6  T
speedup  0.93
cpu  time for SCC    0.00 s
wall time for SCC    0.00 s
speedup  0.93
cpu  time for grad    0.01 s
wall time for grad    0.01 s
 E :    -40.91218180  G :  0.021029    pred/act E change: -0.433D-03 -0.432D-03
Maxdispl :   0.1115   ||displ|| :   0.2064   Lambda : -0.946D-03
Largest |displ|/coords:  0.1115 (   7)  0.1048 (   2)  0.1035 (   1)
................................................................................
.............................. CYCLE   31 ......................................
................................................................................
   1    -41.1053111 -0.411053E+02  0.133E-01    9.47       0.0  T
   2    -41.1053215 -0.103955E-04  0.996E-02    9.45       1.0  T
   3    -41.1053269 -0.541910E-05  0.237E-02    9.41       1.0  T
   4    -41.1053283 -0.141431E-05  0.784E-03    9.42       2.9  T
   5    -41.1053284 -0.995954E-07  0.227E-03    9.42      10.1  T
   6    -41.1053284 -0.336421E-08  0.137E-03    9.42      16.7  T
speedup  1.08
cpu  time for SCC    0.00 s
wall time for SCC    0.00 s
speedup  0.99
cpu  time for grad    0.01 s
wall time for grad    0.01 s
 E :    -40.91262206  G :  0.006907    pred/act E change: -0.104D-02 -0.440D-03
Maxdispl :   0.0955   ||displ|| :   0.1672   Lambda : -0.293D-03
Largest |displ|/coords:  0.0955 (   1)  0.0687 (   6)  0.0638 (   8)
................................................................................
.............................. CYCLE   32 ......................................
................................................................................
   1    -41.1038942 -0.411039E+02  0.134E-01    9.42       0.0  T
   2    -41.1038988 -0.460944E-05  0.101E-01    9.43       1.0  T
   3    -41.1039016 -0.275571E-05  0.152E-02    9.46       1.5  T
   4    -41.1039023 -0.741658E-06  0.561E-03    9.45       4.1  T
   5    -41.1039023 -0.463819E-07  0.181E-03    9.45      12.7  T
   6    -41.1039023 -0.286027E-08  0.111E-03    9.45      20.6  T
speedup  1.08
cpu  time for SCC    0.00 s
wall time for SCC    0.00 s
speedup  1.10
cpu  time for grad    0.01 s
wall time for grad    0.01 s
 E :    -40.91271571  G :  0.012532    pred/act E change: -0.493D-03 -0.937D-04
Maxdispl :   0.0850   ||displ|| :   0.1784   Lambda : -0.401D-03
Largest |displ|/coords:  0.0850 (   4)  0.0564 (  11)  0.0558 (   1)
................................................................................
.............................. CYCLE   33 ......................................
................................................................................
   1    -41.1050147 -0.411050E+02  0.154E-01    9.50       0.0  T
   2    -41.1050187 -0.406149E-05  0.117E-01    9.50       1.0  T
   3    -41.1050225 -0.380867E-05  0.114E-02    9.49       2.0  T
   4    -41.1050230 -0.429110E-06  0.494E-03    9.50       4.6  T
   5    -41.1050230 -0.200777E-07  0.136E-03    9.50      16.8  T
   6    -41.1050230 -0.115310E-08  0.774E-04    9.50      29.6  T
speedup  0.81
cpu  time for SCC    0.00 s
wall time for SCC    0.00 s
speedup  0.99
cpu  time for grad    0.01 s
wall time for grad    0.01 s
 E :    -40.91291924  G :  0.007450    pred/act E change: -0.150D-03 -0.204D-03
Maxdispl :   0.1073   ||displ|| :   0.1329   Lambda : -0.152D-03
Largest |displ|/coords:  0.1073 (   1)  0.0408 (   5)  0.0335 (   4)
................................................................................
.............................. CYCLE   34 ......................................
................................................................................
   1    -41.1044586 -0.411045E+02  0.952E-02    9.49       0.0  T
   2    -41.1044609 -0.226316E-05  0.722E-02    9.49       1.0  T
   3    -41.1044626 -0.170370E-05  0.104E-02    9.49       2.2  T
   4    -41.1044629 -0.318993E-06  0.332E-03    9.49       6.9  T
   5    -41.1044629 -0.233589E-07  0.127E-03    9.49      18.1  T
   6    -41.1044629 -0.925418E-09  0.690E-04    9.49      33.3  T
speedup  0.81
cpu  time for SCC    0.00 s
wall time for SCC    0.00 s
speedup  0.99
cpu  time for grad    0.01 s
wall time for grad    0.01 s
 E :    -40.91299107  G :  0.005233    pred/act E change: -0.207D-03 -0.718D-04
Maxdispl :   0.0550   ||displ|| :   0.0952   Lambda : -0.125D-03
Largest |displ|/coords:  0.0550 (   2)  0.0450 (   1)  0.0296 (   5)
................................................................................
.............................. CYCLE   35 ......................................
................................................................................
   1    -41.1062110 -0.411062E+02  0.756E-02    9.50       0.0  T
   2    -41.1062128 -0.186259E-05  0.564E-02    9.50       1.0  T
   3    -41.1062137 -0.931151E-06  0.931E-03    9.50       2.5  T
   4    -41.1062140 -0.268536E-06  0.248E-03    9.49       9.3  T
   5    -41.1062140 -0.165303E-07  0.785E-04    9.49      29.2  T
speedup  0.97
cpu  time for SCC    0.00 s
wall time for SCC    0.00 s
speedup  0.94
cpu  time for grad    0.01 s
wall time for grad    0.01 s
 E :    -40.91304643  G :  0.006735    pred/act E change: -0.772D-04 -0.554D-04
Maxdispl :   0.1052   ||displ|| :   0.1427   Lambda : -0.139D-03
Largest |displ|/coords:  0.1052 (   2)  0.0476 (  11)  0.0438 (   3)
................................................................................
.............................. CYCLE   36 ......................................
................................................................................
   1    -41.1049884 -0.411050E+02  0.128E-01    9.49       0.0  T
   2    -41.1049909 -0.250059E-05  0.960E-02    9.49       1.0  T
   3    -41.1049930 -0.213606E-05  0.109E-02    9.49       2.1  T
   4    -41.1049933 -0.317617E-06  0.363E-03    9.49       6.3  T
   5    -41.1049934 -0.202132E-07  0.141E-03    9.49      16.3  T
   6    -41.1049934 -0.145990E-08  0.765E-04    9.49      30.0  T
speedup  1.08
cpu  time for SCC    0.00 s
wall time for SCC    0.00 s
speedup  0.99
cpu  time for grad    0.01 s
wall time for grad    0.01 s
 E :    -40.91309408  G :  0.007747    pred/act E change: -0.632D-04 -0.476D-04
Maxdispl :   0.0282   ||displ|| :   0.0529   Lambda : -0.909D-04
Largest |displ|/coords:  0.0282 (   3)  0.0276 (   7)  0.0203 (  12)
................................................................................
.............................. CYCLE   37 ......................................
................................................................................
   1    -41.1054543 -0.411055E+02  0.466E-02    9.47       0.0  T
   2    -41.1054551 -0.818232E-06  0.351E-02    9.47       1.0  T
   3    -41.1054559 -0.707313E-06  0.572E-03    9.47       4.0  T
   4    -41.1054560 -0.104259E-06  0.164E-03    9.47      14.0  T
   5    -41.1054560 -0.283152E-08  0.729E-04    9.47      31.5  T
speedup  0.97
cpu  time for SCC    0.00 s
wall time for SCC    0.00 s
speedup  1.06
cpu  time for grad    0.01 s
wall time for grad    0.01 s
 E :    -40.91314170  G :  0.004142    pred/act E change: -0.709D-04 -0.476D-04
Maxdispl :   0.0469   ||displ|| :   0.0678   Lambda : -0.664D-04
Largest |displ|/coords:  0.0469 (   2)  0.0309 (   7)  0.0147 (   6)
................................................................................
.............................. CYCLE   38 ......................................
................................................................................
   1    -41.1053742 -0.411054E+02  0.406E-02    9.46       0.0  T
   2    -41.1053750 -0.818762E-06  0.307E-02    9.46       1.0  T
   3    -41.1053754 -0.399537E-06  0.669E-03    9.46       3.4  T
   4    -41.1053756 -0.118570E-06  0.201E-03    9.46      11.4  T
   5    -41.1053756 -0.820712E-08  0.602E-04    9.46      38.1  T
speedup  0.97
cpu  time for SCC    0.00 s
wall time for SCC    0.00 s
speedup  0.95
cpu  time for grad    0.01 s
wall time for grad    0.01 s
 E :    -40.91318781  G :  0.003948    pred/act E change: -0.456D-04 -0.461D-04
Maxdispl :   0.1459   ||displ|| :   0.1947   Lambda : -0.101D-03
Largest |displ|/coords:  0.1459 (   2)  0.0738 (   1)  0.0709 (   7)
................................................................................
.............................. CYCLE   39 ......................................
................................................................................
   1    -41.1041475 -0.411041E+02  0.116E-01    9.46       0.0  T
   2    -41.1041534 -0.590212E-05  0.877E-02    9.46       1.0  T
   3    -41.1041564 -0.302741E-05  0.156E-02    9.46       1.5  T
   4    -41.1041574 -0.968555E-06  0.493E-03    9.46       4.6  T
   5    -41.1041574 -0.456144E-07  0.181E-03    9.46      12.7  T
   6    -41.1041574 -0.261254E-08  0.994E-04    9.46      23.1  T
   7    -41.1041574 -0.113094E-08  0.203E-04    9.46     112.8  T
speedup  1.16
cpu  time for SCC    0.00 s
wall time for SCC    0.00 s
speedup  1.01
cpu  time for grad    0.01 s
wall time for grad    0.01 s
 E :    -40.91326219  G :  0.006749    pred/act E change: -0.333D-04 -0.744D-04
Maxdispl :   0.2602   ||displ|| :   0.3190   Lambda : -0.149D-03
Largest |displ|/coords:  0.2602 (   2)  0.1105 (   7)  0.0654 (   6)
................................................................................
.............................. CYCLE   40 ......................................
................................................................................
   1    -41.1027959 -0.411028E+02  0.186E-01    9.45       0.0  T
   2    -41.1028127 -0.167418E-04  0.140E-01    9.45       1.0  T
   3    -41.1028203 -0.766988E-05  0.254E-02    9.45       1.0  T
   4    -41.1028233 -0.296178E-05  0.721E-03    9.45       3.2  T
   5    -41.1028234 -0.630740E-07  0.287E-03    9.45       8.0  T
   6    -41.1028234 -0.622153E-08  0.155E-03    9.45      14.8  T
speedup  1.11
cpu  time for SCC    0.00 s
wall time for SCC    0.00 s
speedup  1.00
cpu  time for grad    0.01 s
wall time for grad    0.01 s
 E :    -40.91337335  G :  0.010680    pred/act E change: -0.523D-04 -0.111D-03
Maxdispl :   0.2889   ||displ|| :   0.3684   Lambda : -0.211D-03
Largest |displ|/coords:  0.2889 (   2)  0.1244 (   7)  0.0989 (   6)
................................................................................
.............................. CYCLE   41 ......................................
................................................................................
   1    -41.1022064 -0.411022E+02  0.202E-01    9.46       0.0  T
   2    -41.1022401 -0.336367E-04  0.150E-01    9.46       1.0  T
   3    -41.1022542 -0.141282E-04  0.367E-02    9.46       1.0  T
   4    -41.1022591 -0.486304E-05  0.834E-03    9.46       2.8  T
   5    -41.1022591 -0.625109E-07  0.342E-03    9.46       6.7  T
   6    -41.1022591 -0.886406E-08  0.174E-03    9.46      13.2  T
   7    -41.1022591 -0.264961E-08  0.379E-04    9.46      60.5  T
speedup  1.16
cpu  time for SCC    0.00 s
wall time for SCC    0.00 s
speedup  1.02
cpu  time for grad    0.01 s
wall time for grad    0.01 s
 E :    -40.91355463  G :  0.013703    pred/act E change: -0.820D-04 -0.181D-03
Maxdispl :   0.4201   ||displ|| :   0.5590   Lambda : -0.512D-03
Largest |displ|/coords:  0.4201 (   2)  0.1856 (   7)  0.1697 (   6)
................................................................................
.............................. CYCLE   42 ......................................
................................................................................
   1    -41.1026175 -0.411026E+02  0.310E-01    9.47       0.0  T
   2    -41.1027455 -0.127979E-03  0.227E-01    9.47       1.0  T
   3    -41.1027992 -0.537299E-04  0.707E-02    9.46       1.0  T
   4    -41.1028118 -0.126439E-04  0.137E-02    9.47       1.7  T
   5    -41.1028120 -0.145541E-06  0.580E-03    9.47       4.0  T
   6    -41.1028120 -0.227803E-07  0.267E-03    9.47       8.6  T
   7    -41.1028120 -0.562170E-08  0.660E-04    9.47      34.7  T
speedup  0.95
cpu  time for SCC    0.00 s
wall time for SCC    0.00 s
speedup  1.05
cpu  time for grad    0.01 s
wall time for grad    0.01 s
 E :    -40.91399813  G :  0.016527    pred/act E change: -0.120D-03 -0.443D-03
Maxdispl :   0.3314   ||displ|| :   0.5055   Lambda : -0.983D-03
Largest |displ|/coords:  0.3314 (   2)  0.1793 (   3)  0.1641 (   6)
................................................................................
.............................. CYCLE   43 ......................................
................................................................................
   1    -41.1085195 -0.411085E+02  0.330E-01    9.51       0.0  T
   2    -41.1087317 -0.212234E-03  0.236E-01    9.51       1.0  T
   3    -41.1088290 -0.973012E-04  0.876E-02    9.50       1.0  T
   4    -41.1088410 -0.120464E-04  0.163E-02    9.50       1.4  T
   5    -41.1088413 -0.229995E-06  0.720E-03    9.50       3.2  T
   6    -41.1088413 -0.273646E-07  0.306E-03    9.50       7.5  T
   7    -41.1088413 -0.737377E-08  0.943E-04    9.50      24.3  T
   8    -41.1088413 -0.121027E-08  0.167E-04    9.50     137.8  T
speedup  1.04
cpu  time for SCC    0.00 s
wall time for SCC    0.00 s
speedup  1.09
cpu  time for grad    0.01 s
wall time for grad    0.01 s
 E :    -40.91465158  G :  0.017701    pred/act E change: -0.336D-03 -0.653D-03
Maxdispl :   0.3584   ||displ|| :   0.4888   Lambda : -0.126D-02
Largest |displ|/coords:  0.3584 (   2)  0.1452 (   7)  0.1400 (  17)
................................................................................
.............................. CYCLE   44 ......................................
................................................................................
   1    -41.1037735 -0.411038E+02  0.390E-01    9.52       0.0  T
   2    -41.1039241 -0.150655E-03  0.287E-01    9.51       1.0  T
   3    -41.1039957 -0.716266E-04  0.825E-02    9.50       1.0  T
   4    -41.1040113 -0.155833E-04  0.163E-02    9.51       1.4  T
   5    -41.1040115 -0.209515E-06  0.693E-03    9.51       3.3  T
   6    -41.1040116 -0.244547E-07  0.305E-03    9.51       7.5  T
   7    -41.1040116 -0.909458E-08  0.847E-04    9.51      27.1  T
   8    -41.1040116 -0.105422E-08  0.184E-04    9.51     124.7  T
speedup  1.00
cpu  time for SCC    0.00 s
wall time for SCC    0.00 s
speedup  0.96
cpu  time for grad    0.01 s
wall time for grad    0.01 s
 E :    -40.91426058  G :  0.037305    pred/act E change: -0.617D-03  0.391D-03
Maxdispl :   0.1627   ||displ|| :   0.3480   Lambda : -0.382D-02
Largest |displ|/coords:  0.1627 (   2)  0.1355 (   3)  0.1217 (   7)
................................................................................
.............................. CYCLE   45 ......................................
................................................................................
   1    -41.1096900 -0.411097E+02  0.227E-01    9.54       0.0  T
   2    -41.1097516 -0.616893E-04  0.161E-01    9.54       1.0  T
   3    -41.1097866 -0.349735E-04  0.520E-02    9.54       1.0  T
   4    -41.1097895 -0.288371E-05  0.150E-02    9.54       1.5  T
   5    -41.1097899 -0.397347E-06  0.448E-03    9.54       5.1  T
   6    -41.1097899 -0.120372E-07  0.239E-03    9.54       9.6  T
speedup  1.05
cpu  time for SCC    0.00 s
wall time for SCC    0.00 s
speedup  0.99
cpu  time for grad    0.01 s
wall time for grad    0.01 s
 E :    -40.91516054  G :  0.032879    pred/act E change: -0.779D-03 -0.900D-03
Maxdispl :   0.2563   ||displ|| :   0.3540   Lambda : -0.322D-02
Largest |displ|/coords:  0.2563 (   8)  0.1106 (  10)  0.0774 (   3)
................................................................................
.............................. CYCLE   46 ......................................
................................................................................
   1    -41.1151069 -0.411151E+02  0.282E-01    9.45       0.0  T
   2    -41.1151401 -0.331775E-04  0.214E-01    9.46       1.0  T
   3    -41.1151664 -0.262838E-04  0.433E-02    9.47       1.0  T
   4    -41.1151706 -0.420654E-05  0.164E-02    9.47       1.4  T
   5    -41.1151708 -0.241436E-06  0.428E-03    9.47       5.4  T
   6    -41.1151708 -0.888326E-08  0.239E-03    9.47       9.6  T
speedup  1.03
cpu  time for SCC    0.00 s
wall time for SCC    0.00 s
speedup  0.98
cpu  time for grad    0.01 s
wall time for grad    0.01 s
 E :    -40.91500637  G :  0.049959    pred/act E change: -0.214D-02  0.154D-03
Maxdispl :   0.1138   ||displ|| :   0.2179   Lambda : -0.265D-02
Largest |displ|/coords:  0.1138 (   2)  0.0912 (   8)  0.0794 (  10)
................................................................................
.............................. CYCLE   47 ......................................
................................................................................
   1    -41.1101775 -0.411102E+02  0.166E-01    9.49       0.0  T
   2    -41.1101945 -0.169757E-04  0.123E-01    9.49       1.0  T
   3    -41.1102063 -0.118431E-04  0.289E-02    9.49       1.0  T
   4    -41.1102081 -0.181997E-05  0.927E-03    9.49       2.5  T
   5    -41.1102082 -0.114621E-06  0.319E-03    9.49       7.2  T
   6    -41.1102083 -0.949182E-08  0.173E-03    9.49      13.3  T
speedup  1.11
cpu  time for SCC    0.00 s
wall time for SCC    0.00 s
speedup  1.00
cpu  time for grad    0.01 s
wall time for grad    0.01 s
 E :    -40.91633615  G :  0.014326    pred/act E change: -0.181D-02 -0.133D-02
Maxdispl :   0.2338   ||displ|| :   0.3302   Lambda : -0.100D-02
Largest |displ|/coords:  0.2338 (   2)  0.1049 (   7)  0.0991 (  17)
................................................................................
.............................. CYCLE   48 ......................................
................................................................................
   1    -41.1091676 -0.411092E+02  0.236E-01    9.46       0.0  T
   2    -41.1092072 -0.396746E-04  0.178E-01    9.46       1.0  T
   3    -41.1092345 -0.272353E-04  0.431E-02    9.46       1.0  T
   4    -41.1092396 -0.508692E-05  0.111E-02    9.47       2.1  T
   5    -41.1092397 -0.964491E-07  0.474E-03    9.46       4.8  T
   6    -41.1092397 -0.141518E-07  0.192E-03    9.46      12.0  T
   7    -41.1092397 -0.398600E-08  0.595E-04    9.46      38.5  T
speedup  0.93
cpu  time for SCC    0.00 s
wall time for SCC    0.00 s
speedup  1.04
cpu  time for grad    0.01 s
wall time for grad    0.01 s
 E :    -40.91615018  G :  0.023579    pred/act E change: -0.139D-02  0.186D-03
Maxdispl :   0.2466   ||displ|| :   0.3768   Lambda : -0.152D-02
Largest |displ|/coords:  0.2466 (   2)  0.1545 (   7)  0.1514 (   6)
................................................................................
.............................. CYCLE   49 ......................................
................................................................................
   1    -41.1120725 -0.411121E+02  0.184E-01    9.51       0.0  T
   2    -41.1120834 -0.108879E-04  0.138E-01    9.51       1.0  T
   3    -41.1120926 -0.924789E-05  0.221E-02    9.50       1.0  T
   4    -41.1120938 -0.121752E-05  0.852E-03    9.51       2.7  T
   5    -41.1120939 -0.664207E-07  0.274E-03    9.50       8.4  T
   6    -41.1120939 -0.683772E-08  0.147E-03    9.50      15.7  T
speedup  0.83
cpu  time for SCC    0.00 s
wall time for SCC    0.00 s
speedup  0.89
cpu  time for grad    0.01 s
wall time for grad    0.01 s
 E :    -40.91681481  G :  0.016404    pred/act E change: -0.556D-03 -0.665D-03
Maxdispl :   0.0676   ||displ|| :   0.1610   Lambda : -0.725D-03
Largest |displ|/coords:  0.0676 (   2)  0.0605 (   1)  0.0518 (  17)
................................................................................
.............................. CYCLE   50 ......................................
................................................................................
   1    -41.1103141 -0.411103E+02  0.144E-01    9.48       0.0  T
   2    -41.1103291 -0.149768E-04  0.104E-01    9.48       1.0  T
   3    -41.1103361 -0.702310E-05  0.336E-02    9.48       1.0  T
   4    -41.1103371 -0.988807E-06  0.839E-03    9.48       2.7  T
   5    -41.1103372 -0.892578E-07  0.182E-03    9.48      12.6  T
   6    -41.1103372 -0.199169E-08  0.112E-03    9.48      20.4  T
speedup  1.11
cpu  time for SCC    0.00 s
wall time for SCC    0.00 s
speedup  1.00
cpu  time for grad    0.01 s
wall time for grad    0.01 s
 E :    -40.91699751  G :  0.011121    pred/act E change: -0.871D-03 -0.183D-03
Maxdispl :   0.0858   ||displ|| :   0.1928   Lambda : -0.487D-03
Largest |displ|/coords:  0.0858 (   2)  0.0850 (   6)  0.0791 (   3)
................................................................................
.............................. CYCLE   51 ......................................
................................................................................
   1    -41.1120725 -0.411121E+02  0.939E-02    9.48       0.0  T
   2    -41.1120810 -0.853952E-05  0.707E-02    9.48       1.0  T
   3    -41.1120864 -0.540940E-05  0.187E-02    9.48       1.2  T
   4    -41.1120875 -0.101872E-05  0.520E-03    9.48       4.4  T
   5    -41.1120875 -0.364593E-07  0.193E-03    9.48      11.9  T
   6    -41.1120875 -0.220795E-08  0.938E-04    9.48      24.4  T
speedup  1.08
cpu  time for SCC    0.00 s
wall time for SCC    0.00 s
speedup  0.99
cpu  time for grad    0.01 s
wall time for grad    0.01 s
 E :    -40.91736284  G :  0.006685    pred/act E change: -0.372D-03 -0.365D-03
Maxdispl :   0.1514   ||displ|| :   0.3285   Lambda : -0.492D-03
Largest |displ|/coords:  0.1514 (   3)  0.1471 (   6)  0.1415 (   2)
................................................................................
.............................. CYCLE   52 ......................................
................................................................................
   1    -41.1113196 -0.411113E+02  0.155E-01    9.46       0.0  T
   2    -41.1113319 -0.123811E-04  0.117E-01    9.46       1.0  T
   3    -41.1113412 -0.928923E-05  0.256E-02    9.46       1.0  T
   4    -41.1113427 -0.148492E-05  0.870E-03    9.46       2.6  T
   5    -41.1113428 -0.110928E-06  0.282E-03    9.46       8.1  T
   6    -41.1113428 -0.537414E-08  0.159E-03    9.46      14.5  T
speedup  1.08
cpu  time for SCC    0.00 s
wall time for SCC    0.00 s
speedup  1.11
cpu  time for grad    0.01 s
wall time for grad    0.01 s
 E :    -40.91764633  G :  0.007686    pred/act E change: -0.253D-03 -0.283D-03
Maxdispl :   0.1485   ||displ|| :   0.2167   Lambda : -0.198D-03
Largest |displ|/coords:  0.1485 (   2)  0.0762 (   7)  0.0741 (   6)

generating ANC from model Hessian ...
 Shifting diagonal of input Hessian by   4.485410158362544E-003
 Lowest  eigenvalues of input Hessian
   -0.000000   -0.000000   -0.000000   -0.000000    0.000000    0.000000
    0.005000    0.005584    0.006612    0.007706    0.008207    0.009703
    0.010426    0.011706    0.013704    0.015904    0.018938    0.021219
 Highest eigenvalues
    1.356675    1.412452    1.422671    2.831721    3.236813    3.610133
 
cpu  time for ANC gen    0.01 s
wall time for ANC gen    0.01 s
................................................................................
.............................. CYCLE   53 ......................................
................................................................................
   1    -41.1119438 -0.411119E+02  0.111E-01    9.43       0.0  T
   2    -41.1119468 -0.306936E-05  0.827E-02    9.44       1.0  T
   3    -41.1119494 -0.251471E-05  0.158E-02    9.44       1.5  T
   4    -41.1119497 -0.346540E-06  0.480E-03    9.44       4.8  T
   5    -41.1119497 -0.273772E-07  0.149E-03    9.44      15.4  T
   6    -41.1119497 -0.166301E-08  0.873E-04    9.44      26.3  T
   7    -41.1119497 -0.986056E-09  0.224E-04    9.44     102.2  T
speedup  0.93
cpu  time for SCC    0.00 s
wall time for SCC    0.00 s
speedup  0.99
cpu  time for grad    0.01 s
wall time for grad    0.01 s
 E :    -40.91775149  G :  0.007695    pred/act E change:  0.000D+00 -0.105D-03
Maxdispl :   0.0692   ||displ|| :   0.1384   Lambda : -0.265D-03
Largest |displ|/coords:  0.0692 (   2)  0.0532 (   3)  0.0434 (   5)
................................................................................
.............................. CYCLE   54 ......................................
................................................................................
   1    -41.1116405 -0.411116E+02  0.132E-01    9.44       0.0  T
   2    -41.1116429 -0.240774E-05  0.100E-01    9.44       1.0  T
   3    -41.1116460 -0.301862E-05  0.923E-03    9.44       2.5  T
   4    -41.1116461 -0.150932E-06  0.370E-03    9.44       6.2  T
   5    -41.1116461 -0.114874E-07  0.130E-03    9.44      17.6  T
   6    -41.1116461 -0.136379E-08  0.668E-04    9.44      34.4  T
speedup  1.05
cpu  time for SCC    0.00 s
wall time for SCC    0.00 s
speedup  0.98
cpu  time for grad    0.01 s
wall time for grad    0.01 s
 E :    -40.91793454  G :  0.003659    pred/act E change:  0.000D+00 -0.183D-03
Maxdispl :   0.1251   ||displ|| :   0.1862   Lambda : -0.189D-03
Largest |displ|/coords:  0.1251 (   2)  0.0778 (   5)  0.0549 (   4)
................................................................................
.............................. CYCLE   55 ......................................
................................................................................
   1    -41.1107518 -0.411108E+02  0.155E-01    9.44       0.0  T
   2    -41.1107555 -0.369227E-05  0.118E-01    9.44       1.0  T
   3    -41.1107598 -0.429848E-05  0.118E-02    9.44       1.9  T
   4    -41.1107601 -0.306882E-06  0.411E-03    9.44       5.6  T
   5    -41.1107601 -0.137559E-07  0.170E-03    9.44      13.5  T
   6    -41.1107601 -0.233031E-08  0.792E-04    9.44      29.0  T
   7    -41.1107601 -0.136482E-08  0.187E-04    9.44     122.5  T
speedup  0.91
cpu  time for SCC    0.00 s
wall time for SCC    0.00 s
speedup  0.99
cpu  time for grad    0.01 s
wall time for grad    0.01 s
 E :    -40.91801977  G :  0.008140    pred/act E change: -0.135D-03 -0.852D-04
Maxdispl :   0.0829   ||displ|| :   0.1012   Lambda : -0.109D-03
Largest |displ|/coords:  0.0829 (   2)  0.0222 (   4)  0.0222 (   3)
................................................................................
.............................. CYCLE   56 ......................................
................................................................................
   1    -41.1114231 -0.411114E+02  0.741E-02    9.45       0.0  T
   2    -41.1114237 -0.645915E-06  0.559E-02    9.45       1.0  T
   3    -41.1114244 -0.658094E-06  0.598E-03    9.45       3.8  T
   4    -41.1114244 -0.640589E-07  0.184E-03    9.45      12.5  T
   5    -41.1114244 -0.285534E-08  0.726E-04    9.45      31.6  T
speedup  0.94
cpu  time for SCC    0.00 s
wall time for SCC    0.00 s
speedup  0.93
cpu  time for grad    0.01 s
wall time for grad    0.01 s
 E :    -40.91809362  G :  0.005480    pred/act E change: -0.977D-04 -0.739D-04
Maxdispl :   0.1039   ||displ|| :   0.1257   Lambda : -0.789D-04
Largest |displ|/coords:  0.1039 (   2)  0.0504 (   4)  0.0258 (  17)
................................................................................
.............................. CYCLE   57 ......................................
................................................................................
   1    -41.1120591 -0.411121E+02  0.854E-02    9.45       0.0  T
   2    -41.1120601 -0.104470E-05  0.642E-02    9.45       1.0  T
   3    -41.1120611 -0.951506E-06  0.738E-03    9.45       3.1  T
   4    -41.1120612 -0.124236E-06  0.180E-03    9.45      12.7  T
   5    -41.1120612 -0.282915E-08  0.932E-04    9.45      24.6  T
speedup  0.97
cpu  time for SCC    0.00 s
wall time for SCC    0.00 s
speedup  1.06
cpu  time for grad    0.01 s
wall time for grad    0.01 s
 E :    -40.91815115  G :  0.003593    pred/act E change: -0.552D-04 -0.575D-04
Maxdispl :   0.1631   ||displ|| :   0.2045   Lambda : -0.813D-04
Largest |displ|/coords:  0.1631 (   2)  0.0868 (   4)  0.0487 (   3)
................................................................................
.............................. CYCLE   58 ......................................
................................................................................
   1    -41.1118342 -0.411118E+02  0.136E-01    9.45       0.0  T
   2    -41.1118364 -0.219378E-05  0.103E-01    9.45       1.0  T
   3    -41.1118387 -0.229278E-05  0.974E-03    9.45       2.4  T
   4    -41.1118389 -0.207680E-06  0.257E-03    9.45       8.9  T
   5    -41.1118389 -0.479157E-08  0.137E-03    9.45      16.7  T
   6    -41.1118389 -0.197068E-08  0.413E-04    9.45      55.5  T
   7    -41.1118389 -0.208303E-09  0.131E-04    9.45     174.6  T
speedup  0.91
cpu  time for SCC    0.00 s
wall time for SCC    0.00 s
speedup  1.00
cpu  time for grad    0.01 s
wall time for grad    0.01 s
 E :    -40.91820741  G :  0.004228    pred/act E change: -0.401D-04 -0.563D-04
Maxdispl :   0.1246   ||displ|| :   0.1787   Lambda : -0.757D-04
Largest |displ|/coords:  0.1246 (   2)  0.0725 (   4)  0.0610 (  10)
................................................................................
.............................. CYCLE   59 ......................................
................................................................................
   1    -41.1124281 -0.411124E+02  0.108E-01    9.44       0.0  T
   2    -41.1124305 -0.239263E-05  0.808E-02    9.44       1.0  T
   3    -41.1124324 -0.184507E-05  0.107E-02    9.44       2.1  T
   4    -41.1124327 -0.326553E-06  0.252E-03    9.44       9.1  T
   5    -41.1124327 -0.516624E-08  0.125E-03    9.44      18.3  T
speedup  0.94
cpu  time for SCC    0.00 s
wall time for SCC    0.00 s
speedup  0.93
cpu  time for grad    0.01 s
wall time for grad    0.01 s
 E :    -40.91824429  G :  0.004282    pred/act E change: -0.424D-04 -0.369D-04
Maxdispl :   0.1036   ||displ|| :   0.1485   Lambda : -0.393D-04
Largest |displ|/coords:  0.1036 (   2)  0.0758 (   4)  0.0389 (  10)
................................................................................
.............................. CYCLE   60 ......................................
................................................................................
   1    -41.1113601 -0.411114E+02  0.106E-01    9.44       0.0  T
   2    -41.1113612 -0.111824E-05  0.803E-02    9.44       1.0  T
   3    -41.1113624 -0.122245E-05  0.705E-03    9.44       3.3  T
   4    -41.1113625 -0.942734E-07  0.242E-03    9.44       9.5  T
   5    -41.1113625 -0.392260E-08  0.908E-04    9.44      25.3  T
speedup  1.29
cpu  time for SCC    0.00 s
wall time for SCC    0.00 s
speedup  1.06
cpu  time for grad    0.01 s
wall time for grad    0.01 s
 E :    -40.91825785  G :  0.004961    pred/act E change: -0.390D-04 -0.136D-04
Maxdispl :   0.0318   ||displ|| :   0.0438   Lambda : -0.337D-04
Largest |displ|/coords:  0.0318 (   2)  0.0118 (   3)  0.0106 (   5)
................................................................................
.............................. CYCLE   61 ......................................
................................................................................
   1    -41.1124505 -0.411125E+02  0.326E-02    9.44       0.0  T
   2    -41.1124509 -0.391235E-06  0.246E-02    9.44       1.0  T
   3    -41.1124512 -0.313722E-06  0.440E-03    9.44       5.2  T
   4    -41.1124513 -0.500454E-07  0.131E-03    9.44      17.5  T
   5    -41.1124513 -0.200220E-08  0.461E-04    9.44      49.7  T
speedup  0.97
cpu  time for SCC    0.00 s
wall time for SCC    0.00 s
speedup  0.94
cpu  time for grad    0.01 s
wall time for grad    0.01 s
 E :    -40.91827328  G :  0.002064    pred/act E change: -0.201D-04 -0.154D-04
Maxdispl :   0.0329   ||displ|| :   0.0539   Lambda : -0.238D-04
Largest |displ|/coords:  0.0329 (   1)  0.0248 (   2)  0.0166 (   3)
................................................................................
.............................. CYCLE   62 ......................................
................................................................................
   1    -41.1126825 -0.411127E+02  0.423E-02    9.44       0.0  T
   2    -41.1126827 -0.146375E-06  0.318E-02    9.44       1.0  T
   3    -41.1126828 -0.146699E-06  0.268E-03    9.44       8.5  T
   4    -41.1126828 -0.153077E-07  0.909E-04    9.44      25.2  T
   5    -41.1126828 -0.686974E-09  0.379E-04    9.44      60.5  T
speedup  0.97
cpu  time for SCC    0.00 s
wall time for SCC    0.00 s
speedup  0.91
cpu  time for grad    0.01 s
wall time for grad    0.01 s
 E :    -40.91828557  G :  0.001679    pred/act E change: -0.169D-04 -0.123D-04
Maxdispl :   0.0433   ||displ|| :   0.0736   Lambda : -0.121D-04
Largest |displ|/coords:  0.0433 (   2)  0.0330 (   1)  0.0295 (   4)
................................................................................
.............................. CYCLE   63 ......................................
................................................................................
   1    -41.1127127 -0.411127E+02  0.493E-02    9.43       0.0  T
   2    -41.1127129 -0.224493E-06  0.370E-02    9.43       1.0  T
   3    -41.1127131 -0.171526E-06  0.403E-03    9.43       5.7  T
   4    -41.1127131 -0.316968E-07  0.110E-03    9.43      20.9  T
   5    -41.1127131 -0.141033E-08  0.425E-04    9.43      53.9  T
   6    -41.1127131 -0.771507E-10  0.211E-04    9.43     108.5  T
speedup  0.81
cpu  time for SCC    0.00 s
wall time for SCC    0.00 s
speedup  0.96
cpu  time for grad    0.01 s
wall time for grad    0.01 s
 E :    -40.91829384  G :  0.001135    pred/act E change: -0.120D-04 -0.826D-05
Maxdispl :   0.0468   ||displ|| :   0.0753   Lambda : -0.774D-05
Largest |displ|/coords:  0.0468 (   2)  0.0289 (   1)  0.0266 (   4)
................................................................................
.............................. CYCLE   64 ......................................
................................................................................
   1    -41.1127593 -0.411128E+02  0.479E-02    9.43       0.0  T
   2    -41.1127595 -0.219002E-06  0.360E-02    9.43       1.0  T
   3    -41.1127597 -0.191866E-06  0.336E-03    9.43       6.8  T
   4    -41.1127597 -0.270570E-07  0.109E-03    9.43      21.0  T
   5    -41.1127597 -0.140937E-08  0.423E-04    9.43      54.2  T
   6    -41.1127597 -0.905729E-10  0.208E-04    9.43     110.5  T
speedup  1.08
cpu  time for SCC    0.00 s
wall time for SCC    0.00 s
speedup  1.05
cpu  time for grad    0.01 s
wall time for grad    0.01 s
 E :    -40.91829854  G :  0.001586    pred/act E change: -0.610D-05 -0.470D-05
Maxdispl :   0.0297   ||displ|| :   0.0456   Lambda : -0.566D-05
Largest |displ|/coords:  0.0297 (   1)  0.0178 (   2)  0.0148 (   5)
................................................................................
.............................. CYCLE   65 ......................................
................................................................................
   1    -41.1129778 -0.411130E+02  0.303E-02    9.42       0.0  T
   2    -41.1129780 -0.131562E-06  0.227E-02    9.42       1.0  T
   3    -41.1129780 -0.951162E-07  0.255E-03    9.43       9.0  T
   4    -41.1129781 -0.194226E-07  0.828E-04    9.43      27.7  T
   5    -41.1129781 -0.104256E-08  0.307E-04    9.43      74.6  T
speedup  0.94
cpu  time for SCC    0.00 s
wall time for SCC    0.00 s
speedup  1.02
cpu  time for grad    0.01 s
wall time for grad    0.01 s
 E :    -40.91830195  G :  0.000852    pred/act E change: -0.389D-05 -0.341D-05
Maxdispl :   0.0243   ||displ|| :   0.0516   Lambda : -0.447D-05
Largest |displ|/coords:  0.0243 (   2)  0.0236 (   1)  0.0196 (   3)
................................................................................
.............................. CYCLE   66 ......................................
................................................................................
   1    -41.1130159 -0.411130E+02  0.310E-02    9.42       0.0  T
   2    -41.1130161 -0.134190E-06  0.234E-02    9.42       1.0  T
   3    -41.1130162 -0.127170E-06  0.225E-03    9.42      10.2  T
   4    -41.1130162 -0.156542E-07  0.810E-04    9.42      28.3  T
   5    -41.1130162 -0.873925E-09  0.334E-04    9.42      68.6  T
speedup  0.97
cpu  time for SCC    0.00 s
wall time for SCC    0.00 s
speedup  0.91
cpu  time for grad    0.01 s
wall time for grad    0.01 s
 E :    -40.91830470  G :  0.001023    pred/act E change: -0.284D-05 -0.275D-05
Maxdispl :   0.0223   ||displ|| :   0.0442   Lambda : -0.335D-05
Largest |displ|/coords:  0.0223 (   1)  0.0207 (   2)  0.0170 (   3)
[...]
   2    -41.1131055 -0.244547E-07  0.708E-03    9.43       3.2  T
   3    -41.1131055 -0.127751E-07  0.104E-03    9.43      22.1  T
   4    -41.1131055 -0.412609E-08  0.236E-04    9.43      97.2  T
   5    -41.1131055 -0.648726E-10  0.867E-05    9.43     264.5  T
speedup  1.29
cpu  time for SCC    0.00 s
wall time for SCC    0.00 s
speedup  1.02
cpu  time for grad    0.01 s
wall time for grad    0.01 s
 E :    -40.91830776  G :  0.000814    pred/act E change: -0.168D-05 -0.120D-05
Maxdispl :   0.0221   ||displ|| :   0.0362   Lambda : -0.221D-05
Largest |displ|/coords:  0.0221 (   1)  0.0137 (   3)  0.0126 (   6)
................................................................................
.............................. CYCLE   69 ......................................
................................................................................
   1    -41.1131294 -0.411131E+02  0.204E-02    9.43       0.0  T
   2    -41.1131295 -0.670794E-07  0.153E-02    9.43       1.5  T
   3    -41.1131296 -0.441350E-07  0.197E-03    9.43      11.7  T
   4    -41.1131296 -0.997451E-08  0.558E-04    9.43      41.1  T
   5    -41.1131296 -0.383039E-09  0.177E-04    9.43     129.7  T
speedup  0.94
cpu  time for SCC    0.00 s
wall time for SCC    0.00 s
speedup  0.91
cpu  time for grad    0.01 s
wall time for grad    0.01 s
 E :    -40.91830938  G :  0.000756    pred/act E change: -0.807D-06 -0.162D-05
Maxdispl :   0.0243   ||displ|| :   0.0383   Lambda : -0.235D-05
Largest |displ|/coords:  0.0243 (   1)  0.0156 (   6)  0.0128 (   3)
................................................................................
.............................. CYCLE   70 ......................................
................................................................................
   1    -41.1132224 -0.411132E+02  0.246E-02    9.43       0.0  T
   2    -41.1132225 -0.882151E-07  0.184E-02    9.43       1.2  T
   3    -41.1132226 -0.620309E-07  0.255E-03    9.43       9.0  T
   4    -41.1132226 -0.121457E-07  0.705E-04    9.43      32.5  T
   5    -41.1132226 -0.613774E-09  0.205E-04    9.43     111.7  T
speedup  1.25
cpu  time for SCC    0.00 s
wall time for SCC    0.00 s
speedup  1.02
cpu  time for grad    0.01 s
wall time for grad    0.01 s
 E :    -40.91831112  G :  0.000906    pred/act E change: -0.110D-05 -0.173D-05
Maxdispl :   0.0327   ||displ|| :   0.0532   Lambda : -0.261D-05
Largest |displ|/coords:  0.0327 (   1)  0.0203 (   6)  0.0194 (   3)
................................................................................
.............................. CYCLE   71 ......................................
................................................................................
   1    -41.1131969 -0.411132E+02  0.346E-02    9.43       0.0  T
   2    -41.1131970 -0.146447E-06  0.259E-02    9.43       1.0  T
   3    -41.1131972 -0.120965E-06  0.334E-03    9.43       6.9  T
   4    -41.1131972 -0.184247E-07  0.953E-04    9.43      24.1  T
   5    -41.1131972 -0.102861E-08  0.300E-04    9.43      76.4  T
speedup  0.94
cpu  time for SCC    0.00 s
wall time for SCC    0.00 s
speedup  1.02
cpu  time for grad    0.01 s
wall time for grad    0.01 s
 E :    -40.91831300  G :  0.000898    pred/act E change: -0.118D-05 -0.188D-05
Maxdispl :   0.0225   ||displ|| :   0.0482   Lambda : -0.284D-05
Largest |displ|/coords:  0.0225 (   1)  0.0194 (   6)  0.0191 (   2)
................................................................................
.............................. CYCLE   72 ......................................
................................................................................
   1    -41.1132587 -0.411133E+02  0.374E-02    9.43       0.0  T
   2    -41.1132589 -0.150836E-06  0.281E-02    9.43       1.0  T
   3    -41.1132590 -0.135151E-06  0.311E-03    9.43       7.4  T
   4    -41.1132590 -0.182061E-07  0.968E-04    9.43      23.7  T
   5    -41.1132590 -0.104502E-08  0.325E-04    9.43      70.5  T
speedup  0.94
cpu  time for SCC    0.00 s
wall time for SCC    0.00 s
speedup  1.02
cpu  time for grad    0.01 s
wall time for grad    0.01 s
 E :    -40.91831496  G :  0.000845    pred/act E change: -0.131D-05 -0.197D-05
Maxdispl :   0.0211   ||displ|| :   0.0446   Lambda : -0.259D-05
Largest |displ|/coords:  0.0211 (   5)  0.0203 (   1)  0.0185 (   3)
................................................................................
.............................. CYCLE   73 ......................................
................................................................................
   1    -41.1131548 -0.411132E+02  0.322E-02    9.42       0.0  T
   2    -41.1131549 -0.101339E-06  0.242E-02    9.42       1.0  T
   3    -41.1131551 -0.105717E-06  0.224E-03    9.42      10.2  T
   4    -41.1131551 -0.102779E-07  0.829E-04    9.42      27.7  T
   5    -41.1131551 -0.768225E-09  0.297E-04    9.42      77.3  T
speedup  0.97
cpu  time for SCC    0.00 s
wall time for SCC    0.00 s
speedup  1.03
cpu  time for grad    0.01 s
wall time for grad    0.01 s
 E :    -40.91831675  G :  0.000647    pred/act E change: -0.142D-05 -0.178D-05
Maxdispl :   0.0168   ||displ|| :   0.0253   Lambda : -0.239D-05
Largest |displ|/coords:  0.0168 (   2)  0.0094 (   5)  0.0082 (   4)
................................................................................
.............................. CYCLE   74 ......................................
................................................................................
   1    -41.1131848 -0.411132E+02  0.228E-02    9.42       0.0  T
   2    -41.1131848 -0.338225E-07  0.172E-02    9.42       1.3  T
   3    -41.1131849 -0.375757E-07  0.113E-03    9.42      20.3  T
   4    -41.1131849 -0.313609E-08  0.505E-04    9.42      45.5  T
   5    -41.1131849 -0.230465E-09  0.172E-04    9.42     133.1  T
speedup  1.21
cpu  time for SCC    0.00 s
wall time for SCC    0.00 s
speedup  1.00
cpu  time for grad    0.01 s
wall time for grad    0.01 s
 E :    -40.91831826  G :  0.000551    pred/act E change: -0.129D-05 -0.152D-05
Maxdispl :   0.0118   ||displ|| :   0.0204   Lambda : -0.132D-05
Largest |displ|/coords:  0.0118 (   3)  0.0111 (   5)  0.0055 (   6)
................................................................................
.............................. CYCLE   75 ......................................
................................................................................
   1    -41.1131482 -0.411131E+02  0.122E-02    9.42       0.0  T
   2    -41.1131482 -0.212907E-07  0.917E-03    9.42       2.5  T
   3    -41.1131482 -0.229916E-07  0.937E-04    9.42      24.5  T
   4    -41.1131482 -0.218033E-08  0.408E-04    9.42      56.2  T
speedup  1.15
cpu  time for SCC    0.00 s
wall time for SCC    0.00 s
speedup  1.08
cpu  time for grad    0.01 s
wall time for grad    0.01 s
 E :    -40.91831909  G :  0.000617    pred/act E change: -0.120D-05 -0.826D-06
Maxdispl :   0.0070   ||displ|| :   0.0116   Lambda : -0.737D-06
Largest |displ|/coords:  0.0070 (   3)  0.0051 (   5)  0.0028 (   1)
................................................................................
.............................. CYCLE   76 ......................................
................................................................................
   1    -41.1131635 -0.411132E+02  0.876E-03    9.42       0.0  T
   2    -41.1131635 -0.151843E-07  0.659E-03    9.42       3.5  T
   3    -41.1131635 -0.103908E-07  0.797E-04    9.42      28.8  T
   4    -41.1131635 -0.245792E-08  0.265E-04    9.42      86.5  T
speedup  0.80
cpu  time for SCC    0.00 s
wall time for SCC    0.00 s
speedup  0.98
cpu  time for grad    0.01 s
wall time for grad    0.01 s
 E :    -40.91831960  G :  0.000392    pred/act E change: -0.660D-06 -0.512D-06
Maxdispl :   0.0086   ||displ|| :   0.0155   Lambda : -0.452D-06
Largest |displ|/coords:  0.0086 (   3)  0.0076 (   5)  0.0049 (   6)
................................................................................
.............................. CYCLE   77 ......................................
................................................................................
   1    -41.1131851 -0.411132E+02  0.908E-03    9.42       0.0  T
   2    -41.1131851 -0.166523E-07  0.682E-03    9.42       3.4  T
   3    -41.1131851 -0.107601E-07  0.977E-04    9.42      23.5  T
   4    -41.1131851 -0.261994E-08  0.300E-04    9.42      76.6  T
speedup  1.20
cpu  time for SCC    0.00 s
wall time for SCC    0.00 s
speedup  0.98
cpu  time for grad    0.01 s
wall time for grad    0.01 s
 E :    -40.91831990  G :  0.000228    pred/act E change: -0.368D-06 -0.299D-06
Maxdispl :   0.0024   ||displ|| :   0.0047   Lambda : -0.140D-06
Largest |displ|/coords:  0.0024 (   3)  0.0020 (   5)  0.0019 (   7)
................................................................................
.............................. CYCLE   78 ......................................
................................................................................
   1    -41.1132216 -0.411132E+02  0.308E-03    9.42       0.0  T
   2    -41.1132216 -0.221738E-08  0.228E-03    9.42      10.1  T
   3    -41.1132216 -0.111012E-08  0.485E-04    9.42      47.3  T
   4    -41.1132216 -0.310372E-09  0.118E-04    9.42     193.8  T
speedup  0.77
cpu  time for SCC    0.00 s
wall time for SCC    0.00 s
speedup  0.98
cpu  time for grad    0.01 s
wall time for grad    0.01 s
 E :    -40.91832001  G :  0.000136    pred/act E change: -0.226D-06 -0.108D-06
Maxdispl :   0.0027   ||displ|| :   0.0056   Lambda : -0.900D-07
Largest |displ|/coords:  0.0027 (   5)  0.0026 (   3)  0.0021 (   7)
................................................................................
.............................. CYCLE   79 ......................................
................................................................................
   1    -41.1132474 -0.411132E+02  0.394E-03    9.42       0.0  T
   2    -41.1132474 -0.288055E-08  0.294E-03    9.42       7.8  T
   3    -41.1132474 -0.198015E-08  0.487E-04    9.42      47.1  T
   4    -41.1132474 -0.366434E-09  0.135E-04    9.42     169.4  T
speedup  0.77
cpu  time for SCC    0.00 s
wall time for SCC    0.00 s
speedup  0.96
cpu  time for grad    0.01 s
wall time for grad    0.01 s
 E :    -40.91832007  G :  0.000137    pred/act E change: -0.701D-07 -0.591D-07
Maxdispl :   0.0004   ||displ|| :   0.0011   Lambda : -0.363D-07
Largest |displ|/coords:  0.0004 (   7)  0.0004 (  13)  0.0003 (   4)

   *** GEOMETRY OPTIMIZATION CONVERGED AFTER 79 ITERATIONS ***

------------------------------------------------------------------------
 total energy gain (kcal):     -0.3568
------------------------------------------------------------------------
================
 final structure:
================
$coord
        1.79457864665052        1.98165011460861       -0.48129486982341      S 
       -0.74823539057802        2.14998556202101       -1.68995603067113      O 
        1.71789698198056       -0.00820191179259        1.43270968807856      O 
        3.76521146931692        1.58970095511957       -2.30204063424022      O 
        2.22257806614541        4.54314841484402        0.88223253233385      O 
        0.75196948112972        4.72645202737158        1.98738635509949      H 
       -2.33885139161139       -2.48598656529665        2.34105031145270      O 
       -1.96973031363548       -3.95784258287571        3.33082647094256      H 
       -0.74686654250554       -1.48120824352564        2.25036682601417      H 
       -1.99297635695173       -2.22278057488558       -2.49351700731836      O 
       -1.60781527990002       -0.17909920562128       -2.34799467934952      H 
       -2.44731115863511       -2.63978061372299       -0.67860978430383      H 
       -2.36337387563216        3.79142463445296        2.82545510425332      O 
       -2.68141042300551        2.25867985089736        3.74633707409591      H 
       -2.53517030702349        3.36687962245432        1.04997039920436      H 
        2.70016708421490       -3.23276282101790       -2.83158699879010      O 
        3.34184101185050       -3.80852339110256       -1.23232334409216      H 
       -0.19641375807991       -2.90504144666991       -2.80424321661117      H 
        3.33391205626486       -1.48669380636275       -2.98476821517129      H 
$end
 
 Bond Distances (Angstroems)
 ---------------------------
S1-O2=1.4925         S1-O3=1.4616         S1-O4=1.4349         S1-O5=1.5522         O2-S1=1.4925         O3-S1=1.4616         
O4-S1=1.4349         O5-S1=1.5522         O5-H6=0.9783         H6-O5=0.9783         O7-H8=0.9587         O7-H9=0.9974         
H8-O7=0.9587         H9-O7=0.9974         O10-H11=1.1032       O10-H12=1.0143       O10-H18=1.0302       H11-O10=1.1032       
H12-O10=1.0143       O13-H14=0.9611       O13-H15=0.9703       H14-O13=0.9611       H15-O13=0.9703       O16-H17=0.9614       
O16-H19=0.9863       H17-O16=0.9614       H18-O10=1.0302       H19-O16=0.9863       
 O  H  Rav=0.9961 sigma=0.0423  Rmin=0.9587  Rmax=1.1032    10
 S  O  Rav=1.4853 sigma=0.0437  Rmin=1.4349  Rmax=1.5522     4
 
 selected bond angles (degree)
 --------------------
O3-S1-O2=108.36                O4-S1-O2=112.09                O4-S1-O3=112.42                O5-S1-O2=106.18                
O5-S1-O3=108.12                O5-S1-O4=109.41                H6-O5-S1=104.38                H9-O7-H8=106.70                
H12-O10-H11=101.01             H18-O10-H11=100.61             H18-O10-H12=107.08             
 
 selected dihedral angles (degree)
 ---------------------------------
H6-O5-S1-O2= 54.81            H6-O5-S1-O3=298.71            H6-O5-S1-O4=175.97            
 
 CMA Distance (Angstroems)
 ---------------------------
R(CMA):  2.1945

========================================================================
 FINAL SINGLEPOINT CALCULATION ON OPTIMIZED GEOMETRY
========================================================================

 Ncao       : 52
 Nao        : 51
 Nshell     : 29
 Nel        : 64
 T(el)      :   300.0
 intcut     :    25.0
 scfconv/Eh :  0.100E-05
   qconv/e  :  0.100E-03
 intneglect :  0.100E-07
 broydamp   :      0.250
 iter      E             dE          RMSdq      gap      omega  full diag
   1    -41.1132474 -0.411132E+02  0.427E-05    9.42       0.0  T
   2    -41.1132474 -0.113687E-11  0.275E-05    9.42     833.9  T
   3    -41.1132474 -0.660805E-12  0.452E-06    9.42    5074.0  T
speedup  1.11
cpu  time for SCC    0.00 s
wall time for SCC    0.00 s

   *** convergence criteria satisfied after 3 iterations ***

          eigenvalues
 #    :          20         21         22         23         24         25         26         27
 occ. :        2.000      2.000      2.000      2.000      2.000      2.000      2.000      2.000
 eps  :       -14.563    -14.467    -14.104    -13.631    -13.095    -13.026    -12.890    -12.848
 #    :          28         29         30         31         32         33         34         35
 occ. :        2.000      2.000      2.000      2.000      2.000      0.000      0.000      0.000
 eps  :       -12.680    -12.465    -12.406    -12.356    -12.124     -2.703     -0.520     -0.381
 #    :          36         37         38         39         40         41         42         43
 occ. :        0.000      0.000      0.000      0.000      0.000      0.000      0.000      0.000
 eps  :         0.197      0.878      1.523      2.119      3.424      4.658      5.709      6.603


   #   Z            q   n(s)   n(p)   n(d)      C6AA      α(0)
   1  16 S      1.706  1.585  1.767  0.942    88.624    15.844
   2   8 O     -0.755  1.783  4.972  0.000    30.102     7.361
   3   8 O     -0.768  1.769  4.999  0.000    30.615     7.419
   4   8 O     -0.699  1.762  4.937  0.000    28.676     7.180
   5   8 O     -0.590  1.753  4.837  0.000    24.915     6.738
   6   1 H      0.381  0.619  0.000  0.000     0.514     1.122
   7   8 O     -0.623  1.750  4.872  0.000    25.738     6.847
   8   1 H      0.294  0.706  0.000  0.000     0.739     1.350
   9   1 H      0.341  0.659  0.000  0.000     0.610     1.227
  10   8 O     -0.503  1.730  4.773  0.000    22.900     6.463
  11   1 H      0.392  0.608  0.000  0.000     0.490     1.095
  12   1 H      0.380  0.620  0.000  0.000     0.524     1.138
  13   8 O     -0.606  1.743  4.863  0.000    25.335     6.793
  14   1 H      0.306  0.694  0.000  0.000     0.703     1.317
  15   1 H      0.315  0.685  0.000  0.000     0.678     1.294
  16   8 O     -0.595  1.738  4.857  0.000    25.067     6.758
  17   1 H      0.308  0.692  0.000  0.000     0.697     1.311
  18   1 H      0.380  0.620  0.000  0.000     0.524     1.138
  19   1 H      0.335  0.665  0.000  0.000     0.625     1.242

 Mol. C6AA /au·bohr⁶  :       3385.365672
 Mol. C8AA /au·bohr⁸  :      76620.173207
 Mol. α(0) /au        :         83.638719

 
 Wiberg/Mayer (AO) data. WBOs > 0.1 written file <wbo>
 largest (>0.05) Wiberg bond orders for each atom
           total WBO             WBO to atom ...
     1  S   4.821    O    4 1.389    O    3 1.275    O    2 1.146    O    5 0.965
     2  O   1.770    S    1 1.146    H   11 0.235    O    4 0.102    O    3 0.102    O    5 0.067    O   10 0.066
     3  O   1.693    S    1 1.275    O    4 0.110    O    2 0.102    H    9 0.087    O    5 0.080
     4  O   1.773    S    1 1.389    O    3 0.110    O    2 0.102    O    5 0.070    H   19 0.061
     5  O   1.995    S    1 0.965    H    6 0.778    O    3 0.080    O    4 0.070    O    2 0.067
     6  H   0.855    O    5 0.778    O   13 0.058
     7  O   1.896    H    8 0.909    H    9 0.790    H   12 0.107
     8  H   0.914    O    7 0.909
     9  H   0.884    O    7 0.790    O    3 0.087
    10  O   2.240    H   12 0.745    H   18 0.716    H   11 0.599    O    2 0.066    O   16 0.051
    11  H   0.846    O   10 0.599    O    2 0.235
    12  H   0.856    O   10 0.745    O    7 0.107
    13  O   1.870    H   14 0.900    H   15 0.865    H    6 0.058
    14  H   0.906    O   13 0.900
    15  H   0.901    O   13 0.865
    16  O   1.944    H   17 0.899    H   19 0.820    H   18 0.136    O   10 0.051
    17  H   0.905    O   16 0.899
    18  H   0.856    O   10 0.716    O   16 0.136
    19  H   0.888    O   16 0.820    O    4 0.061
 MOs/occ written to file <molden.input>
 
molecular dipole:
                 x           y           z       tot (Debye)
 q only:       -1.003      -1.697       0.569
   full:       -0.641      -1.553       1.027       5.003
molecular quadrupole (traceless):
                xx          xy          yy          xz          yz          zz
 q only:       -4.075      -2.073       3.399       2.950      -0.972       0.676
  q+dip:       -3.916      -2.098       3.854       3.032      -5.189       0.062
   full:       -4.220      -1.917       4.201       3.001      -5.171       0.019

SCC energy    :     -41.1132474
rep           :       0.1948381
ES            :       0.1994073
AES           :      -0.0546438
AXC           :      -0.0111348
disp          :      -0.0143900
XB            :       0.0000000
fix           :       0.0000000
total E       :     -40.9183201
atomizationE  :       3.7125073     2329.63
(atE without considering molecular charge,
 total energy contains solvation terms)
H-L gap (eV)  :          9.4214
optimized geometry written to: xtbopt.xyz


------------------------------------------------------------------------
 * finished run on 2019/09/03 at 07:57:37.647     
------------------------------------------------------------------------
 total:
 * wall-time:     0 d,  0 h,  0 min,  1.300 sec
 *  cpu-time:     0 d,  0 h,  0 min,  1.275 sec
 * ratio c/w:     0.980 speedup
 SCF:
 * wall-time:     0 d,  0 h,  0 min,  0.107 sec
 *  cpu-time:     0 d,  0 h,  0 min,  0.102 sec
 * ratio c/w:     0.953 speedup
 ANC optimizer:
 * wall-time:     0 d,  0 h,  0 min,  1.167 sec
 *  cpu-time:     0 d,  0 h,  0 min,  1.149 sec
 * ratio c/w:     0.984 speedup

