      -----------------------------------------------------------      
     |                   =====================                   |     
     |                           x T B                           |     
     |                   =====================                   |     
     |                         S. Grimme                         |     
     |          Mulliken Center for Theoretical Chemistry        |     
     |                    University of Bonn                     |     
     |                 Version 6.0.1 (SAW181210)                 |     
      -----------------------------------------------------------      

   This program is distributed in the hope that it will be useful,
   but WITHOUT ANY WARRANTY; without even the implied warranty of
   MERCHANTABILITY or FITNESS FOR A PARTICULAR PURPOSE.
   
   FOR NON-COMMERCIAL, ACADEMIA USE ONLY.
   
   Cite this work as:
   S. Grimme, C. Bannwarth, P. Shushkov, J. Comput. Theory Chem., 2017,
   13, 1989-2009.
   C. Bannwarth, S. Ehlert and S. Grimme., ChemRxiv, 2018, preprint.
   http://doi.org/10.26434/chemrxiv.7246238.v1
   
   for sTDA-xTB:
   S. Grimme and C. Bannwarth, J. Chem. Phys., 2016, 145, 054103.
   
   in the mass-spec context:
   V. Asgeirsson, C. Bauer and S. Grimme, Chem. Sci., 2017, 8, 4879.
   
   if GBSA is used:
   P. Shushkov, F. März and S. Grimme, unpublished.
   
   for ANC optimizer:
   S. Grimme, unpublished.
   Rational Function algorithm used in ANCopt:
   F. Eckert, P. Pulay, H.-J. Werner, J. Comput. Chem., 1997, 18, 1473.
   
   with help from (in alphabetical order)
   C. Bannwarth, F. Bohle, G. Brandenburg, E. Caldeweyher, M. Checinski,
   S. Dohm, S. Ehlert, S. Ehrlich, F. März, H. Neugebauer, J. Pisarek,
   P. Pracht, P. Shushkov, and S. Spicher.
   
 * started run on 2019/09/03 at 08:04:52.808     
========================================================================
 # omp threads = 1
========================================================================
number of atoms            : 19
number of electrons        : 64
charge                     : 0
spin                       : .0
first test random number   : .3394

########################################################################
# WARNING! Please study the warnings concerning your input carefully
#  - XTBPATH is not set, using XTBHOME instead
#  - the use of '-opt' is discouraged, please use '--opt' next time
#  - the use of '-chrg' is discouraged, please use '--chrg' next time
#  - the use of '-uhf' is discouraged, please use '--uhf' next time
########################################################################

           ------------------------------------------------- 
          |                 G F N 2 - x T B                 |
          | Geometry, Frequencies, Noncovalent interactions |
          |            JCTC 2018 parametrisation            |
           ------------------------------------------------- 
      method parameters     
 k(s)        :  1.8500
 k(p)        :  2.2300
 k(d)        :  2.2300
 k(f)        :  2.0000
 kEN (H0ij)  : -2.0000
 D4 a1       :  0.5200
 D4 a2       :  5.0000
 D4 s6       :  1.0000
 D4 s8       :  2.7000
 D4 s9       :  5.0000
 alphaj      :  2.0000


            Z     q(EN)     CN     RAES       Cart. coordinates
     1  S   6.0    0.64    4.28    4.20     0.46186     3.52379    -1.50657
     2  O   6.0   -0.32    1.20    1.80     0.13690     0.96958    -2.64610
     3  O   6.0   -0.31    1.24    1.80    -1.90975     4.27072    -0.18534
     4  O   6.0   -0.28    1.15    1.80     2.58633     3.46417     0.34037
     5  O   6.0   -0.24    2.08    1.84     1.02614     5.36515    -3.50745
     6  H   1.0    0.15    1.21    1.47    -0.34220     5.40420    -4.69792
     7  O   6.0   -0.29    2.08    1.84    -2.09674    -2.58412     0.37016
     8  H   1.0    0.17    1.02    1.43    -1.32968    -1.69777    -1.02290
     9  H   1.0    0.17    1.03    1.43    -0.93269    -3.91929     0.79080
    10  O   6.0   -0.28    2.01    1.83     1.83700    -5.55557     1.42428
    11  H   1.0    0.16    1.04    1.44     2.88596    -4.15485     0.92199
    12  H   1.0    0.15    0.97    1.43     2.99199    -6.91270     1.79683
    13  O   6.0   -0.28    2.03    1.83     4.17737    -1.47383    -0.28648
    14  H   1.0    0.17    1.00    1.43     4.38068     0.12769     0.55520
    15  H   1.0    0.17    1.01    1.43     3.05144    -1.14627    -1.67918
    16  O   6.0   -0.21    2.88    2.50    -4.16210     1.10546     2.73186
    17  H   1.0    0.12    0.96    1.42    -6.01593     1.13001     2.50262
    18  H   1.0    0.15    1.07    1.44    -3.40633    -0.50276     2.15524
    19  H   1.0    0.16    1.08    1.44    -3.34025     2.58638     1.94260

  Z AO/shell   Hii/eV     exponent
  1     Wed Apr 25 08:07:45 CEST 2018   EN: 2.200 GM2: 0.406  GM3: 0.0800  RAES: 1.40
     1s    -10.707211    1.230000
  8     Wed Apr 25 08:07:45 CEST 2018   EN: 3.440 GM2: 0.452  GM3:-0.0517  RAES: 1.80
     2s    -20.229985    2.439742
     2p    -15.503117    2.137023
 16     Tue Apr 24 11:44:34 CEST 2018   EN: 2.580 GM2: 0.340  GM3:-0.0502  RAES: 3.10
     3s    -20.029654    1.981333
     3p    -11.377694    2.025643
     3d     -0.420282    1.702555
 no old-style atom pair restraining (fixing) potential

molecular fragmentation (1/2 indicates fragments):
1111112222222222222
# atoms in fragment 1/2:     6    13
 fragment masses (1/2) :       97.07       73.07
CMA distance (Bohr)    :   6.187
constraining FC (au)   :  0.0500
           ------------------------------------------------- 
          |        Self-Consistent Charge Iterations        |
           ------------------------------------------------- 

 Ncao       : 52
 Nao        : 51
 Nshell     : 29
 Nel        : 64
 T(el)      :   300.0
 intcut     :    25.0
 scfconv/Eh :  0.100E-05
   qconv/e  :  0.100E-03
 intneglect :  0.100E-07
 broydamp   :      0.250
 iter      E             dE          RMSdq      gap      omega  full diag
   1    -41.0076957 -0.410077E+02  0.767E+00   10.57       0.0  T
   2    -41.0478153 -0.401196E-01  0.554E+00   10.00       1.0  T
   3    -41.0792272 -0.314119E-01  0.146E+00    8.36       1.0  T
   4    -41.0834745 -0.424731E-02  0.624E-01    8.43       1.0  T
   5    -41.0841366 -0.662134E-03  0.347E-01    8.32       1.0  T
   6    -41.0845208 -0.384127E-03  0.155E-01    8.33       1.0  T
   7    -41.0846185 -0.977901E-04  0.611E-02    8.40       1.0  T
   8    -41.0846333 -0.147562E-04  0.288E-02    8.40       1.0  T
   9    -41.0846358 -0.252113E-05  0.162E-02    8.40       1.4  T
  10    -41.0846371 -0.131623E-05  0.262E-03    8.39       8.7  T
  11    -41.0846372 -0.166379E-07  0.114E-03    8.39      20.1  T
  12    -41.0846372 -0.419226E-08  0.491E-04    8.39      46.7  T
  13    -41.0846372 -0.898105E-09  0.126E-04    8.39     182.7  T
speedup  1.12
cpu  time for SCC    0.01 s
wall time for SCC    0.01 s

   *** convergence criteria satisfied after 13 iterations ***

          eigenvalues
 #    :          20         21         22         23         24         25         26         27
 occ. :        2.000      2.000      2.000      2.000      2.000      2.000      2.000      2.000
 eps  :       -13.403    -13.065    -12.960    -12.766    -12.129    -12.000    -11.587    -11.558
 #    :          28         29         30         31         32         33         34         35
 occ. :        2.000      2.000      2.000      2.000      2.000      0.000      0.000      0.000
 eps  :       -11.453    -11.223    -11.135    -10.881    -10.656     -2.262     -1.152      0.026
 #    :          36         37         38         39         40         41         42         43
 occ. :        0.000      0.000      0.000      0.000      0.000      0.000      0.000      0.000
 eps  :         1.133      1.316      1.688      3.761      3.990      4.621      5.944      7.589


   #   Z            q   n(s)   n(p)   n(d)      C6AA      α(0)
   1  16 S      1.580  1.584  1.851  0.985    91.535    16.103
   2   8 O     -0.767  1.776  4.991  0.000    30.603     7.417
   3   8 O     -0.770  1.768  5.002  0.000    30.695     7.428
   4   8 O     -0.714  1.775  4.938  0.000    29.082     7.230
   5   8 O     -0.537  1.721  4.817  0.000    23.706     6.573
   6   1 H      0.355  0.645  0.000  0.000     0.569     1.180
   7   8 O     -0.640  1.732  4.908  0.000    26.163     6.904
   8   1 H      0.328  0.672  0.000  0.000     0.644     1.260
   9   1 H      0.344  0.656  0.000  0.000     0.603     1.219
  10   8 O     -0.626  1.741  4.885  0.000    25.810     6.857
  11   1 H      0.331  0.669  0.000  0.000     0.634     1.251
  12   1 H      0.276  0.724  0.000  0.000     0.797     1.403
  13   8 O     -0.609  1.731  4.878  0.000    25.402     6.802
  14   1 H      0.313  0.687  0.000  0.000     0.683     1.298
  15   1 H      0.306  0.694  0.000  0.000     0.703     1.317
  16   8 O     -0.397  1.642  4.756  0.000    20.744     6.151
  17   1 H      0.379  0.621  0.000  0.000     0.524     1.138
  18   1 H      0.425  0.575  0.000  0.000     0.442     1.044
  19   1 H      0.423  0.577  0.000  0.000     0.444     1.047

 Mol. C6AA /au·bohr⁶  :       3380.602284
 Mol. C8AA /au·bohr⁸  :      76758.535375
 Mol. α(0) /au        :         83.621546

 
 Wiberg/Mayer (AO) data. WBOs > 0.1 written file <wbo>
 largest (>0.05) Wiberg bond orders for each atom
           total WBO             WBO to atom ...
     1  S   4.939    O    4 1.378    O    2 1.284    O    3 1.249    O    5 1.000
     2  O   1.671    S    1 1.284    O    4 0.118    O    3 0.110    O    5 0.073
     3  O   1.688    S    1 1.249    O    4 0.113    H   19 0.110    O    2 0.110    O    5 0.067
     4  O   1.712    S    1 1.378    O    2 0.118    O    3 0.113    O    5 0.058
     5  O   2.053    S    1 1.000    H    6 0.850    O    2 0.073    O    3 0.067    O    4 0.058
     6  H   0.874    O    5 0.850
     7  O   1.891    H    8 0.850    H    9 0.835    H   18 0.118
     8  H   0.893    O    7 0.850
     9  H   0.882    O    7 0.835
    10  O   1.822    H   12 0.911    H   11 0.829
    11  H   0.890    O   10 0.829    O   13 0.060
    12  H   0.924    O   10 0.911
    13  O   1.869    H   15 0.881    H   14 0.876    H   11 0.060
    14  H   0.902    O   13 0.876
    15  H   0.906    O   13 0.881
    16  O   2.337    H   17 0.851    H   19 0.703    H   18 0.697
    17  H   0.856    O   16 0.851
    18  H   0.820    O   16 0.697    O    7 0.118
    19  H   0.821    O   16 0.703    O    3 0.110
 MOs/occ written to file <molden.input>
 
molecular dipole:
                 x           y           z       tot (Debye)
 q only:       -2.931      -0.504       0.814
   full:       -2.674       0.024       0.035       6.799
molecular quadrupole (traceless):
                xx          xy          yy          xz          yz          zz
 q only:        8.964     -10.274     -11.109      -7.408      -4.923       2.145
  q+dip:        7.171     -11.915      -8.761      -5.884      -8.492       1.590
   full:        7.033     -12.032      -8.498      -5.724      -9.057       1.465

SCC energy    :     -41.0846372
rep           :       0.2164550
ES            :       0.2459781
AES           :      -0.0543017
AXC           :      -0.0110220
disp          :      -0.0122515
XB            :       0.0000000
fix           :       0.0000000
total E       :     -40.8680934
atomizationE  :       3.6622806     2298.12
(atE without considering molecular charge,
 total energy contains solvation terms)
H-L gap (eV)  :          8.3943
           ------------------------------------------------- 
          |                 ===============                 |
          |                   A N C O P T                   |
          |                 ===============                 |
          |          Approximate Normal Coordinate          |
          |           Rational Function Optimizer           |
           ------------------------------------------------- 
dumping coords to <xtbopt.coord> and <xtbopt.log>
 optlevel               2
 Maxcycle             380
 Maxmicro              25
 Econv         1.000000000000000E-007
 Gconv         2.000000000000000E-004
 Maxdispl       1.00000000000000     
 Hlow          5.000000000000000E-003
 S6             20.0000000000000     
 Nvar               51

generating ANC from model Hessian ...
 Shifting diagonal of input Hessian by   5.013178937917920E-003
 Lowest  eigenvalues of input Hessian
    0.005000   -0.000000   -0.000000   -0.000000   -0.000000   -0.000000
    0.000000    0.005303    0.005637    0.006163    0.006560    0.007208
    0.008418    0.010202    0.010532    0.011881    0.013940    0.014861
 Highest eigenvalues
    1.451041    1.549910    1.563336    3.138809    3.210028    3.312443
 
cpu  time for ANC gen    0.00 s
wall time for ANC gen    0.01 s
................................................................................
.............................. CYCLE    1 ......................................
................................................................................
   1    -41.0846372 -0.410846E+02  0.837E-05    8.39       0.0  T
   2    -41.0846372 -0.905942E-11  0.668E-05    8.39     343.6  T
   3    -41.0846372 -0.117879E-10  0.289E-05    8.39     793.8  T
speedup  1.00
cpu  time for SCC    0.00 s
wall time for SCC    0.00 s
speedup  0.95
cpu  time for grad    0.01 s
wall time for grad    0.01 s
 E :    -40.86809341  G :  0.178037    pred/act E change:  0.000D+00  0.330D-07
Maxdispl :   0.1833   ||displ|| :   0.3873   Lambda : -0.222D-01
Largest |displ|/coords:  0.1833 (  21)  0.1812 (  20)  0.1332 (  18)
................................................................................
.............................. CYCLE    2 ......................................
................................................................................
   1    -41.0933463 -0.410933E+02  0.395E-01    8.68       0.0  T
   2    -41.0935385 -0.192216E-03  0.300E-01    8.75       1.0  T
   3    -41.0936251 -0.865543E-04  0.965E-02    8.88       1.0  T
   4    -41.0936454 -0.203328E-04  0.253E-02    8.87       1.0  T
   5    -41.0936466 -0.118501E-05  0.690E-03    8.86       3.3  T
   6    -41.0936467 -0.541669E-07  0.408E-03    8.86       5.6  T
   7    -41.0936467 -0.346781E-07  0.163E-03    8.86      14.1  T
speedup  1.14
cpu  time for SCC    0.01 s
wall time for SCC    0.00 s
speedup  1.06
cpu  time for grad    0.01 s
wall time for grad    0.01 s
 E :    -40.88675202  G :  0.119897    pred/act E change:  0.000D+00 -0.187D-01
Maxdispl :   0.1971   ||displ|| :   0.3787   Lambda : -0.144D-01
Largest |displ|/coords:  0.1971 (  21)  0.1269 (  18)  0.1198 (  22)
................................................................................
.............................. CYCLE    3 ......................................
................................................................................
   1    -41.1004450 -0.411004E+02  0.303E-01    9.01       0.0  T
   2    -41.1006894 -0.244371E-03  0.230E-01    9.06       1.0  T
   3    -41.1008049 -0.115543E-03  0.105E-01    9.13       1.0  T
   4    -41.1008148 -0.993596E-05  0.257E-02    9.14       1.0  T
   5    -41.1008159 -0.109951E-05  0.806E-03    9.14       2.8  T
   6    -41.1008160 -0.852200E-07  0.422E-03    9.13       5.4  T
   7    -41.1008160 -0.351253E-07  0.172E-03    9.13      13.3  T
speedup  0.91
cpu  time for SCC    0.00 s
wall time for SCC    0.00 s
speedup  0.93
cpu  time for grad    0.01 s
wall time for grad    0.01 s
 E :    -40.89840117  G :  0.076936    pred/act E change: -0.128D-01 -0.116D-01
Maxdispl :   0.1346   ||displ|| :   0.3266   Lambda : -0.728D-02
Largest |displ|/coords:  0.1346 (  18)  0.1143 (   9)  0.1105 (  21)
................................................................................
.............................. CYCLE    4 ......................................
................................................................................
   1    -41.1032824 -0.411033E+02  0.256E-01    9.13       0.0  T
   2    -41.1034706 -0.188157E-03  0.191E-01    9.12       1.0  T
   3    -41.1035589 -0.883300E-04  0.848E-02    9.11       1.0  T
   4    -41.1035667 -0.781190E-05  0.211E-02    9.11       1.1  T
   5    -41.1035673 -0.588073E-06  0.681E-03    9.11       3.4  T
   6    -41.1035673 -0.564213E-07  0.350E-03    9.11       6.5  T
   7    -41.1035674 -0.210585E-07  0.128E-03    9.11      18.0  T
speedup  1.14
cpu  time for SCC    0.00 s
wall time for SCC    0.00 s
speedup  1.06
cpu  time for grad    0.01 s
wall time for grad    0.01 s
 E :    -40.90393826  G :  0.044716    pred/act E change: -0.826D-02 -0.554D-02
Maxdispl :   0.1917   ||displ|| :   0.4469   Lambda : -0.563D-02
Largest |displ|/coords:  0.1917 (   7)  0.1761 (   5)  0.1660 (   1)
................................................................................
.............................. CYCLE    5 ......................................
................................................................................
   1    -41.1005711 -0.411006E+02  0.478E-01    8.98       0.0  T
   2    -41.1008580 -0.286863E-03  0.361E-01    8.98       1.0  T
   3    -41.1009823 -0.124370E-03  0.112E-01    8.98       1.0  T
   4    -41.1010140 -0.316294E-04  0.294E-02    8.98       1.0  T
   5    -41.1010155 -0.156409E-05  0.922E-03    8.98       2.5  T
   6    -41.1010156 -0.849951E-07  0.468E-03    8.98       4.9  T
   7    -41.1010156 -0.337616E-07  0.163E-03    8.98      14.1  T
speedup  0.91
cpu  time for SCC    0.00 s
wall time for SCC    0.00 s
speedup  0.94
cpu  time for grad    0.01 s
wall time for grad    0.01 s
 E :    -40.90647429  G :  0.032254    pred/act E change: -0.403D-02 -0.254D-02
Maxdispl :   0.3799   ||displ|| :   0.5639   Lambda : -0.649D-02
Largest |displ|/coords:  0.3799 (   4)  0.2072 (   1)  0.1773 (  14)
................................................................................
.............................. CYCLE    6 ......................................
................................................................................
   1    -41.1062282 -0.411062E+02  0.786E-01    8.72       0.0  T
   2    -41.1066915 -0.463328E-03  0.593E-01    8.71       1.0  T
   3    -41.1069005 -0.208926E-03  0.137E-01    8.68       1.0  T
   4    -41.1069743 -0.738505E-04  0.327E-02    8.70       1.0  T
   5    -41.1069759 -0.159166E-05  0.121E-02    8.71       1.9  T
   6    -41.1069760 -0.108086E-06  0.586E-03    8.71       3.9  T
   7    -41.1069760 -0.356043E-07  0.186E-03    8.71      12.3  T
speedup  0.91
cpu  time for SCC    0.00 s
wall time for SCC    0.00 s
speedup  0.94
cpu  time for grad    0.01 s
wall time for grad    0.01 s
 E :    -40.90506326  G :  0.050114    pred/act E change: -0.338D-02  0.141D-02
Maxdispl :   0.1405   ||displ|| :   0.3962   Lambda : -0.688D-02
Largest |displ|/coords:  0.1405 (   4)  0.1314 (  18)  0.1291 (   7)
................................................................................
.............................. CYCLE    7 ......................................
................................................................................
   1    -41.1027157 -0.411027E+02  0.542E-01    8.91       0.0  T
   2    -41.1030269 -0.311209E-03  0.410E-01    8.91       1.0  T
   3    -41.1031548 -0.127923E-03  0.114E-01    8.92       1.0  T
   4    -41.1031947 -0.398640E-04  0.305E-02    8.92       1.0  T
   5    -41.1031960 -0.136192E-05  0.786E-03    8.92       2.9  T
   6    -41.1031961 -0.628092E-07  0.464E-03    8.92       4.9  T
   7    -41.1031961 -0.308613E-07  0.153E-03    8.92      15.0  T
speedup  0.93
cpu  time for SCC    0.00 s
wall time for SCC    0.00 s
speedup  0.96
cpu  time for grad    0.01 s
wall time for grad    0.01 s
 E :    -40.90755566  G :  0.016318    pred/act E change: -0.428D-02 -0.249D-02
Maxdispl :   0.1410   ||displ|| :   0.2362   Lambda : -0.111D-02
Largest |displ|/coords:  0.1410 (   1)  0.1100 (   3)  0.0685 (   6)
................................................................................
.............................. CYCLE    8 ......................................
................................................................................
   1    -41.1039934 -0.411040E+02  0.149E-01    8.87       0.0  T
   2    -41.1040154 -0.219512E-04  0.111E-01    8.88       1.0  T
   3    -41.1040251 -0.972229E-05  0.286E-02    8.89       1.0  T
   4    -41.1040278 -0.274691E-05  0.817E-03    8.89       2.8  T
   5    -41.1040279 -0.799252E-07  0.258E-03    8.89       8.9  T
   6    -41.1040279 -0.580034E-08  0.141E-03    8.89      16.3  T
speedup  1.08
cpu  time for SCC    0.00 s
wall time for SCC    0.00 s
speedup  1.01
cpu  time for grad    0.01 s
wall time for grad    0.01 s
 E :    -40.90824591  G :  0.006352    pred/act E change: -0.398D-02 -0.690D-03
Maxdispl :   0.2070   ||displ|| :   0.3482   Lambda : -0.763D-03
Largest |displ|/coords:  0.2070 (   1)  0.1322 (   3)  0.1074 (  14)
................................................................................
.............................. CYCLE    9 ......................................
................................................................................
   1    -41.1018336 -0.411018E+02  0.243E-01    8.87       0.0  T
   2    -41.1018623 -0.286541E-04  0.183E-01    8.87       1.0  T
   3    -41.1018777 -0.154384E-04  0.342E-02    8.88       1.0  T
   4    -41.1018825 -0.475331E-05  0.861E-03    8.88       2.7  T
   5    -41.1018826 -0.717437E-07  0.320E-03    8.88       7.2  T
   6    -41.1018826 -0.736225E-08  0.169E-03    8.88      13.6  T
   7    -41.1018826 -0.295066E-08  0.477E-04    8.88      48.1  T
speedup  0.91
cpu  time for SCC    0.00 s
wall time for SCC    0.00 s
speedup  0.95
cpu  time for grad    0.01 s
wall time for grad    0.01 s
 E :    -40.90868493  G :  0.015814    pred/act E change: -0.588D-03 -0.439D-03
Maxdispl :   0.2377   ||displ|| :   0.3530   Lambda : -0.739D-03
Largest |displ|/coords:  0.2377 (   1)  0.1022 (   6)  0.0986 (   7)
................................................................................
.............................. CYCLE   10 ......................................
................................................................................
   1    -41.1031937 -0.411032E+02  0.170E-01    8.88       0.0  T
   2    -41.1032097 -0.160674E-04  0.128E-01    8.89       1.0  T
   3    -41.1032177 -0.800335E-05  0.260E-02    8.91       1.0  T
   4    -41.1032203 -0.255208E-05  0.601E-03    8.91       3.8  T
   5    -41.1032203 -0.364544E-07  0.233E-03    8.91       9.8  T
   6    -41.1032203 -0.328245E-08  0.117E-03    8.91      19.6  T
speedup  1.08
cpu  time for SCC    0.00 s
wall time for SCC    0.00 s
speedup  1.01
cpu  time for grad    0.01 s
wall time for grad    0.01 s
 E :    -40.90895499  G :  0.016907    pred/act E change: -0.428D-03 -0.270D-03
Maxdispl :   0.0656   ||displ|| :   0.1461   Lambda : -0.534D-03
Largest |displ|/coords:  0.0656 (   1)  0.0611 (   2)  0.0511 (   4)
................................................................................
.............................. CYCLE   11 ......................................
................................................................................
   1    -41.1042854 -0.411043E+02  0.113E-01    8.94       0.0  T
   2    -41.1042935 -0.805234E-05  0.842E-02    8.94       1.0  T
   3    -41.1042985 -0.507800E-05  0.189E-02    8.95       1.2  T
   4    -41.1042996 -0.102031E-05  0.566E-03    8.95       4.1  T
   5    -41.1042996 -0.424752E-07  0.201E-03    8.95      11.4  T
   6    -41.1042996 -0.306971E-08  0.103E-03    8.95      22.2  T
speedup  1.05
cpu  time for SCC    0.00 s
wall time for SCC    0.00 s
speedup  1.00
cpu  time for grad    0.01 s
wall time for grad    0.01 s
 E :    -40.90924866  G :  0.010934    pred/act E change: -0.415D-03 -0.294D-03
Maxdispl :   0.1825   ||displ|| :   0.2755   Lambda : -0.792D-03
Largest |displ|/coords:  0.1825 (   3)  0.0858 (   1)  0.0794 (  16)
................................................................................
.............................. CYCLE   12 ......................................
................................................................................
   1    -41.1011898 -0.411012E+02  0.249E-01    9.02       0.0  T
   2    -41.1012455 -0.557738E-04  0.187E-01    9.04       1.0  T
   3    -41.1012687 -0.231971E-04  0.474E-02    9.07       1.0  T
   4    -41.1012764 -0.765163E-05  0.135E-02    9.06       1.7  T
   5    -41.1012766 -0.269847E-06  0.419E-03    9.06       5.5  T
   6    -41.1012767 -0.168667E-07  0.235E-03    9.06       9.8  T
   7    -41.1012767 -0.682375E-08  0.674E-04    9.06      34.0  T
speedup  0.91
cpu  time for SCC    0.00 s
wall time for SCC    0.00 s
speedup  1.05
cpu  time for grad    0.01 s
wall time for grad    0.01 s
 E :    -40.90933664  G :  0.019772    pred/act E change: -0.273D-03 -0.880D-04
Maxdispl :   0.0834   ||displ|| :   0.1368   Lambda : -0.542D-03
Largest |displ|/coords:  0.0834 (   1)  0.0615 (   3)  0.0491 (   5)
................................................................................
.............................. CYCLE   13 ......................................
................................................................................
   1    -41.1045694 -0.411046E+02  0.107E-01    9.04       0.0  T
   2    -41.1045805 -0.110400E-04  0.802E-02    9.04       1.0  T
   3    -41.1045863 -0.579796E-05  0.216E-02    9.03       1.1  T
   4    -41.1045876 -0.134994E-05  0.652E-03    9.03       3.5  T
   5    -41.1045877 -0.694859E-07  0.232E-03    9.03       9.9  T
   6    -41.1045877 -0.445273E-08  0.114E-03    9.03      20.2  T
speedup  0.77
cpu  time for SCC    0.00 s
wall time for SCC    0.00 s
speedup  0.99
cpu  time for grad    0.01 s
wall time for grad    0.01 s
 E :    -40.90958304  G :  0.005235    pred/act E change: -0.426D-03 -0.246D-03
Maxdispl :   0.0863   ||displ|| :   0.1708   Lambda : -0.229D-03
Largest |displ|/coords:  0.0863 (   6)  0.0813 (   1)  0.0599 (   2)
................................................................................
.............................. CYCLE   14 ......................................
................................................................................
   1    -41.1017482 -0.411017E+02  0.132E-01    9.03       0.0  T
   2    -41.1017600 -0.117841E-04  0.999E-02    9.04       1.0  T
   3    -41.1017677 -0.766457E-05  0.211E-02    9.05       1.1  T
   4    -41.1017695 -0.181384E-05  0.548E-03    9.05       4.2  T
   5    -41.1017695 -0.344715E-07  0.211E-03    9.05      10.9  T
   6    -41.1017695 -0.314487E-08  0.105E-03    9.05      21.7  T
speedup  0.79
cpu  time for SCC    0.00 s
wall time for SCC    0.00 s
speedup  1.00
cpu  time for grad    0.01 s
wall time for grad    0.01 s
 E :    -40.90957366  G :  0.010847    pred/act E change: -0.276D-03  0.938D-05
Maxdispl :   0.0337   ||displ|| :   0.0688   Lambda : -0.232D-03
Largest |displ|/coords:  0.0337 (   6)  0.0291 (   3)  0.0233 (   2)
................................................................................
.............................. CYCLE   15 ......................................
................................................................................
   1    -41.1036442 -0.411036E+02  0.634E-02    9.06       0.0  T
   2    -41.1036472 -0.299493E-05  0.473E-02    9.06       1.0  T
   3    -41.1036487 -0.146972E-05  0.105E-02    9.05       2.2  T
   4    -41.1036491 -0.424450E-06  0.306E-03    9.06       7.5  T
   5    -41.1036491 -0.142690E-07  0.110E-03    9.06      20.8  T
   6    -41.1036491 -0.118806E-08  0.524E-04    9.06      43.8  T
speedup  0.79
cpu  time for SCC    0.00 s
wall time for SCC    0.00 s
speedup  0.89
cpu  time for grad    0.01 s
wall time for grad    0.01 s
 E :    -40.90970746  G :  0.005944    pred/act E change: -0.118D-03 -0.134D-03
Maxdispl :   0.0345   ||displ|| :   0.0713   Lambda : -0.874D-04
Largest |displ|/coords:  0.0345 (   1)  0.0314 (  12)  0.0222 (   4)
................................................................................
.............................. CYCLE   16 ......................................
................................................................................
   1    -41.1033829 -0.411034E+02  0.585E-02    9.05       0.0  T
   2    -41.1033846 -0.177240E-05  0.443E-02    9.05       1.0  T
   3    -41.1033854 -0.772623E-06  0.862E-03    9.06       2.7  T
   4    -41.1033857 -0.311163E-06  0.228E-03    9.06      10.1  T
   5    -41.1033857 -0.123370E-07  0.830E-04    9.06      27.6  T
speedup  0.94
cpu  time for SCC    0.00 s
wall time for SCC    0.00 s
speedup  1.07
cpu  time for grad    0.01 s
wall time for grad    0.01 s
 E :    -40.90976301  G :  0.005372    pred/act E change: -0.116D-03 -0.555D-04
Maxdispl :   0.0543   ||displ|| :   0.1228   Lambda : -0.126D-03
Largest |displ|/coords:  0.0543 (   4)  0.0432 (  14)  0.0413 (  15)
................................................................................
.............................. CYCLE   17 ......................................
................................................................................
   1    -41.1036251 -0.411036E+02  0.109E-01    9.06       0.0  T
   2    -41.1036295 -0.437407E-05  0.827E-02    9.06       1.0  T
   3    -41.1036329 -0.336916E-05  0.143E-02    9.08       1.6  T
   4    -41.1036335 -0.631702E-06  0.507E-03    9.08       4.5  T
   5    -41.1036336 -0.362634E-07  0.153E-03    9.08      15.0  T
   6    -41.1036336 -0.212074E-08  0.869E-04    9.07      26.4  T
speedup  0.81
cpu  time for SCC    0.00 s
wall time for SCC    0.00 s
speedup  0.90
cpu  time for grad    0.01 s
wall time for grad    0.01 s
 E :    -40.90985281  G :  0.006916    pred/act E change: -0.439D-04 -0.898D-04
Maxdispl :   0.0730   ||displ|| :   0.1616   Lambda : -0.142D-03
Largest |displ|/coords:  0.0730 (   4)  0.0585 (   1)  0.0507 (  14)
................................................................................
.............................. CYCLE   18 ......................................
................................................................................
   1    -41.1028625 -0.411029E+02  0.138E-01    9.06       0.0  T
   2    -41.1028713 -0.880561E-05  0.105E-01    9.07       1.0  T
   3    -41.1028782 -0.698571E-05  0.206E-02    9.09       1.1  T
   4    -41.1028794 -0.119178E-05  0.721E-03    9.09       3.2  T
   5    -41.1028795 -0.743188E-07  0.217E-03    9.09      10.6  T
   6    -41.1028795 -0.379332E-08  0.128E-03    9.09      17.9  T
speedup  1.08
cpu  time for SCC    0.00 s
wall time for SCC    0.00 s
speedup  1.01
cpu  time for grad    0.01 s
wall time for grad    0.01 s
 E :    -40.90995584  G :  0.008778    pred/act E change: -0.638D-04 -0.103D-03
Maxdispl :   0.0864   ||displ|| :   0.2088   Lambda : -0.205D-03
Largest |displ|/coords:  0.0864 (   4)  0.0849 (   5)  0.0680 (  15)
................................................................................
.............................. CYCLE   19 ......................................
................................................................................
   1    -41.1020659 -0.411021E+02  0.180E-01    9.06       0.0  T
   2    -41.1020852 -0.193508E-04  0.136E-01    9.07       1.0  T
   3    -41.1021001 -0.148901E-04  0.305E-02    9.10       1.0  T
   4    -41.1021027 -0.262106E-05  0.106E-02    9.10       2.2  T
   5    -41.1021029 -0.131278E-06  0.326E-03    9.10       7.0  T
   6    -41.1021029 -0.108604E-07  0.184E-03    9.09      12.5  T
   7    -41.1021029 -0.357215E-08  0.457E-04    9.09      50.2  T
speedup  0.93
cpu  time for SCC    0.00 s
wall time for SCC    0.00 s
speedup  1.05
cpu  time for grad    0.01 s
wall time for grad    0.01 s
 E :    -40.91009258  G :  0.011160    pred/act E change: -0.727D-04 -0.137D-03
Maxdispl :   0.1306   ||displ|| :   0.3441   Lambda : -0.358D-03
Largest |displ|/coords:  0.1306 (   4)  0.1221 (  14)  0.1126 (   8)
................................................................................
.............................. CYCLE   20 ......................................
................................................................................
   1    -41.0994277 -0.410994E+02  0.303E-01    9.06       0.0  T
   2    -41.0994987 -0.710818E-04  0.229E-01    9.08       1.0  T
   3    -41.0995447 -0.459253E-04  0.558E-02    9.13       1.0  T
   4    -41.0995546 -0.997268E-05  0.171E-02    9.13       1.3  T
   5    -41.0995550 -0.363122E-06  0.578E-03    9.12       4.0  T
   6    -41.0995550 -0.316273E-07  0.321E-03    9.12       7.2  T
   7    -41.0995550 -0.883933E-08  0.749E-04    9.12      30.6  T
   8    -41.0995550 -0.129304E-08  0.185E-04    9.12     123.9  T
speedup  0.82
cpu  time for SCC    0.00 s
wall time for SCC    0.00 s
speedup  0.99
cpu  time for grad    0.01 s
wall time for grad    0.01 s
 E :    -40.91033240  G :  0.018746    pred/act E change: -0.107D-03 -0.240D-03
Maxdispl :   0.1515   ||displ|| :   0.4169   Lambda : -0.944D-03
Largest |displ|/coords:  0.1515 (   5)  0.1501 (   8)  0.1280 (   4)
................................................................................
.............................. CYCLE   21 ......................................
................................................................................
   1    -41.1011398 -0.411011E+02  0.375E-01    9.08       0.0  T
   2    -41.1013391 -0.199288E-03  0.279E-01    9.09       1.0  T
   3    -41.1014447 -0.105612E-03  0.895E-02    9.10       1.0  T
   4    -41.1014669 -0.222348E-04  0.248E-02    9.10       1.0  T
   5    -41.1014675 -0.627146E-06  0.868E-03    9.10       2.6  T
   6    -41.1014676 -0.638940E-07  0.431E-03    9.10       5.3  T
   7    -41.1014676 -0.131422E-07  0.119E-03    9.10      19.4  T
   8    -41.1014676 -0.204458E-08  0.255E-04    9.10      89.8  T
speedup  1.00
cpu  time for SCC    0.01 s
wall time for SCC    0.00 s
speedup  0.98
cpu  time for grad    0.01 s
wall time for grad    0.01 s
 E :    -40.91100604  G :  0.027630    pred/act E change: -0.200D-03 -0.674D-03
Maxdispl :   0.1207   ||displ|| :   0.3701   Lambda : -0.188D-02
Largest |displ|/coords:  0.1207 (  29)  0.1169 (  14)  0.1124 (   9)
................................................................................
.............................. CYCLE   22 ......................................
................................................................................
   1    -41.1099926 -0.411100E+02  0.316E-01    9.08       0.0  T
   2    -41.1101898 -0.197222E-03  0.234E-01    9.08       1.0  T
   3    -41.1102930 -0.103215E-03  0.853E-02    9.09       1.0  T
   4    -41.1103088 -0.157803E-04  0.205E-02    9.09       1.1  T
   5    -41.1103092 -0.420460E-06  0.796E-03    9.09       2.9  T
   6    -41.1103092 -0.316135E-07  0.352E-03    9.09       6.5  T
   7    -41.1103092 -0.113312E-07  0.102E-03    9.09      22.5  T
speedup  0.93
cpu  time for SCC    0.00 s
wall time for SCC    0.00 s
speedup  0.93
cpu  time for grad    0.01 s
wall time for grad    0.01 s
 E :    -40.91193706  G :  0.033927    pred/act E change: -0.554D-03 -0.931D-03
Maxdispl :   0.1582   ||displ|| :   0.3492   Lambda : -0.270D-02
Largest |displ|/coords:  0.1582 (   4)  0.1128 (   5)  0.1104 (  15)
................................................................................
.............................. CYCLE   23 ......................................
................................................................................
   1    -41.1171029 -0.411171E+02  0.279E-01    9.25       0.0  T
   2    -41.1171429 -0.399330E-04  0.205E-01    9.24       1.0  T
   3    -41.1171709 -0.280129E-04  0.437E-02    9.23       1.0  T
   4    -41.1171748 -0.389619E-05  0.130E-02    9.24       1.8  T
   5    -41.1171749 -0.164468E-06  0.378E-03    9.24       6.1  T
   6    -41.1171749 -0.136587E-07  0.203E-03    9.24      11.3  T
speedup  1.08
cpu  time for SCC    0.00 s
wall time for SCC    0.00 s
speedup  1.01
cpu  time for grad    0.01 s
wall time for grad    0.01 s
 E :    -40.91254069  G :  0.052419    pred/act E change: -0.107D-02 -0.604D-03
Maxdispl :   0.1393   ||displ|| :   0.3114   Lambda : -0.478D-02
Largest |displ|/coords:  0.1393 (  14)  0.1258 (   3)  0.1110 (   6)
................................................................................
.............................. CYCLE   24 ......................................
................................................................................
   1    -41.1041160 -0.411041E+02  0.338E-01    9.23       0.0  T
   2    -41.1042637 -0.147685E-03  0.249E-01    9.23       1.0  T
   3    -41.1043588 -0.951339E-04  0.772E-02    9.23       1.0  T
   4    -41.1043721 -0.133038E-04  0.163E-02    9.23       1.4  T
   5    -41.1043724 -0.243623E-06  0.770E-03    9.23       3.0  T
   6    -41.1043724 -0.562126E-07  0.324E-03    9.23       7.1  T
   7    -41.1043724 -0.108856E-07  0.783E-04    9.23      29.3  T
speedup  0.91
cpu  time for SCC    0.00 s
wall time for SCC    0.00 s
speedup  1.04
cpu  time for grad    0.01 s
wall time for grad    0.01 s
 E :    -40.91241262  G :  0.047900    pred/act E change: -0.152D-02  0.128D-03
Maxdispl :   0.0852   ||displ|| :   0.1931   Lambda : -0.361D-02
Largest |displ|/coords:  0.0852 (   3)  0.0631 (  18)  0.0593 (  15)
................................................................................
.............................. CYCLE   25 ......................................
................................................................................
   1    -41.1116817 -0.411117E+02  0.210E-01    9.29       0.0  T
   2    -41.1117201 -0.384180E-04  0.155E-01    9.29       1.0  T
   3    -41.1117468 -0.266906E-04  0.409E-02    9.28       1.0  T
   4    -41.1117505 -0.373445E-05  0.113E-02    9.28       2.0  T
   5    -41.1117507 -0.132497E-06  0.429E-03    9.28       5.4  T
   6    -41.1117507 -0.125542E-07  0.203E-03    9.28      11.3  T
speedup  0.81
cpu  time for SCC    0.00 s
wall time for SCC    0.00 s
speedup  0.90
cpu  time for grad    0.01 s
wall time for grad    0.01 s
 E :    -40.91430647  G :  0.013722    pred/act E change: -0.262D-02 -0.189D-02
Maxdispl :   0.0963   ||displ|| :   0.2104   Lambda : -0.107D-02
Largest |displ|/coords:  0.0963 (  17)  0.0948 (   2)  0.0772 (  16)

generating ANC from model Hessian ...
 Shifting diagonal of input Hessian by   5.038706853273905E-003
 Lowest  eigenvalues of input Hessian
    0.005000   -0.000000   -0.000000   -0.000000    0.000000    0.000000
    0.000000    0.005528    0.005980    0.007263    0.008107    0.009102
    0.013974    0.015516    0.017844    0.018889    0.021132    0.022198
 Highest eigenvalues
    1.395233    1.425127    1.426515    2.588862    3.357960    3.742487
 
cpu  time for ANC gen    0.01 s
wall time for ANC gen    0.01 s
................................................................................
.............................. CYCLE   26 ......................................
................................................................................
   1    -41.1145433 -0.411145E+02  0.151E-01    9.31       0.0  T
   2    -41.1145530 -0.975443E-05  0.113E-01    9.31       1.0  T
   3    -41.1145598 -0.679805E-05  0.210E-02    9.31       1.1  T
   4    -41.1145611 -0.130660E-05  0.808E-03    9.31       2.8  T
   5    -41.1145612 -0.570764E-07  0.242E-03    9.31       9.5  T
   6    -41.1145612 -0.513486E-08  0.137E-03    9.31      16.8  T
   7    -41.1145612 -0.195732E-08  0.337E-04    9.31      68.0  T
   8    -41.1145612 -0.225818E-09  0.922E-05    9.31     248.7  T
speedup  1.02
cpu  time for SCC    0.00 s
wall time for SCC    0.00 s
speedup  1.06
cpu  time for grad    0.01 s
wall time for grad    0.01 s
 E :    -40.91468178  G :  0.021438    pred/act E change:  0.000D+00 -0.375D-03
Maxdispl :   0.1771   ||displ|| :   0.2313   Lambda : -0.108D-02
Largest |displ|/coords:  0.1771 (   5)  0.0742 (   3)  0.0641 (  12)
................................................................................
.............................. CYCLE   27 ......................................
................................................................................
   1    -41.1117497 -0.411117E+02  0.149E-01    9.29       0.0  T
   2    -41.1117569 -0.720021E-05  0.112E-01    9.29       1.0  T
   3    -41.1117616 -0.462870E-05  0.175E-02    9.29       1.3  T
   4    -41.1117626 -0.108545E-05  0.452E-03    9.29       5.1  T
   5    -41.1117627 -0.339904E-07  0.207E-03    9.29      11.1  T
speedup  0.97
cpu  time for SCC    0.00 s
wall time for SCC    0.00 s
speedup  0.96
cpu  time for grad    0.01 s
wall time for grad    0.01 s
 E :    -40.91523480  G :  0.010167    pred/act E change:  0.000D+00 -0.553D-03
Maxdispl :   0.1234   ||displ|| :   0.2132   Lambda : -0.639D-03
Largest |displ|/coords:  0.1234 (   4)  0.1202 (   1)  0.0759 (  12)
................................................................................
.............................. CYCLE   28 ......................................
................................................................................
   1    -41.1099947 -0.411100E+02  0.122E-01    9.27       0.0  T
   2    -41.1099986 -0.389270E-05  0.910E-02    9.27       1.0  T
   3    -41.1100015 -0.291007E-05  0.141E-02    9.27       1.6  T
   4    -41.1100020 -0.499987E-06  0.378E-03    9.27       6.1  T
   5    -41.1100020 -0.135246E-07  0.158E-03    9.27      14.5  T
   6    -41.1100020 -0.238230E-08  0.786E-04    9.27      29.2  T
speedup  1.05
cpu  time for SCC    0.00 s
wall time for SCC    0.00 s
speedup  1.01
cpu  time for grad    0.01 s
wall time for grad    0.01 s
 E :    -40.91551260  G :  0.008725    pred/act E change: -0.569D-03 -0.278D-03
Maxdispl :   0.0665   ||displ|| :   0.1270   Lambda : -0.252D-03
Largest |displ|/coords:  0.0665 (   5)  0.0596 (   3)  0.0484 (   6)
................................................................................
.............................. CYCLE   29 ......................................
................................................................................
   1    -41.1104520 -0.411105E+02  0.883E-02    9.27       0.0  T
   2    -41.1104535 -0.150271E-05  0.658E-02    9.27       1.0  T
   3    -41.1104549 -0.140080E-05  0.942E-03    9.27       2.4  T
   4    -41.1104550 -0.164160E-06  0.215E-03    9.27      10.7  T
   5    -41.1104550 -0.659533E-08  0.109E-03    9.27      21.1  T
speedup  0.94
cpu  time for SCC    0.00 s
wall time for SCC    0.00 s
speedup  0.95
cpu  time for grad    0.01 s
wall time for grad    0.01 s
 E :    -40.91567058  G :  0.006518    pred/act E change: -0.334D-03 -0.158D-03
Maxdispl :   0.0788   ||displ|| :   0.1499   Lambda : -0.215D-03
Largest |displ|/coords:  0.0788 (   5)  0.0655 (   3)  0.0513 (   7)
................................................................................
.............................. CYCLE   30 ......................................
................................................................................
   1    -41.1110635 -0.411111E+02  0.916E-02    9.27       0.0  T
   2    -41.1110658 -0.231985E-05  0.669E-02    9.27       1.0  T
   3    -41.1110673 -0.144859E-05  0.123E-02    9.27       1.9  T
   4    -41.1110675 -0.239994E-06  0.304E-03    9.27       7.5  T
   5    -41.1110675 -0.116796E-07  0.926E-04    9.27      24.8  T
   6    -41.1110675 -0.118404E-08  0.531E-04    9.27      43.2  T
speedup  1.11
cpu  time for SCC    0.00 s
wall time for SCC    0.00 s
speedup  1.02
cpu  time for grad    0.01 s
wall time for grad    0.01 s
 E :    -40.91580622  G :  0.004568    pred/act E change: -0.128D-03 -0.136D-03
Maxdispl :   0.0555   ||displ|| :   0.1164   Lambda : -0.943D-04
Largest |displ|/coords:  0.0555 (   4)  0.0552 (   5)  0.0493 (   7)
................................................................................
.............................. CYCLE   31 ......................................
................................................................................
   1    -41.1111275 -0.411111E+02  0.891E-02    9.27       0.0  T
   2    -41.1111295 -0.193330E-05  0.657E-02    9.27       1.0  T
   3    -41.1111310 -0.154848E-05  0.117E-02    9.27       2.0  T
   4    -41.1111312 -0.196093E-06  0.288E-03    9.27       8.0  T
   5    -41.1111312 -0.113942E-07  0.996E-04    9.27      23.0  T
speedup  0.97
cpu  time for SCC    0.00 s
wall time for SCC    0.00 s
speedup  0.94
cpu  time for grad    0.01 s
wall time for grad    0.01 s
 E :    -40.91586564  G :  0.004552    pred/act E change: -0.110D-03 -0.594D-04
Maxdispl :   0.0466   ||displ|| :   0.0841   Lambda : -0.530D-04
Largest |displ|/coords:  0.0466 (   4)  0.0398 (   7)  0.0337 (   5)
................................................................................
.............................. CYCLE   32 ......................................
................................................................................
   1    -41.1113982 -0.411114E+02  0.630E-02    9.28       0.0  T
   2    -41.1113992 -0.915523E-06  0.461E-02    9.28       1.0  T
   3    -41.1113999 -0.735999E-06  0.858E-03    9.28       2.7  T
   4    -41.1114000 -0.909347E-07  0.264E-03    9.28       8.7  T
   5    -41.1114000 -0.872630E-08  0.695E-04    9.28      33.0  T
speedup  0.94
cpu  time for SCC    0.00 s
wall time for SCC    0.00 s
speedup  1.07
cpu  time for grad    0.01 s
wall time for grad    0.01 s
 E :    -40.91590147  G :  0.003542    pred/act E change: -0.478D-04 -0.358D-04
Maxdispl :   0.0422   ||displ|| :   0.0836   Lambda : -0.495D-04
Largest |displ|/coords:  0.0422 (   7)  0.0408 (   4)  0.0261 (   5)
................................................................................
.............................. CYCLE   33 ......................................
................................................................................
   1    -41.1117849 -0.411118E+02  0.713E-02    9.30       0.0  T
   2    -41.1117859 -0.106622E-05  0.526E-02    9.30       1.0  T
   3    -41.1117869 -0.937701E-06  0.930E-03    9.30       2.5  T
   4    -41.1117870 -0.111654E-06  0.298E-03    9.30       7.7  T
   5    -41.1117870 -0.105526E-07  0.791E-04    9.30      29.0  T
   6    -41.1117870 -0.584478E-09  0.501E-04    9.30      45.8  T
speedup  0.83
cpu  time for SCC    0.00 s
wall time for SCC    0.00 s
speedup  0.99
cpu  time for grad    0.01 s
wall time for grad    0.01 s
 E :    -40.91593698  G :  0.002620    pred/act E change: -0.267D-04 -0.355D-04
Maxdispl :   0.0478   ||displ|| :   0.1025   Lambda : -0.469D-04
Largest |displ|/coords:  0.0478 (   4)  0.0414 (   7)  0.0355 (   5)
................................................................................
.............................. CYCLE   34 ......................................
................................................................................
   1    -41.1118893 -0.411119E+02  0.847E-02    9.30       0.0  T
   2    -41.1118905 -0.126374E-05  0.627E-02    9.30       1.0  T
   3    -41.1118917 -0.122829E-05  0.101E-02    9.31       2.3  T
   4    -41.1118919 -0.123721E-06  0.321E-03    9.31       7.1  T
   5    -41.1118919 -0.129747E-07  0.919E-04    9.31      25.0  T
   6    -41.1118919 -0.744159E-09  0.592E-04    9.31      38.8  T
speedup  1.05
cpu  time for SCC    0.00 s
wall time for SCC    0.00 s
speedup  0.96
cpu  time for grad    0.01 s
wall time for grad    0.01 s
 E :    -40.91597058  G :  0.002862    pred/act E change: -0.249D-04 -0.336D-04
Maxdispl :   0.0400   ||displ|| :   0.1003   Lambda : -0.374D-04
Largest |displ|/coords:  0.0400 (   7)  0.0396 (   6)  0.0377 (   9)
................................................................................
.............................. CYCLE   35 ......................................
................................................................................
   1    -41.1118372 -0.411118E+02  0.833E-02    9.31       0.0  T
   2    -41.1118383 -0.112562E-05  0.621E-02    9.31       1.0  T
   3    -41.1118394 -0.113920E-05  0.915E-03    9.31       2.5  T
   4    -41.1118395 -0.109146E-06  0.309E-03    9.31       7.4  T
   5    -41.1118395 -0.102085E-07  0.877E-04    9.31      26.2  T
   6    -41.1118395 -0.717321E-09  0.569E-04    9.31      40.3  T
speedup  1.05
cpu  time for SCC    0.00 s
wall time for SCC    0.00 s
speedup  1.09
cpu  time for grad    0.01 s
wall time for grad    0.01 s
 E :    -40.91599792  G :  0.003285    pred/act E change: -0.237D-04 -0.273D-04
Maxdispl :   0.0418   ||displ|| :   0.1002   Lambda : -0.340D-04
Largest |displ|/coords:  0.0418 (   6)  0.0397 (   9)  0.0347 (   7)
................................................................................
.............................. CYCLE   36 ......................................
................................................................................
   1    -41.1116577 -0.411117E+02  0.825E-02    9.31       0.0  T
   2    -41.1116588 -0.115729E-05  0.617E-02    9.31       1.0  T
   3    -41.1116599 -0.109998E-05  0.878E-03    9.31       2.6  T
   4    -41.1116600 -0.127276E-06  0.332E-03    9.31       6.9  T
   5    -41.1116600 -0.964189E-08  0.875E-04    9.31      26.2  T
   6    -41.1116601 -0.757218E-09  0.571E-04    9.31      40.2  T
speedup  1.08
cpu  time for SCC    0.00 s
wall time for SCC    0.00 s
speedup  1.09
cpu  time for grad    0.01 s
wall time for grad    0.01 s
 E :    -40.91602273  G :  0.003174    pred/act E change: -0.189D-04 -0.248D-04
Maxdispl :   0.0396   ||displ|| :   0.0938   Lambda : -0.316D-04
Largest |displ|/coords:  0.0396 (   9)  0.0345 (   6)  0.0332 (  11)
................................................................................
.............................. CYCLE   37 ......................................
................................................................................
   1    -41.1116565 -0.411117E+02  0.748E-02    9.32       0.0  T
   2    -41.1116575 -0.100223E-05  0.560E-02    9.31       1.0  T
   3    -41.1116583 -0.834791E-06  0.813E-03    9.31       2.8  T
   4    -41.1116585 -0.129835E-06  0.330E-03    9.31       7.0  T
   5    -41.1116585 -0.869247E-08  0.776E-04    9.31      29.5  T
   6    -41.1116585 -0.524665E-09  0.511E-04    9.31      44.9  T
speedup  1.05
cpu  time for SCC    0.00 s
wall time for SCC    0.00 s
speedup  0.96
cpu  time for grad    0.01 s
wall time for grad    0.01 s
 E :    -40.91604596  G :  0.002729    pred/act E change: -0.172D-04 -0.232D-04
Maxdispl :   0.0413   ||displ|| :   0.0940   Lambda : -0.287D-04
Largest |displ|/coords:  0.0413 (   1)  0.0396 (   9)  0.0304 (  12)
................................................................................
.............................. CYCLE   38 ......................................
................................................................................
   1    -41.1116318 -0.411116E+02  0.741E-02    9.32       0.0  T
   2    -41.1116328 -0.983076E-06  0.554E-02    9.32       1.0  T
   3    -41.1116336 -0.754254E-06  0.848E-03    9.32       2.7  T
   4    -41.1116337 -0.135513E-06  0.350E-03    9.32       6.5  T
   5    -41.1116337 -0.859271E-08  0.727E-04    9.32      31.6  T
   6    -41.1116337 -0.382101E-09  0.495E-04    9.32      46.3  T
speedup  1.08
cpu  time for SCC    0.00 s
wall time for SCC    0.00 s
speedup  0.98
cpu  time for grad    0.01 s
wall time for grad    0.01 s
 E :    -40.91606662  G :  0.002351    pred/act E change: -0.160D-04 -0.207D-04
Maxdispl :   0.0351   ||displ|| :   0.0689   Lambda : -0.210D-04
Largest |displ|/coords:  0.0351 (   1)  0.0286 (   9)  0.0277 (  12)
................................................................................
.............................. CYCLE   39 ......................................
................................................................................
   1    -41.1119824 -0.411120E+02  0.539E-02    9.34       0.0  T
   2    -41.1119829 -0.534301E-06  0.402E-02    9.34       1.0  T
   3    -41.1119833 -0.376932E-06  0.629E-03    9.33       3.6  T
   4    -41.1119834 -0.759971E-07  0.268E-03    9.34       8.6  T
   5    -41.1119834 -0.473008E-08  0.513E-04    9.34      44.7  T
   6    -41.1119834 -0.200345E-09  0.348E-04    9.34      66.0  T
speedup  1.08
cpu  time for SCC    0.00 s
wall time for SCC    0.00 s
speedup  1.09
cpu  time for grad    0.01 s
wall time for grad    0.01 s
 E :    -40.91608100  G :  0.001844    pred/act E change: -0.145D-04 -0.144D-04
Maxdispl :   0.0306   ||displ|| :   0.0718   Lambda : -0.133D-04
Largest |displ|/coords:  0.0306 (   9)  0.0278 (   1)  0.0269 (   5)
................................................................................
.............................. CYCLE   40 ......................................
................................................................................
   1    -41.1117023 -0.411117E+02  0.632E-02    9.33       0.0  T
   2    -41.1117030 -0.683775E-06  0.470E-02    9.33       1.0  T
   3    -41.1117035 -0.523719E-06  0.734E-03    9.33       3.1  T
   4    -41.1117036 -0.870728E-07  0.306E-03    9.33       7.5  T
   5    -41.1117036 -0.635168E-08  0.577E-04    9.33      39.8  T
   6    -41.1117036 -0.301078E-09  0.395E-04    9.33      58.0  T
speedup  0.79
cpu  time for SCC    0.00 s
wall time for SCC    0.00 s
speedup  0.97
cpu  time for grad    0.01 s
wall time for grad    0.01 s
 E :    -40.91608864  G :  0.002204    pred/act E change: -0.106D-04 -0.764D-05
Maxdispl :   0.0156   ||displ|| :   0.0306   Lambda : -0.117D-04
Largest |displ|/coords:  0.0156 (   4)  0.0122 (   7)  0.0110 (   6)
................................................................................
.............................. CYCLE   41 ......................................
................................................................................
   1    -41.1125895 -0.411126E+02  0.262E-02    9.35       0.0  T
   2    -41.1125897 -0.253668E-06  0.194E-02    9.35       1.2  T
   3    -41.1125899 -0.184145E-06  0.368E-03    9.35       6.2  T
   4    -41.1125900 -0.284366E-07  0.846E-04    9.35      27.1  T
   5    -41.1125900 -0.974843E-09  0.314E-04    9.35      73.1  T
speedup  0.91
cpu  time for SCC    0.00 s
wall time for SCC    0.00 s
speedup  1.02
cpu  time for grad    0.01 s
wall time for grad    0.01 s
 E :    -40.91609338  G :  0.001619    pred/act E change: -0.668D-05 -0.474D-05
Maxdispl :   0.0081   ||displ|| :   0.0201   Lambda : -0.503D-05
Largest |displ|/coords:  0.0081 (   4)  0.0074 (   9)  0.0073 (   7)
................................................................................
.............................. CYCLE   42 ......................................
................................................................................
   1    -41.1124068 -0.411124E+02  0.193E-02    9.34       0.0  T
   2    -41.1124069 -0.561304E-07  0.144E-02    9.34       1.6  T
   3    -41.1124069 -0.499457E-07  0.219E-03    9.34      10.5  T
   4    -41.1124069 -0.572404E-08  0.782E-04    9.34      29.3  T
   5    -41.1124069 -0.509267E-09  0.166E-04    9.34     137.8  T
speedup  0.97
cpu  time for SCC    0.00 s
wall time for SCC    0.00 s
speedup  0.93
cpu  time for grad    0.01 s
wall time for grad    0.01 s
 E :    -40.91609722  G :  0.001153    pred/act E change: -0.586D-05 -0.384D-05
Maxdispl :   0.0122   ||displ|| :   0.0251   Lambda : -0.613D-05
Largest |displ|/coords:  0.0122 (   1)  0.0094 (   4)  0.0077 (  17)
................................................................................
.............................. CYCLE   43 ......................................
................................................................................
   1    -41.1122914 -0.411123E+02  0.240E-02    9.34       0.0  T
   2    -41.1122915 -0.993590E-07  0.179E-02    9.34       1.3  T
   3    -41.1122916 -0.751301E-07  0.284E-03    9.34       8.1  T
   4    -41.1122916 -0.125245E-07  0.991E-04    9.34      23.2  T
   5    -41.1122916 -0.696957E-09  0.200E-04    9.34     114.6  T
speedup  1.25
cpu  time for SCC    0.00 s
wall time for SCC    0.00 s
speedup  1.03
cpu  time for grad    0.01 s
wall time for grad    0.01 s
 E :    -40.91610127  G :  0.000955    pred/act E change: -0.251D-05 -0.404D-05
Maxdispl :   0.0105   ||displ|| :   0.0214   Lambda : -0.366D-05
Largest |displ|/coords:  0.0105 (   1)  0.0072 (  17)  0.0071 (  24)
................................................................................
.............................. CYCLE   44 ......................................
................................................................................
   1    -41.1123511 -0.411124E+02  0.221E-02    9.34       0.0  T
   2    -41.1123512 -0.520329E-07  0.165E-02    9.34       1.4  T
   3    -41.1123512 -0.372283E-07  0.248E-03    9.34       9.3  T
   4    -41.1123512 -0.686516E-08  0.822E-04    9.34      27.9  T
   5    -41.1123512 -0.355925E-09  0.132E-04    9.34     174.1  T
speedup  0.97
cpu  time for SCC    0.00 s
wall time for SCC    0.00 s
speedup  1.05
cpu  time for grad    0.01 s
wall time for grad    0.01 s
 E :    -40.91610415  G :  0.001205    pred/act E change: -0.307D-05 -0.289D-05
Maxdispl :   0.0222   ||displ|| :   0.0439   Lambda : -0.734D-05
Largest |displ|/coords:  0.0222 (   1)  0.0126 (  25)  0.0124 (  24)
................................................................................
.............................. CYCLE   45 ......................................
................................................................................
   1    -41.1124115 -0.411124E+02  0.430E-02    9.34       0.0  T
   2    -41.1124117 -0.221671E-06  0.318E-02    9.34       1.0  T
   3    -41.1124118 -0.130545E-06  0.526E-03    9.34       4.4  T
   4    -41.1124118 -0.333586E-07  0.160E-03    9.34      14.3  T
   5    -41.1124118 -0.129109E-08  0.264E-04    9.34      86.8  T
   6    -41.1124118 -0.614904E-10  0.174E-04    9.34     131.7  T
speedup  1.05
cpu  time for SCC    0.00 s
wall time for SCC    0.00 s
speedup  0.96
cpu  time for grad    0.01 s
wall time for grad    0.01 s
 E :    -40.91610941  G :  0.001347    pred/act E change: -0.183D-05 -0.526D-05
Maxdispl :   0.0202   ||displ|| :   0.0485   Lambda : -0.659D-05
Largest |displ|/coords:  0.0202 (   1)  0.0183 (   5)  0.0155 (   7)
................................................................................
.............................. CYCLE   46 ......................................
................................................................................
   1    -41.1124166 -0.411124E+02  0.476E-02    9.34       0.0  T
   2    -41.1124169 -0.304602E-06  0.351E-02    9.34       1.0  T
   3    -41.1124171 -0.162052E-06  0.629E-03    9.34       3.6  T
   4    -41.1124171 -0.473613E-07  0.187E-03    9.34      12.3  T
   5    -41.1124171 -0.166759E-08  0.313E-04    9.34      73.3  T
   6    -41.1124171 -0.697256E-10  0.218E-04    9.34     105.2  T
speedup  0.79
cpu  time for SCC    0.00 s
wall time for SCC    0.00 s
speedup  0.97
cpu  time for grad    0.01 s
wall time for grad    0.01 s
 E :    -40.91611429  G :  0.001450    pred/act E change: -0.368D-05 -0.488D-05
Maxdispl :   0.0304   ||displ|| :   0.0625   Lambda : -0.761D-05
Largest |displ|/coords:  0.0304 (   5)  0.0280 (   7)  0.0246 (   1)
................................................................................
.............................. CYCLE   47 ......................................
................................................................................
   1    -41.1123765 -0.411124E+02  0.524E-02    9.34       0.0  T
   2    -41.1123769 -0.414051E-06  0.386E-02    9.34       1.0  T
   3    -41.1123771 -0.258343E-06  0.691E-03    9.34       3.3  T
   4    -41.1123772 -0.599380E-07  0.196E-03    9.34      11.7  T
   5    -41.1123772 -0.285755E-08  0.420E-04    9.34      54.6  T
   6    -41.1123772 -0.158479E-09  0.290E-04    9.34      79.0  T
speedup  1.08
cpu  time for SCC    0.00 s
wall time for SCC    0.00 s
speedup  0.98
cpu  time for grad    0.01 s
wall time for grad    0.01 s
 E :    -40.91611912  G :  0.000984    pred/act E change: -0.330D-05 -0.483D-05
Maxdispl :   0.0232   ||displ|| :   0.0535   Lambda : -0.494D-05
Largest |displ|/coords:  0.0232 (   5)  0.0218 (   7)  0.0204 (   4)
................................................................................
.............................. CYCLE   48 ......................................
................................................................................
   1    -41.1120991 -0.411121E+02  0.510E-02    9.34       0.0  T
   2    -41.1120996 -0.473062E-06  0.376E-02    9.34       1.0  T
   3    -41.1120998 -0.209172E-06  0.759E-03    9.34       3.0  T
   4    -41.1120998 -0.762010E-07  0.233E-03    9.34       9.8  T
   5    -41.1120998 -0.230081E-08  0.392E-04    9.34      58.6  T
   6    -41.1120998 -0.916458E-10  0.277E-04    9.34      82.7  T
speedup  1.08
cpu  time for SCC    0.00 s
wall time for SCC    0.00 s
speedup  0.98
cpu  time for grad    0.01 s
wall time for grad    0.01 s
 E :    -40.91612126  G :  0.001422    pred/act E change: -0.382D-05 -0.213D-05
Maxdispl :   0.0116   ||displ|| :   0.0268   Lambda : -0.411D-05
Largest |displ|/coords:  0.0116 (   5)  0.0111 (   7)  0.0100 (   4)
................................................................................
.............................. CYCLE   49 ......................................
................................................................................
   1    -41.1121824 -0.411122E+02  0.199E-02    9.33       0.0  T
   2    -41.1121824 -0.451205E-07  0.149E-02    9.33       1.5  T
   3    -41.1121825 -0.528866E-07  0.170E-03    9.33      13.5  T
   4    -41.1121825 -0.338650E-08  0.426E-04    9.33      53.9  T
   5    -41.1121825 -0.273026E-09  0.178E-04    9.33     129.1  T
speedup  0.97
cpu  time for SCC    0.00 s
wall time for SCC    0.00 s
speedup  0.93
cpu  time for grad    0.01 s
wall time for grad    0.01 s
 E :    -40.91612373  G :  0.000702    pred/act E change: -0.248D-05 -0.247D-05
Maxdispl :   0.0080   ||displ|| :   0.0164   Lambda : -0.170D-05
Largest |displ|/coords:  0.0080 (   2)  0.0077 (   6)  0.0068 (   7)
................................................................................
.............................. CYCLE   50 ......................................
................................................................................
   1    -41.1121361 -0.411121E+02  0.109E-02    9.33       0.0  T
   2    -41.1121361 -0.192076E-07  0.820E-03    9.33       2.8  T
   3    -41.1121361 -0.160652E-07  0.127E-03    9.33      18.1  T
   4    -41.1121361 -0.247258E-08  0.535E-04    9.33      42.9  T
   5    -41.1121361 -0.162757E-09  0.103E-04    9.33     223.4  T
speedup  0.94
cpu  time for SCC    0.00 s
wall time for SCC    0.00 s
speedup  1.03
cpu  time for grad    0.01 s
wall time for grad    0.01 s
 E :    -40.91612501  G :  0.000598    pred/act E change: -0.205D-05 -0.128D-05
Maxdispl :   0.0105   ||displ|| :   0.0168   Lambda : -0.143D-05
Largest |displ|/coords:  0.0105 (   2)  0.0081 (   6)  0.0064 (   7)
................................................................................
.............................. CYCLE   51 ......................................
................................................................................
   1    -41.1121193 -0.411121E+02  0.127E-02    9.33       0.0  T
   2    -41.1121193 -0.218569E-07  0.945E-03    9.33       2.4  T
   3    -41.1121193 -0.188424E-07  0.157E-03    9.33      14.7  T
   4    -41.1121193 -0.221051E-08  0.613E-04    9.33      37.4  T
   5    -41.1121193 -0.235538E-09  0.110E-04    9.33     208.6  T
speedup  0.94
cpu  time for SCC    0.00 s
wall time for SCC    0.00 s
speedup  1.05
cpu  time for grad    0.01 s
wall time for grad    0.01 s
 E :    -40.91612588  G :  0.000427    pred/act E change: -0.850D-06 -0.873D-06
Maxdispl :   0.0055   ||displ|| :   0.0073   Lambda : -0.368D-06
Largest |displ|/coords:  0.0055 (   2)  0.0030 (   7)  0.0017 (  25)
................................................................................
.............................. CYCLE   52 ......................................
................................................................................
   1    -41.1121333 -0.411121E+02  0.639E-03    9.33       0.0  T
   2    -41.1121333 -0.499149E-08  0.475E-03    9.33       4.8  T
   3    -41.1121333 -0.431285E-08  0.796E-04    9.33      28.8  T
   4    -41.1121333 -0.475168E-09  0.285E-04    9.33      80.6  T
speedup  0.80
cpu  time for SCC    0.00 s
wall time for SCC    0.00 s
speedup  1.00
cpu  time for grad    0.01 s
wall time for grad    0.01 s
 E :    -40.91612617  G :  0.000375    pred/act E change: -0.717D-06 -0.289D-06
Maxdispl :   0.0085   ||displ|| :   0.0115   Lambda : -0.511D-06
Largest |displ|/coords:  0.0085 (   2)  0.0051 (   7)  0.0025 (  25)

generating ANC from model Hessian ...
 Shifting diagonal of input Hessian by   5.042457689079133E-003
 Lowest  eigenvalues of input Hessian
    0.005000   -0.000000   -0.000000   -0.000000    0.000000    0.000000
    0.000000    0.005497    0.006274    0.006847    0.007691    0.009081
    0.011143    0.015086    0.016175    0.019736    0.020336    0.023325
 Highest eigenvalues
    1.394661    1.398329    1.419910    2.601032    3.357773    3.715361
 
cpu  time for ANC gen    0.01 s
wall time for ANC gen    0.01 s
................................................................................
.............................. CYCLE   53 ......................................
................................................................................
   1    -41.1121783 -0.411122E+02  0.950E-03    9.33       0.0  T
   2    -41.1121783 -0.115727E-07  0.707E-03    9.33       3.2  T
   3    -41.1121783 -0.953244E-08  0.115E-03    9.33      20.0  T
   4    -41.1121783 -0.128062E-08  0.402E-04    9.33      57.1  T
   5    -41.1121783 -0.112834E-09  0.818E-05    9.33     280.4  T
speedup  1.29
cpu  time for SCC    0.00 s
wall time for SCC    0.00 s
speedup  1.05
cpu  time for grad    0.01 s
wall time for grad    0.01 s
 E :    -40.91612652  G :  0.000303    pred/act E change:  0.000D+00 -0.346D-06
Maxdispl :   0.0016   ||displ|| :   0.0022   Lambda : -0.136D-06
Largest |displ|/coords:  0.0016 (   2)  0.0009 (   6)  0.0008 (   1)
................................................................................
.............................. CYCLE   54 ......................................
................................................................................
   1    -41.1121958 -0.411122E+02  0.178E-03    9.33       0.0  T
   2    -41.1121958 -0.610711E-09  0.133E-03    9.33      17.2  T
   3    -41.1121958 -0.517019E-09  0.186E-04    9.33     123.2  T
   4    -41.1121958 -0.756373E-10  0.752E-05    9.33     305.3  T
speedup  1.15
cpu  time for SCC    0.00 s
wall time for SCC    0.00 s
speedup  0.99
cpu  time for grad    0.01 s
wall time for grad    0.01 s
 E :    -40.91612662  G :  0.000158    pred/act E change:  0.000D+00 -0.108D-06
Maxdispl :   0.0036   ||displ|| :   0.0053   Lambda : -0.160D-06
Largest |displ|/coords:  0.0036 (   2)  0.0024 (   1)  0.0018 (   5)
................................................................................
.............................. CYCLE   55 ......................................
................................................................................
   1    -41.1122088 -0.411122E+02  0.324E-03    9.33       0.0  T
   2    -41.1122088 -0.190828E-08  0.243E-03    9.33       9.5  T
   3    -41.1122088 -0.141605E-08  0.325E-04    9.33      70.5  T
   4    -41.1122088 -0.252811E-09  0.119E-04    9.33     193.5  T
speedup  1.20
cpu  time for SCC    0.00 s
wall time for SCC    0.00 s
speedup  1.00
cpu  time for grad    0.01 s
wall time for grad    0.01 s
 E :    -40.91612672  G :  0.000146    pred/act E change: -0.679D-07 -0.974D-07
Maxdispl :   0.0032   ||displ|| :   0.0040   Lambda : -0.594D-07
Largest |displ|/coords:  0.0032 (   2)  0.0014 (   1)  0.0012 (   5)

   *** GEOMETRY OPTIMIZATION CONVERGED AFTER 55 ITERATIONS ***

------------------------------------------------------------------------
 total energy gain (kcal):     -0.0001
------------------------------------------------------------------------
================
 final structure:
================
$coord
        0.38967704123256        3.02352876258184       -1.21294322980992      S 
        0.05422083724432        0.58819952420067       -2.55793875415475      O 
       -2.03419199304680        3.95785737245652       -0.33454828885826      O 
        2.33297786832995        2.88535663484918        0.66864594599674      O 
        1.31165435772958        4.93064623568590       -3.32314614340985      O 
       -0.19272016633083        5.29639619985099       -4.24051354394838      H 
       -2.25300737464699       -2.51747510483304        0.06537419501039      O 
       -1.34256171994110       -1.24147184622622       -1.19312548740651      H 
       -0.77123297248057       -3.44601455703593        0.96702721893622      H 
        1.63221487112390       -4.49564702230843        1.99544946574787      O 
        2.90126795446241       -3.35292390133293        1.17300579749883      H 
        2.06152846307970       -6.18586392094345        1.50252120051665      H 
        4.42290529403294       -1.41940288925795       -0.63239260193334      O 
        4.11551819116280        0.22308776713545        0.16586553365658      H 
        3.44194753115682       -1.30495996127158       -2.16624116418838      H 
       -3.99156656501768        0.89734105454306        2.91659716462495      O 
       -5.77361185443031        1.23159273885678        2.95455081381847      H 
       -3.08261075323697       -1.33381228376290        1.37353271500325      H 
       -3.22240902929410        2.26356514021905        1.87827920069902      H 
$end
 
 Bond Distances (Angstroems)
 ---------------------------
S1-O2=1.4829         S1-O3=1.4511         S1-O4=1.4333         S1-O5=1.5822         O2-S1=1.4829         O3-S1=1.4511         
O4-S1=1.4333         O5-S1=1.5822         O5-H6=0.9523         H6-O5=0.9523         O7-H8=1.0638         O7-H9=1.0411         
O7-H18=1.0316        H8-O7=1.0638         H9-O7=1.0411         O10-H11=1.0030       O10-H12=0.9590       H11-O10=1.0030       
H12-O10=0.9590       O13-H14=0.9800       O13-H15=0.9654       H14-O13=0.9800       H15-O13=0.9654       O16-H17=0.9597       
O16-H19=0.9951       H17-O16=0.9597       H18-O7=1.0316        H19-O16=0.9951       
 O  H  Rav=0.9951 sigma=0.0371  Rmin=0.9523  Rmax=1.0638    10
 S  O  Rav=1.4874 sigma=0.0576  Rmin=1.4333  Rmax=1.5822     4
 
 selected bond angles (degree)
 --------------------
O3-S1-O2=110.12                O4-S1-O2=112.02                O4-S1-O3=115.41                O5-S1-O2=104.63                
O5-S1-O3=106.34                O5-S1-O4=107.55                H6-O5-S1=103.39                H9-O7-H8=104.20                
H18-O7-H8=103.15               H18-O7-H9=107.43               H12-O10-H11=106.60             
 
 selected dihedral angles (degree)
 ---------------------------------
H6-O5-S1-O2= 76.07            H6-O5-S1-O3=319.52            H6-O5-S1-O4=195.35            
 
 CMA Distance (Angstroems)
 ---------------------------
R(CMA):  2.9090

========================================================================
 FINAL SINGLEPOINT CALCULATION ON OPTIMIZED GEOMETRY
========================================================================

 Ncao       : 52
 Nao        : 51
 Nshell     : 29
 Nel        : 64
 T(el)      :   300.0
 intcut     :    25.0
 scfconv/Eh :  0.100E-05
   qconv/e  :  0.100E-03
 intneglect :  0.100E-07
 broydamp   :      0.250
 iter      E             dE          RMSdq      gap      omega  full diag
   1    -41.1122088 -0.411122E+02  0.458E-05    9.33       0.0  T
   2    -41.1122088 -0.119371E-11  0.295E-05    9.33     776.8  T
   3    -41.1122088 -0.632383E-12  0.512E-06    9.33    4478.1  T
speedup  1.05
cpu  time for SCC    0.00 s
wall time for SCC    0.00 s

   *** convergence criteria satisfied after 3 iterations ***

          eigenvalues
 #    :          20         21         22         23         24         25         26         27
 occ. :        2.000      2.000      2.000      2.000      2.000      2.000      2.000      2.000
 eps  :       -14.436    -14.254    -13.923    -13.502    -12.852    -12.684    -12.645    -12.617
 #    :          28         29         30         31         32         33         34         35
 occ. :        2.000      2.000      2.000      2.000      2.000      0.000      0.000      0.000
 eps  :       -12.419    -12.196    -12.149    -12.067    -11.896     -2.567     -0.683     -0.488
 #    :          36         37         38         39         40         41         42         43
 occ. :        0.000      0.000      0.000      0.000      0.000      0.000      0.000      0.000
 eps  :         0.675      1.085      1.532      3.384      3.690      4.132      6.361      6.777


   #   Z            q   n(s)   n(p)   n(d)      C6AA      α(0)
   1  16 S      1.661  1.582  1.798  0.959    89.665    15.937
   2   8 O     -0.750  1.773  4.977  0.000    30.053     7.352
   3   8 O     -0.735  1.770  4.966  0.000    29.692     7.306
   4   8 O     -0.690  1.762  4.928  0.000    28.436     7.150
   5   8 O     -0.578  1.748  4.829  0.000    24.625     6.699
   6   1 H      0.347  0.653  0.000  0.000     0.588     1.200
   7   8 O     -0.514  1.727  4.787  0.000    23.144     6.497
   8   1 H      0.386  0.614  0.000  0.000     0.505     1.114
   9   1 H      0.387  0.613  0.000  0.000     0.508     1.119
  10   8 O     -0.603  1.749  4.854  0.000    25.235     6.781
  11   1 H      0.349  0.651  0.000  0.000     0.592     1.209
  12   1 H      0.296  0.704  0.000  0.000     0.733     1.345
  13   8 O     -0.606  1.745  4.862  0.000    25.336     6.793
  14   1 H      0.326  0.674  0.000  0.000     0.647     1.264
  15   1 H      0.302  0.698  0.000  0.000     0.716     1.329
  16   8 O     -0.601  1.744  4.857  0.000    25.206     6.776
  17   1 H      0.301  0.699  0.000  0.000     0.717     1.330
  18   1 H      0.381  0.619  0.000  0.000     0.521     1.133
  19   1 H      0.342  0.658  0.000  0.000     0.608     1.225

 Mol. C6AA /au·bohr⁶  :       3376.615962
 Mol. C8AA /au·bohr⁸  :      76497.629541
 Mol. α(0) /au        :         83.560188

 
 Wiberg/Mayer (AO) data. WBOs > 0.1 written file <wbo>
 largest (>0.05) Wiberg bond orders for each atom
           total WBO             WBO to atom ...
     1  S   4.879    O    4 1.408    O    3 1.321    O    2 1.204    O    5 0.909
     2  O   1.750    S    1 1.204    H    8 0.185    O    4 0.111    O    3 0.105    O    5 0.065    O    7 0.055
     3  O   1.733    S    1 1.321    O    4 0.113    O    2 0.105    H   19 0.083    O    5 0.075
     4  O   1.779    S    1 1.408    O    3 0.113    O    2 0.111    O    5 0.067    H   14 0.052
     5  O   1.987    S    1 0.909    H    6 0.863    O    3 0.075    O    4 0.067    O    2 0.065
     6  H   0.880    O    5 0.863
     7  O   2.235    H   18 0.705    H    9 0.685    H    8 0.656    O   10 0.057    O    2 0.055    O   16 0.054
     8  H   0.851    O    7 0.656    O    2 0.185
     9  H   0.850    O    7 0.685    O   10 0.162
    10  O   1.951    H   12 0.908    H   11 0.776    H    9 0.162    O    7 0.057
    11  H   0.878    O   10 0.776    O   13 0.101
    12  H   0.912    O   10 0.908
    13  O   1.911    H   15 0.891    H   14 0.838    H   11 0.101
    14  H   0.893    O   13 0.838    O    4 0.052
    15  H   0.909    O   13 0.891
    16  O   1.943    H   17 0.905    H   19 0.796    H   18 0.147    O    7 0.054
    17  H   0.909    O   16 0.905
    18  H   0.855    O    7 0.705    O   16 0.147
    19  H   0.883    O   16 0.796    O    3 0.083
 MOs/occ written to file <molden.input>
 
molecular dipole:
                 x           y           z       tot (Debye)
 q only:       -1.267      -1.506      -0.244
   full:       -1.325      -0.892      -0.750       4.486
molecular quadrupole (traceless):
                xx          xy          yy          xz          yz          zz
 q only:       -0.417      -4.550       2.287      -1.596      -3.594      -1.870
  q+dip:       -1.613      -6.690       4.319      -2.014      -4.620      -2.706
   full:       -1.732      -6.737       4.552      -2.114      -5.014      -2.820

SCC energy    :     -41.1122088
rep           :       0.1959961
ES            :       0.1998367
AES           :      -0.0511358
AXC           :      -0.0102396
disp          :      -0.0131576
XB            :       0.0000000
fix           :       0.0000000
total E       :     -40.9161267
atomizationE  :       3.7103139     2328.26
(atE without considering molecular charge,
 total energy contains solvation terms)
H-L gap (eV)  :          9.3293
optimized geometry written to: xtbopt.xyz


------------------------------------------------------------------------
 * finished run on 2019/09/03 at 08:04:53.758     
------------------------------------------------------------------------
 total:
 * wall-time:     0 d,  0 h,  0 min,  0.948 sec
 *  cpu-time:     0 d,  0 h,  0 min,  0.934 sec
 * ratio c/w:     0.985 speedup
 SCF:
 * wall-time:     0 d,  0 h,  0 min,  0.099 sec
 *  cpu-time:     0 d,  0 h,  0 min,  0.094 sec
 * ratio c/w:     0.951 speedup
 ANC optimizer:
 * wall-time:     0 d,  0 h,  0 min,  0.827 sec
 *  cpu-time:     0 d,  0 h,  0 min,  0.818 sec
 * ratio c/w:     0.989 speedup

