      -----------------------------------------------------------      
     |                   =====================                   |     
     |                           x T B                           |     
     |                   =====================                   |     
     |                         S. Grimme                         |     
     |          Mulliken Center for Theoretical Chemistry        |     
     |                    University of Bonn                     |     
     |                 Version 6.0.1 (SAW181210)                 |     
      -----------------------------------------------------------      

   This program is distributed in the hope that it will be useful,
   but WITHOUT ANY WARRANTY; without even the implied warranty of
   MERCHANTABILITY or FITNESS FOR A PARTICULAR PURPOSE.
   
   FOR NON-COMMERCIAL, ACADEMIA USE ONLY.
   
   Cite this work as:
   S. Grimme, C. Bannwarth, P. Shushkov, J. Comput. Theory Chem., 2017,
   13, 1989-2009.
   C. Bannwarth, S. Ehlert and S. Grimme., ChemRxiv, 2018, preprint.
   http://doi.org/10.26434/chemrxiv.7246238.v1
   
   for sTDA-xTB:
   S. Grimme and C. Bannwarth, J. Chem. Phys., 2016, 145, 054103.
   
   in the mass-spec context:
   V. Asgeirsson, C. Bauer and S. Grimme, Chem. Sci., 2017, 8, 4879.
   
   if GBSA is used:
   P. Shushkov, F. März and S. Grimme, unpublished.
   
   for ANC optimizer:
   S. Grimme, unpublished.
   Rational Function algorithm used in ANCopt:
   F. Eckert, P. Pulay, H.-J. Werner, J. Comput. Chem., 1997, 18, 1473.
   
   with help from (in alphabetical order)
   C. Bannwarth, F. Bohle, G. Brandenburg, E. Caldeweyher, M. Checinski,
   S. Dohm, S. Ehlert, S. Ehrlich, F. März, H. Neugebauer, J. Pisarek,
   P. Pracht, P. Shushkov, and S. Spicher.
   
 * started run on 2019/09/03 at 08:13:31.564     
========================================================================
 # omp threads = 1
========================================================================
number of atoms            : 19
number of electrons        : 64
charge                     : 0
spin                       : .0
first test random number   : .9753

########################################################################
# WARNING! Please study the warnings concerning your input carefully
#  - XTBPATH is not set, using XTBHOME instead
#  - the use of '-opt' is discouraged, please use '--opt' next time
#  - the use of '-chrg' is discouraged, please use '--chrg' next time
#  - the use of '-uhf' is discouraged, please use '--uhf' next time
########################################################################

           ------------------------------------------------- 
          |                 G F N 2 - x T B                 |
          | Geometry, Frequencies, Noncovalent interactions |
          |            JCTC 2018 parametrisation            |
           ------------------------------------------------- 
      method parameters     
 k(s)        :  1.8500
 k(p)        :  2.2300
 k(d)        :  2.2300
 k(f)        :  2.0000
 kEN (H0ij)  : -2.0000
 D4 a1       :  0.5200
 D4 a2       :  5.0000
 D4 s6       :  1.0000
 D4 s8       :  2.7000
 D4 s9       :  5.0000
 alphaj      :  2.0000


            Z     q(EN)     CN     RAES       Cart. coordinates
     1  S   6.0    0.64    4.37    4.37     0.25314    -2.03127    -2.39769
     2  O   6.0   -0.30    1.18    1.80     1.31912     0.39325    -1.44190
     3  O   6.0   -0.31    1.17    1.80    -0.13830    -3.79919    -0.24146
     4  O   6.0   -0.29    1.18    1.80    -2.21177    -1.53754    -3.66597
     5  O   6.0   -0.24    2.09    1.84     2.01902    -3.16584    -4.21620
     6  H   1.0    0.16    1.24    1.48     3.60749    -3.48428    -3.39983
     7  O   6.0   -0.28    1.99    1.83     0.02682     7.41173     2.48583
     8  H   1.0    0.15    0.97    1.43     1.40878     7.53323     1.30682
     9  H   1.0    0.15    0.97    1.43    -0.01821     9.01782     3.34201
    10  O   6.0   -0.27    1.99    1.83     4.93496    -5.06536    -0.31589
    11  H   1.0    0.15    0.97    1.43     6.01797    -5.31497     1.12612
    12  H   1.0    0.16    1.03    1.43     3.23964    -5.07552     0.34774
    13  O   6.0   -0.29    2.06    1.83    -1.84173     2.76564     1.78079
    14  H   1.0    0.17    1.03    1.43    -1.40740     4.46857     2.25619
    15  H   1.0    0.18    1.04    1.43    -0.47416     2.19782     0.72156
    16  O   6.0   -0.21    2.92    2.59    -4.57285    -1.11016     0.68807
    17  H   1.0    0.14    1.05    1.44    -3.94526     0.50648     1.38266
    18  H   1.0    0.15    1.04    1.43    -4.53666    -1.13107    -1.17962
    19  H   1.0    0.14    0.98    1.43    -3.68060    -2.57935     1.42077

  Z AO/shell   Hii/eV     exponent
  1     Wed Apr 25 08:07:45 CEST 2018   EN: 2.200 GM2: 0.406  GM3: 0.0800  RAES: 1.40
     1s    -10.707211    1.230000
  8     Wed Apr 25 08:07:45 CEST 2018   EN: 3.440 GM2: 0.452  GM3:-0.0517  RAES: 1.80
     2s    -20.229985    2.439742
     2p    -15.503117    2.137023
 16     Tue Apr 24 11:44:34 CEST 2018   EN: 2.580 GM2: 0.340  GM3:-0.0502  RAES: 3.10
     3s    -20.029654    1.981333
     3p    -11.377694    2.025643
     3d     -0.420282    1.702555
 no old-style atom pair restraining (fixing) potential

molecular fragmentation (1/2 indicates fragments):
1111112222222222222
# atoms in fragment 1/2:     6    13
 fragment masses (1/2) :       97.07       73.07
CMA distance (Bohr)    :   4.740
constraining FC (au)   :  0.0500
           ------------------------------------------------- 
          |        Self-Consistent Charge Iterations        |
           ------------------------------------------------- 

 Ncao       : 52
 Nao        : 51
 Nshell     : 29
 Nel        : 64
 T(el)      :   300.0
 intcut     :    25.0
 scfconv/Eh :  0.100E-05
   qconv/e  :  0.100E-03
 intneglect :  0.100E-07
 broydamp   :      0.250
 iter      E             dE          RMSdq      gap      omega  full diag
   1    -41.0018665 -0.410019E+02  0.769E+00   10.65       0.0  T
   2    -41.0402672 -0.384008E-01  0.555E+00   10.15       1.0  T
   3    -41.0710396 -0.307724E-01  0.140E+00    8.54       1.0  T
   4    -41.0750995 -0.405988E-02  0.612E-01    8.50       1.0  T
   5    -41.0758066 -0.707102E-03  0.314E-01    8.42       1.0  T
   6    -41.0761206 -0.313993E-03  0.146E-01    8.43       1.0  T
   7    -41.0762088 -0.881610E-04  0.510E-02    8.49       1.0  T
   8    -41.0762179 -0.914692E-05  0.303E-02    8.49       1.0  T
   9    -41.0762222 -0.427390E-05  0.101E-02    8.48       2.3  T
  10    -41.0762226 -0.419088E-06  0.246E-03    8.48       9.3  T
  11    -41.0762226 -0.164758E-07  0.914E-04    8.48      25.1  T
  12    -41.0762226 -0.263970E-08  0.474E-04    8.48      48.4  T
speedup  1.03
cpu  time for SCC    0.01 s
wall time for SCC    0.01 s

   *** convergence criteria satisfied after 12 iterations ***

          eigenvalues
 #    :          20         21         22         23         24         25         26         27
 occ. :        2.000      2.000      2.000      2.000      2.000      2.000      2.000      2.000
 eps  :       -13.664    -13.482    -12.831    -12.600    -12.317    -11.806    -11.665    -11.488
 #    :          28         29         30         31         32         33         34         35
 occ. :        2.000      2.000      2.000      2.000      2.000      0.000      0.000      0.000
 eps  :       -11.229    -11.054    -10.728    -10.555    -10.356     -1.874     -0.650      0.540
 #    :          36         37         38         39         40         41         42         43
 occ. :        0.000      0.000      0.000      0.000      0.000      0.000      0.000      0.000
 eps  :         0.913      1.655      2.048      2.564      4.225      5.269      5.791      5.937


   #   Z            q   n(s)   n(p)   n(d)      C6AA      α(0)
   1  16 S      1.568  1.592  1.858  0.981    91.833    16.129
   2   8 O     -0.761  1.780  4.981  0.000    30.440     7.397
   3   8 O     -0.785  1.776  5.010  0.000    31.147     7.483
   4   8 O     -0.745  1.770  4.975  0.000    29.973     7.340
   5   8 O     -0.546  1.715  4.831  0.000    23.902     6.600
   6   1 H      0.384  0.616  0.000  0.000     0.507     1.115
   7   8 O     -0.569  1.735  4.834  0.000    24.464     6.676
   8   1 H      0.301  0.699  0.000  0.000     0.717     1.330
   9   1 H      0.291  0.709  0.000  0.000     0.747     1.358
  10   8 O     -0.607  1.740  4.867  0.000    25.355     6.796
  11   1 H      0.284  0.716  0.000  0.000     0.771     1.379
  12   1 H      0.314  0.686  0.000  0.000     0.682     1.297
  13   8 O     -0.655  1.730  4.925  0.000    26.547     6.954
  14   1 H      0.330  0.670  0.000  0.000     0.637     1.254
  15   1 H      0.327  0.673  0.000  0.000     0.644     1.261
  16   8 O     -0.389  1.626  4.763  0.000    20.580     6.127
  17   1 H      0.430  0.570  0.000  0.000     0.433     1.034
  18   1 H      0.420  0.580  0.000  0.000     0.450     1.053
  19   1 H      0.409  0.591  0.000  0.000     0.468     1.075

 Mol. C6AA /au·bohr⁶  :       3383.251849
 Mol. C8AA /au·bohr⁸  :      76837.196081
 Mol. α(0) /au        :         83.656977

 
 Wiberg/Mayer (AO) data. WBOs > 0.1 written file <wbo>
 largest (>0.05) Wiberg bond orders for each atom
           total WBO             WBO to atom ...
     1  S   4.930    O    4 1.313    O    2 1.295    O    3 1.272    O    5 1.022
     2  O   1.670    S    1 1.295    O    3 0.114    O    4 0.114    O    5 0.077
     3  O   1.645    S    1 1.272    O    2 0.114    O    4 0.111    O    5 0.076
     4  O   1.696    S    1 1.313    O    2 0.114    O    3 0.111    H   18 0.064    O    5 0.056
     5  O   2.052    S    1 1.022    H    6 0.807    O    2 0.077    O    3 0.076    O    4 0.056
     6  H   0.853    O    5 0.807
     7  O   1.863    H    8 0.907    H    9 0.906
     8  H   0.909    O    7 0.907
     9  H   0.915    O    7 0.906
    10  O   1.828    H   11 0.913    H   12 0.871
    11  H   0.919    O   10 0.913
    12  H   0.902    O   10 0.871
    13  O   1.845    H   15 0.841    H   14 0.841    H   17 0.087
    14  H   0.891    O   13 0.841
    15  H   0.893    O   13 0.841
    16  O   2.354    H   19 0.809    H   18 0.753    H   17 0.721
    17  H   0.815    O   16 0.721    O   13 0.087
    18  H   0.823    O   16 0.753    O    4 0.064
    19  H   0.832    O   16 0.809
 MOs/occ written to file <molden.input>
 
molecular dipole:
                 x           y           z       tot (Debye)
 q only:       -1.178       1.187       2.058
   full:       -0.303       1.263       1.890       5.829
molecular quadrupole (traceless):
                xx          xy          yy          xz          yz          zz
 q only:        7.018       3.917       7.011      -2.902      -1.929     -14.029
  q+dip:        1.868       4.645      13.028      -1.036      -1.519     -14.897
   full:        2.176       4.395      12.792      -1.370      -1.206     -14.968

SCC energy    :     -41.0762226
rep           :       0.2163479
ES            :       0.2522444
AES           :      -0.0528867
AXC           :      -0.0111940
disp          :      -0.0116741
XB            :       0.0000000
fix           :       0.0000000
total E       :     -40.8598263
atomizationE  :       3.6540135     2292.93
(atE without considering molecular charge,
 total energy contains solvation terms)
H-L gap (eV)  :          8.4822
           ------------------------------------------------- 
          |                 ===============                 |
          |                   A N C O P T                   |
          |                 ===============                 |
          |          Approximate Normal Coordinate          |
          |           Rational Function Optimizer           |
           ------------------------------------------------- 
dumping coords to <xtbopt.coord> and <xtbopt.log>
 optlevel               2
 Maxcycle             380
 Maxmicro              25
 Econv         1.000000000000000E-007
 Gconv         2.000000000000000E-004
 Maxdispl       1.00000000000000     
 Hlow          5.000000000000000E-003
 S6             20.0000000000000     
 Nvar               51

generating ANC from model Hessian ...
 Shifting diagonal of input Hessian by   5.230350060642010E-003
 Lowest  eigenvalues of input Hessian
    0.005000    0.005208   -0.000000   -0.000000   -0.000000    0.000000
    0.000000    0.000000    0.005408    0.005428    0.005606    0.005886
    0.006436    0.007499    0.007823    0.009011    0.009655    0.010027
 Highest eigenvalues
    1.455135    1.542842    1.556509    3.133229    3.206035    3.310260
 
cpu  time for ANC gen    0.00 s
wall time for ANC gen    0.00 s
................................................................................
.............................. CYCLE    1 ......................................
................................................................................
   1    -41.0762226 -0.410762E+02  0.106E-04    8.48       0.0  T
   2    -41.0762226 -0.141398E-10  0.784E-05    8.48     292.5  T
   3    -41.0762226 -0.915890E-11  0.283E-05    8.48     811.1  T
speedup  1.00
cpu  time for SCC    0.00 s
wall time for SCC    0.00 s
speedup  0.99
cpu  time for grad    0.01 s
wall time for grad    0.01 s
 E :    -40.85982631  G :  0.141715    pred/act E change:  0.000D+00  0.199D-07
Maxdispl :   0.2891   ||displ|| :   0.5047   Lambda : -0.237D-01
Largest |displ|/coords:  0.2891 (  22)  0.2008 (   6)  0.1469 (  15)
................................................................................
.............................. CYCLE    2 ......................................
................................................................................
   1    -41.0875277 -0.410875E+02  0.410E-01    8.95       0.0  T
   2    -41.0876551 -0.127402E-03  0.309E-01    9.00       1.0  T
   3    -41.0877106 -0.555236E-04  0.959E-02    9.10       1.0  T
   4    -41.0877245 -0.138836E-04  0.203E-02    9.09       1.1  T
   5    -41.0877255 -0.101175E-05  0.760E-03    9.09       3.0  T
   6    -41.0877256 -0.986019E-07  0.464E-03    9.09       4.9  T
   7    -41.0877257 -0.769644E-07  0.218E-03    9.09      10.5  T
speedup  0.93
cpu  time for SCC    0.00 s
wall time for SCC    0.00 s
speedup  0.99
cpu  time for grad    0.01 s
wall time for grad    0.01 s
 E :    -40.88017296  G :  0.093234    pred/act E change:  0.000D+00 -0.203D-01
Maxdispl :   0.3140   ||displ|| :   0.5219   Lambda : -0.161D-01
Largest |displ|/coords:  0.3140 (  22)  0.2405 (   6)  0.1729 (  18)
................................................................................
.............................. CYCLE    3 ......................................
................................................................................
   1    -41.0930324 -0.410930E+02  0.421E-01    9.20       0.0  T
   2    -41.0933633 -0.330894E-03  0.310E-01    9.24       1.0  T
   3    -41.0935065 -0.143191E-03  0.121E-01    9.29       1.0  T
   4    -41.0935241 -0.175408E-04  0.300E-02    9.29       1.0  T
   5    -41.0935253 -0.121033E-05  0.102E-02    9.29       2.2  T
   6    -41.0935255 -0.187822E-06  0.580E-03    9.29       4.0  T
   7    -41.0935256 -0.117157E-06  0.277E-03    9.29       8.3  T
speedup  0.93
cpu  time for SCC    0.00 s
wall time for SCC    0.00 s
speedup  0.97
cpu  time for grad    0.01 s
wall time for grad    0.01 s
 E :    -40.89221889  G :  0.056707    pred/act E change: -0.149D-01 -0.120D-01
Maxdispl :   0.2682   ||displ|| :   0.4079   Lambda : -0.539D-02
Largest |displ|/coords:  0.2682 (   6)  0.1476 (  18)  0.1365 (  13)
................................................................................
.............................. CYCLE    4 ......................................
................................................................................
   1    -41.0924267 -0.410924E+02  0.347E-01    9.29       0.0  T
   2    -41.0925946 -0.167907E-03  0.257E-01    9.31       1.0  T
   3    -41.0926605 -0.658195E-04  0.925E-02    9.34       1.0  T
   4    -41.0926724 -0.119200E-04  0.215E-02    9.34       1.1  T
   5    -41.0926733 -0.887598E-06  0.665E-03    9.34       3.5  T
   6    -41.0926733 -0.658197E-07  0.376E-03    9.34       6.1  T
   7    -41.0926734 -0.422659E-07  0.182E-03    9.34      12.6  T
speedup  0.93
cpu  time for SCC    0.00 s
wall time for SCC    0.00 s
speedup  0.97
cpu  time for grad    0.01 s
wall time for grad    0.01 s
 E :    -40.89566976  G :  0.036116    pred/act E change: -0.103D-01 -0.345D-02
Maxdispl :   0.1996   ||displ|| :   0.4708   Lambda : -0.352D-02
Largest |displ|/coords:  0.1996 (  10)  0.1544 (   4)  0.1375 (   8)
................................................................................
.............................. CYCLE    5 ......................................
................................................................................
   1    -41.0931234 -0.410931E+02  0.412E-01    9.24       0.0  T
   2    -41.0932055 -0.820658E-04  0.313E-01    9.27       1.0  T
   3    -41.0932348 -0.292756E-04  0.756E-02    9.32       1.0  T
   4    -41.0932479 -0.131236E-04  0.193E-02    9.30       1.2  T
   5    -41.0932485 -0.623418E-06  0.472E-03    9.30       4.9  T
   6    -41.0932485 -0.182659E-07  0.237E-03    9.30       9.7  T
speedup  1.05
cpu  time for SCC    0.00 s
wall time for SCC    0.00 s
speedup  1.03
cpu  time for grad    0.01 s
wall time for grad    0.01 s
 E :    -40.89724505  G :  0.025576    pred/act E change: -0.315D-02 -0.158D-02
Maxdispl :   0.2667   ||displ|| :   0.5149   Lambda : -0.360D-02
Largest |displ|/coords:  0.2667 (  13)  0.2153 (   8)  0.1674 (   1)
................................................................................
.............................. CYCLE    6 ......................................
................................................................................
   1    -41.0900369 -0.410900E+02  0.654E-01    9.15       0.0  T
   2    -41.0902056 -0.168684E-03  0.493E-01    9.18       1.0  T
   3    -41.0902921 -0.864933E-04  0.965E-02    9.23       1.0  T
   4    -41.0903170 -0.248647E-04  0.299E-02    9.21       1.0  T
   5    -41.0903187 -0.173742E-05  0.656E-03    9.21       3.5  T
   6    -41.0903187 -0.267985E-07  0.378E-03    9.21       6.1  T
   7    -41.0903187 -0.187182E-07  0.121E-03    9.21      18.9  T
speedup  1.16
cpu  time for SCC    0.01 s
wall time for SCC    0.00 s
speedup  1.09
cpu  time for grad    0.01 s
wall time for grad    0.01 s
 E :    -40.89691751  G :  0.044083    pred/act E change: -0.215D-02  0.328D-03
Maxdispl :   0.1387   ||displ|| :   0.2703   Lambda : -0.465D-02
Largest |displ|/coords:  0.1387 (  10)  0.1239 (  19)  0.0792 (   1)
................................................................................
.............................. CYCLE    7 ......................................
................................................................................
   1    -41.0990329 -0.410990E+02  0.380E-01    9.27       0.0  T
   2    -41.0991171 -0.841672E-04  0.283E-01    9.26       1.0  T
   3    -41.0991609 -0.437766E-04  0.657E-02    9.25       1.0  T
   4    -41.0991707 -0.982433E-05  0.205E-02    9.25       1.1  T
   5    -41.0991717 -0.102463E-05  0.508E-03    9.25       4.5  T
   6    -41.0991717 -0.702959E-08  0.296E-03    9.25       7.8  T
speedup  1.08
cpu  time for SCC    0.00 s
wall time for SCC    0.00 s
speedup  1.03
cpu  time for grad    0.01 s
wall time for grad    0.01 s
 E :    -40.89847361  G :  0.025005    pred/act E change: -0.228D-02 -0.156D-02
Maxdispl :   0.2215   ||displ|| :   0.3205   Lambda : -0.177D-02
Largest |displ|/coords:  0.2215 (   2)  0.0974 (   4)  0.0927 (  10)
................................................................................
.............................. CYCLE    8 ......................................
................................................................................
   1    -41.0955184 -0.410955E+02  0.496E-01    9.33       0.0  T
   2    -41.0955755 -0.570328E-04  0.377E-01    9.32       1.0  T
   3    -41.0956189 -0.433793E-04  0.489E-02    9.31       1.0  T
   4    -41.0956270 -0.818242E-05  0.130E-02    9.32       1.8  T
   5    -41.0956273 -0.252983E-06  0.476E-03    9.32       4.8  T
   6    -41.0956273 -0.736024E-08  0.267E-03    9.32       8.6  T
speedup  1.05
cpu  time for SCC    0.00 s
wall time for SCC    0.00 s
speedup  1.03
cpu  time for grad    0.01 s
wall time for grad    0.01 s
 E :    -40.89882773  G :  0.025631    pred/act E change: -0.249D-02 -0.354D-03
Maxdispl :   0.1761   ||displ|| :   0.2893   Lambda : -0.166D-02
Largest |displ|/coords:  0.1761 (   1)  0.1300 (   4)  0.1031 (   3)
................................................................................
.............................. CYCLE    9 ......................................
................................................................................
   1    -41.0982320 -0.410982E+02  0.444E-01    9.32       0.0  T
   2    -41.0982745 -0.425136E-04  0.338E-01    9.33       1.0  T
   3    -41.0983080 -0.334611E-04  0.404E-02    9.33       1.0  T
   4    -41.0983142 -0.617948E-05  0.744E-03    9.33       3.1  T
   5    -41.0983142 -0.424644E-07  0.375E-03    9.33       6.1  T
   6    -41.0983142 -0.357502E-08  0.165E-03    9.33      13.9  T
speedup  1.05
cpu  time for SCC    0.00 s
wall time for SCC    0.00 s
speedup  1.03
cpu  time for grad    0.01 s
wall time for grad    0.01 s
 E :    -40.89948075  G :  0.015237    pred/act E change: -0.975D-03 -0.653D-03
Maxdispl :   0.1875   ||displ|| :   0.4198   Lambda : -0.140D-02
Largest |displ|/coords:  0.1875 (   1)  0.1853 (  13)  0.1653 (   8)
................................................................................
.............................. CYCLE   10 ......................................
................................................................................
   1    -41.0921122 -0.410921E+02  0.435E-01    9.29       0.0  T
   2    -41.0921618 -0.495267E-04  0.331E-01    9.30       1.0  T
   3    -41.0921976 -0.358157E-04  0.454E-02    9.31       1.0  T
   4    -41.0922048 -0.719176E-05  0.159E-02    9.31       1.4  T
   5    -41.0922051 -0.315576E-06  0.448E-03    9.30       5.1  T
   6    -41.0922051 -0.167359E-07  0.274E-03    9.30       8.4  T
   7    -41.0922051 -0.942704E-08  0.657E-04    9.30      34.9  T
speedup  0.93
cpu  time for SCC    0.00 s
wall time for SCC    0.00 s
speedup  0.98
cpu  time for grad    0.01 s
wall time for grad    0.01 s
 E :    -40.89945766  G :  0.034749    pred/act E change: -0.900D-03  0.231D-04
Maxdispl :   0.1365   ||displ|| :   0.2889   Lambda : -0.245D-02
Largest |displ|/coords:  0.1365 (   1)  0.1068 (   8)  0.0988 (  14)
................................................................................
.............................. CYCLE   11 ......................................
................................................................................
   1    -41.1012627 -0.411013E+02  0.350E-01    9.28       0.0  T
   2    -41.1013361 -0.734353E-04  0.262E-01    9.28       1.0  T
   3    -41.1013760 -0.398413E-04  0.589E-02    9.29       1.0  T
   4    -41.1013854 -0.945507E-05  0.174E-02    9.28       1.3  T
   5    -41.1013860 -0.560352E-06  0.484E-03    9.29       4.7  T
   6    -41.1013860 -0.875020E-08  0.264E-03    9.29       8.7  T
speedup  0.81
cpu  time for SCC    0.00 s
wall time for SCC    0.00 s
speedup  0.93
cpu  time for grad    0.01 s
wall time for grad    0.01 s
 E :    -40.90004892  G :  0.026548    pred/act E change: -0.825D-03 -0.591D-03
Maxdispl :   0.1682   ||displ|| :   0.3703   Lambda : -0.239D-02
Largest |displ|/coords:  0.1682 (   7)  0.1619 (   2)  0.1336 (   4)
................................................................................
.............................. CYCLE   12 ......................................
................................................................................
   1    -41.1000995 -0.411001E+02  0.376E-01    9.37       0.0  T
   2    -41.1001720 -0.725655E-04  0.282E-01    9.37       1.0  T
   3    -41.1002020 -0.299549E-04  0.555E-02    9.36       1.0  T
   4    -41.1002146 -0.125679E-04  0.197E-02    9.37       1.2  T
   5    -41.1002152 -0.637372E-06  0.657E-03    9.37       3.5  T
   6    -41.1002152 -0.280726E-07  0.339E-03    9.37       6.8  T
   7    -41.1002152 -0.199612E-07  0.770E-04    9.37      29.8  T
speedup  0.95
cpu  time for SCC    0.00 s
wall time for SCC    0.00 s
speedup  0.98
cpu  time for grad    0.01 s
wall time for grad    0.01 s
 E :    -40.90053833  G :  0.026062    pred/act E change: -0.133D-02 -0.489D-03
Maxdispl :   0.1618   ||displ|| :   0.3383   Lambda : -0.193D-02
Largest |displ|/coords:  0.1618 (   1)  0.1491 (   4)  0.1192 (  13)
................................................................................
.............................. CYCLE   13 ......................................
................................................................................
   1    -41.1008605 -0.411009E+02  0.234E-01    9.37       0.0  T
   2    -41.1008780 -0.175593E-04  0.176E-01    9.37       1.0  T
   3    -41.1008904 -0.123096E-04  0.304E-02    9.37       1.0  T
   4    -41.1008926 -0.221134E-05  0.115E-02    9.38       2.0  T
   5    -41.1008927 -0.155762E-06  0.287E-03    9.37       8.0  T
   6    -41.1008927 -0.779017E-08  0.184E-03    9.37      12.5  T
speedup  1.05
cpu  time for SCC    0.00 s
wall time for SCC    0.00 s
speedup  1.01
cpu  time for grad    0.01 s
wall time for grad    0.01 s
 E :    -40.90160865  G :  0.023062    pred/act E change: -0.136D-02 -0.107D-02
Maxdispl :   0.2645   ||displ|| :   0.5202   Lambda : -0.184D-02
Largest |displ|/coords:  0.2645 (   1)  0.2007 (  13)  0.1964 (   2)
................................................................................
.............................. CYCLE   14 ......................................
................................................................................
   1    -41.1000518 -0.411001E+02  0.360E-01    9.30       0.0  T
   2    -41.1001772 -0.125413E-03  0.273E-01    9.30       1.0  T
   3    -41.1002339 -0.567057E-04  0.728E-02    9.31       1.0  T
   4    -41.1002513 -0.173902E-04  0.278E-02    9.31       1.0  T
   5    -41.1002524 -0.107502E-05  0.734E-03    9.31       3.1  T
   6    -41.1002524 -0.496692E-07  0.385E-03    9.31       6.0  T
   7    -41.1002525 -0.154243E-07  0.119E-03    9.31      19.2  T
speedup  0.95
cpu  time for SCC    0.00 s
wall time for SCC    0.00 s
speedup  0.98
cpu  time for grad    0.01 s
wall time for grad    0.01 s
 E :    -40.90279500  G :  0.023149    pred/act E change: -0.108D-02 -0.119D-02
Maxdispl :   0.2331   ||displ|| :   0.5735   Lambda : -0.179D-02
Largest |displ|/coords:  0.2331 (   1)  0.2150 (   4)  0.2122 (   8)
................................................................................
.............................. CYCLE   15 ......................................
................................................................................
   1    -41.1051818 -0.411052E+02  0.369E-01    9.36       0.0  T
   2    -41.1054042 -0.222367E-03  0.279E-01    9.36       1.0  T
   3    -41.1055113 -0.107053E-03  0.101E-01    9.28       1.0  T
   4    -41.1055321 -0.207978E-04  0.339E-02    9.27       1.0  T
   5    -41.1055336 -0.148923E-05  0.102E-02    9.28       2.2  T
   6    -41.1055336 -0.697575E-07  0.517E-03    9.28       4.4  T
   7    -41.1055337 -0.308093E-07  0.127E-03    9.28      18.0  T
speedup  0.95
cpu  time for SCC    0.00 s
wall time for SCC    0.00 s
speedup  0.98
cpu  time for grad    0.01 s
wall time for grad    0.01 s
 E :    -40.90398257  G :  0.032907    pred/act E change: -0.117D-02 -0.119D-02
Maxdispl :   0.2731   ||displ|| :   0.5044   Lambda : -0.274D-02
Largest |displ|/coords:  0.2731 (   2)  0.2012 (   3)  0.1443 (   6)
................................................................................
.............................. CYCLE   16 ......................................
................................................................................
   1    -41.1149429 -0.411149E+02  0.308E-01    9.33       0.0  T
   2    -41.1149977 -0.548629E-04  0.231E-01    9.29       1.0  T
   3    -41.1150315 -0.338220E-04  0.491E-02    9.21       1.0  T
   4    -41.1150396 -0.806445E-05  0.149E-02    9.22       1.5  T
   5    -41.1150399 -0.321477E-06  0.631E-03    9.22       3.6  T
   6    -41.1150400 -0.278425E-07  0.338E-03    9.22       6.8  T
   7    -41.1150400 -0.161869E-07  0.668E-04    9.22      34.4  T
speedup  0.93
cpu  time for SCC    0.00 s
wall time for SCC    0.00 s
speedup  0.97
cpu  time for grad    0.01 s
wall time for grad    0.01 s
 E :    -40.90542399  G :  0.021469    pred/act E change: -0.119D-02 -0.144D-02
Maxdispl :   0.2454   ||displ|| :   0.4259   Lambda : -0.221D-02
Largest |displ|/coords:  0.2454 (  11)  0.1716 (   2)  0.1606 (   1)
................................................................................
.............................. CYCLE   17 ......................................
................................................................................
   1    -41.1186131 -0.411186E+02  0.315E-01    9.07       0.0  T
   2    -41.1186502 -0.370722E-04  0.234E-01    9.04       1.0  T
   3    -41.1186708 -0.205444E-04  0.443E-02    8.98       1.0  T
   4    -41.1186755 -0.476951E-05  0.186E-02    8.99       1.2  T
   5    -41.1186759 -0.370397E-06  0.434E-03    9.00       5.3  T
   6    -41.1186759 -0.135272E-07  0.256E-03    9.00       9.0  T
speedup  0.81
cpu  time for SCC    0.00 s
wall time for SCC    0.00 s
speedup  0.92
cpu  time for grad    0.01 s
wall time for grad    0.01 s
 E :    -40.90604063  G :  0.026767    pred/act E change: -0.172D-02 -0.617D-03
Maxdispl :   0.2641   ||displ|| :   0.4594   Lambda : -0.197D-02
Largest |displ|/coords:  0.2641 (   2)  0.2445 (   8)  0.1981 (   1)
................................................................................
.............................. CYCLE   18 ......................................
................................................................................
   1    -41.1044197 -0.411044E+02  0.353E-01    8.84       0.0  T
   2    -41.1044747 -0.550565E-04  0.264E-01    8.85       1.0  T
   3    -41.1045170 -0.423113E-04  0.547E-02    8.85       1.0  T
   4    -41.1045234 -0.634997E-05  0.193E-02    8.84       1.2  T
   5    -41.1045240 -0.565249E-06  0.537E-03    8.83       4.3  T
   6    -41.1045240 -0.261553E-07  0.338E-03    8.83       6.8  T
speedup  1.11
cpu  time for SCC    0.00 s
wall time for SCC    0.00 s
speedup  1.05
cpu  time for grad    0.01 s
wall time for grad    0.01 s
 E :    -40.90602656  G :  0.037364    pred/act E change: -0.131D-02  0.141D-04
Maxdispl :   0.1123   ||displ|| :   0.2374   Lambda : -0.243D-02
Largest |displ|/coords:  0.1123 (   8)  0.0906 (   7)  0.0765 (  17)
................................................................................
.............................. CYCLE   19 ......................................
................................................................................
   1    -41.1240406 -0.411240E+02  0.287E-01    9.03       0.0  T
   2    -41.1240819 -0.413348E-04  0.213E-01    9.01       1.0  T
   3    -41.1241083 -0.263889E-04  0.449E-02    8.97       1.0  T
   4    -41.1241132 -0.488954E-05  0.767E-03    8.98       3.0  T
   5    -41.1241133 -0.472602E-07  0.440E-03    8.98       5.2  T
   6    -41.1241133 -0.129143E-07  0.133E-03    8.98      17.2  T
speedup  1.11
cpu  time for SCC    0.00 s
wall time for SCC    0.00 s
speedup  1.05
cpu  time for grad    0.01 s
wall time for grad    0.01 s
 E :    -40.90654251  G :  0.024224    pred/act E change: -0.119D-02 -0.516D-03
Maxdispl :   0.1345   ||displ|| :   0.2844   Lambda : -0.172D-02
Largest |displ|/coords:  0.1345 (   8)  0.1005 (  10)  0.0869 (  11)
................................................................................
.............................. CYCLE   20 ......................................
................................................................................
   1    -41.1179545 -0.411180E+02  0.300E-01    8.81       0.0  T
   2    -41.1179876 -0.330992E-04  0.225E-01    8.81       1.0  T
   3    -41.1180128 -0.252860E-04  0.391E-02    8.81       1.0  T
   4    -41.1180169 -0.404565E-05  0.115E-02    8.81       2.0  T
   5    -41.1180170 -0.145119E-06  0.476E-03    8.81       4.8  T
   6    -41.1180171 -0.230446E-07  0.247E-03    8.81       9.3  T
speedup  0.81
cpu  time for SCC    0.00 s
wall time for SCC    0.00 s
speedup  0.93
cpu  time for grad    0.01 s
wall time for grad    0.01 s
 E :    -40.90614137  G :  0.037366    pred/act E change: -0.128D-02  0.401D-03
Maxdispl :   0.0943   ||displ|| :   0.2024   Lambda : -0.234D-02
Largest |displ|/coords:  0.0943 (   8)  0.0937 (  13)  0.0803 (   7)
................................................................................
.............................. CYCLE   21 ......................................
................................................................................
   1    -41.1185927 -0.411186E+02  0.224E-01    8.89       0.0  T
   2    -41.1186238 -0.310595E-04  0.167E-01    8.89       1.0  T
   3    -41.1186445 -0.207179E-04  0.373E-02    8.90       1.0  T
   4    -41.1186480 -0.347410E-05  0.872E-03    8.90       2.6  T
   5    -41.1186481 -0.859071E-07  0.400E-03    8.90       5.7  T
   6    -41.1186481 -0.101843E-07  0.184E-03    8.90      12.4  T
speedup  0.98
cpu  time for SCC    0.00 s
wall time for SCC    0.01 s
speedup  0.99
cpu  time for grad    0.01 s
wall time for grad    0.01 s
 E :    -40.90680789  G :  0.026552    pred/act E change: -0.930D-03 -0.667D-03
Maxdispl :   0.2010   ||displ|| :   0.2856   Lambda : -0.155D-02
Largest |displ|/coords:  0.2010 (   5)  0.1301 (   8)  0.0781 (   3)
................................................................................
.............................. CYCLE   22 ......................................
................................................................................
   1    -41.1164370 -0.411164E+02  0.313E-01    8.87       0.0  T
   2    -41.1164672 -0.302800E-04  0.235E-01    8.87       1.0  T
   3    -41.1164914 -0.241463E-04  0.363E-02    8.89       1.0  T
   4    -41.1164952 -0.383414E-05  0.111E-02    8.88       2.1  T
   5    -41.1164954 -0.133008E-06  0.511E-03    8.88       4.5  T
   6    -41.1164954 -0.197331E-07  0.238E-03    8.88       9.7  T
speedup  0.79
cpu  time for SCC    0.00 s
wall time for SCC    0.00 s
speedup  0.91
cpu  time for grad    0.01 s
wall time for grad    0.01 s
 E :    -40.90666565  G :  0.029839    pred/act E change: -0.122D-02  0.142D-03
Maxdispl :   0.1072   ||displ|| :   0.2044   Lambda : -0.131D-02
Largest |displ|/coords:  0.1072 (   8)  0.1044 (   5)  0.0638 (   2)
................................................................................
.............................. CYCLE   23 ......................................
................................................................................
   1    -41.1205518 -0.411206E+02  0.180E-01    8.90       0.0  T
   2    -41.1205678 -0.159399E-04  0.135E-01    8.89       1.0  T
   3    -41.1205794 -0.116091E-04  0.277E-02    8.85       1.0  T
   4    -41.1205814 -0.206785E-05  0.744E-03    8.86       3.1  T
   5    -41.1205815 -0.511594E-07  0.339E-03    8.86       6.8  T
   6    -41.1205815 -0.988463E-08  0.151E-03    8.86      15.2  T
speedup  1.03
cpu  time for SCC    0.00 s
wall time for SCC    0.00 s
speedup  1.01
cpu  time for grad    0.01 s
wall time for grad    0.01 s
 E :    -40.90716677  G :  0.015294    pred/act E change: -0.836D-03 -0.501D-03
Maxdispl :   0.1005   ||displ|| :   0.2101   Lambda : -0.979D-03
Largest |displ|/coords:  0.1005 (   6)  0.0856 (   5)  0.0711 (  22)
................................................................................
.............................. CYCLE   24 ......................................
................................................................................
   1    -41.1182868 -0.411183E+02  0.207E-01    8.84       0.0  T
   2    -41.1183193 -0.325311E-04  0.156E-01    8.86       1.0  T
   3    -41.1183423 -0.230089E-04  0.397E-02    8.90       1.0  T
   4    -41.1183464 -0.403261E-05  0.126E-02    8.90       1.8  T
   5    -41.1183465 -0.182605E-06  0.486E-03    8.90       4.7  T
   6    -41.1183466 -0.310434E-07  0.254E-03    8.90       9.0  T
   7    -41.1183466 -0.668389E-08  0.725E-04    8.90      31.7  T
speedup  0.93
cpu  time for SCC    0.00 s
wall time for SCC    0.00 s
speedup  0.97
cpu  time for grad    0.01 s
wall time for grad    0.01 s
 E :    -40.90686564  G :  0.024813    pred/act E change: -0.684D-03  0.301D-03
Maxdispl :   0.0750   ||displ|| :   0.1902   Lambda : -0.102D-02
Largest |displ|/coords:  0.0750 (   5)  0.0750 (   8)  0.0715 (   4)
................................................................................
.............................. CYCLE   25 ......................................
................................................................................
   1    -41.1181609 -0.411182E+02  0.154E-01    8.87       0.0  T
   2    -41.1181759 -0.149834E-04  0.116E-01    8.86       1.0  T
   3    -41.1181858 -0.992286E-05  0.266E-02    8.83       1.0  T
   4    -41.1181879 -0.208811E-05  0.932E-03    8.83       2.5  T
   5    -41.1181880 -0.105960E-06  0.349E-03    8.83       6.6  T
   6    -41.1181880 -0.135682E-07  0.178E-03    8.83      12.9  T
speedup  1.08
cpu  time for SCC    0.00 s
wall time for SCC    0.00 s
speedup  1.03
cpu  time for grad    0.01 s
wall time for grad    0.01 s
 E :    -40.90744887  G :  0.010381    pred/act E change: -0.511D-03 -0.583D-03
Maxdispl :   0.0652   ||displ|| :   0.1419   Lambda : -0.260D-03
Largest |displ|/coords:  0.0652 (   2)  0.0518 (  12)  0.0517 (   1)

generating ANC from model Hessian ...
 Shifting diagonal of input Hessian by   5.159299131231147E-003
 Lowest  eigenvalues of input Hessian
    0.005000   -0.000000   -0.000000   -0.000000    0.000000    0.000000
    0.000000    0.005265    0.005353    0.005571    0.005934    0.006639
    0.006917    0.008668    0.008965    0.009517    0.011937    0.013168
 Highest eigenvalues
    1.375867    1.411805    1.438738    2.623497    3.372680    3.706563
 
cpu  time for ANC gen    0.01 s
wall time for ANC gen    0.00 s
................................................................................
.............................. CYCLE   26 ......................................
................................................................................
   1    -41.1198687 -0.411199E+02  0.106E-01    8.89       0.0  T
   2    -41.1198728 -0.417805E-05  0.804E-02    8.90       1.0  T
   3    -41.1198762 -0.332101E-05  0.138E-02    8.90       1.7  T
   4    -41.1198767 -0.532111E-06  0.445E-03    8.89       5.2  T
   5    -41.1198767 -0.260116E-07  0.164E-03    8.89      14.0  T
   6    -41.1198767 -0.233324E-08  0.833E-04    8.89      27.5  T
   7    -41.1198767 -0.100046E-08  0.229E-04    8.89     100.2  T
speedup  1.14
cpu  time for SCC    0.00 s
wall time for SCC    0.00 s
speedup  1.03
cpu  time for grad    0.01 s
wall time for grad    0.01 s
 E :    -40.90749859  G :  0.011142    pred/act E change:  0.000D+00 -0.497D-04
Maxdispl :   0.1065   ||displ|| :   0.1790   Lambda : -0.378D-03
Largest |displ|/coords:  0.1065 (   3)  0.0876 (   8)  0.0593 (   2)
................................................................................
.............................. CYCLE   27 ......................................
................................................................................
   1    -41.1198060 -0.411198E+02  0.176E-01    8.87       0.0  T
   2    -41.1198097 -0.369328E-05  0.134E-01    8.87       1.0  T
   3    -41.1198142 -0.455130E-05  0.107E-02    8.87       2.1  T
   4    -41.1198144 -0.216499E-06  0.405E-03    8.87       5.7  T
   5    -41.1198144 -0.138335E-07  0.134E-03    8.87      17.2  T
   6    -41.1198144 -0.122881E-08  0.623E-04    8.87      36.8  T
speedup  1.05
cpu  time for SCC    0.00 s
wall time for SCC    0.00 s
speedup  1.02
cpu  time for grad    0.01 s
wall time for grad    0.01 s
 E :    -40.90780231  G :  0.006684    pred/act E change:  0.000D+00 -0.304D-03
Maxdispl :   0.2859   ||displ|| :   0.4127   Lambda : -0.548D-03
Largest |displ|/coords:  0.2859 (   3)  0.1667 (   2)  0.1505 (   8)
................................................................................
.............................. CYCLE   28 ......................................
................................................................................
   1    -41.1164455 -0.411164E+02  0.311E-01    8.80       0.0  T
   2    -41.1164588 -0.132585E-04  0.235E-01    8.80       1.0  T
   3    -41.1164729 -0.141289E-04  0.219E-02    8.81       1.0  T
   4    -41.1164742 -0.126232E-05  0.807E-03    8.81       2.8  T
   5    -41.1164742 -0.799426E-07  0.312E-03    8.81       7.3  T
   6    -41.1164742 -0.627468E-08  0.158E-03    8.81      14.5  T
   7    -41.1164742 -0.504762E-08  0.373E-04    8.81      61.5  T
speedup  1.16
cpu  time for SCC    0.00 s
wall time for SCC    0.00 s
speedup  1.08
cpu  time for grad    0.01 s
wall time for grad    0.01 s
 E :    -40.90809865  G :  0.015304    pred/act E change: -0.195D-03 -0.296D-03
Maxdispl :   0.1697   ||displ|| :   0.2502   Lambda : -0.412D-03
Largest |displ|/coords:  0.1697 (   3)  0.1139 (   2)  0.0780 (   1)
................................................................................
.............................. CYCLE   29 ......................................
................................................................................
   1    -41.1178173 -0.411178E+02  0.141E-01    8.75       0.0  T
   2    -41.1178218 -0.450215E-05  0.106E-01    8.75       1.0  T
   3    -41.1178248 -0.300480E-05  0.147E-02    8.75       1.6  T
   4    -41.1178255 -0.655692E-06  0.301E-03    8.76       7.6  T
   5    -41.1178255 -0.949723E-08  0.132E-03    8.76      17.4  T
   6    -41.1178255 -0.662816E-09  0.669E-04    8.76      34.3  T
speedup  0.79
cpu  time for SCC    0.00 s
wall time for SCC    0.00 s
speedup  0.91
cpu  time for grad    0.01 s
wall time for grad    0.01 s
 E :    -40.90836441  G :  0.011183    pred/act E change: -0.320D-03 -0.266D-03
Maxdispl :   0.3086   ||displ|| :   0.4243   Lambda : -0.464D-03
Largest |displ|/coords:  0.3086 (   3)  0.2028 (   2)  0.1288 (   1)
................................................................................
.............................. CYCLE   30 ......................................
................................................................................
   1    -41.1180614 -0.411181E+02  0.168E-01    8.76       0.0  T
   2    -41.1180665 -0.504943E-05  0.127E-01    8.77       1.0  T
   3    -41.1180712 -0.477716E-05  0.151E-02    8.79       1.5  T
   4    -41.1180718 -0.593198E-06  0.544E-03    8.79       4.2  T
   5    -41.1180719 -0.297091E-07  0.191E-03    8.79      12.0  T
   6    -41.1180719 -0.255224E-08  0.105E-03    8.79      21.9  T
speedup  1.05
cpu  time for SCC    0.00 s
wall time for SCC    0.00 s
speedup  0.90
cpu  time for grad    0.01 s
wall time for grad    0.01 s
 E :    -40.90878872  G :  0.008846    pred/act E change: -0.219D-03 -0.424D-03
Maxdispl :   0.5782   ||displ|| :   0.7864   Lambda : -0.911D-03
Largest |displ|/coords:  0.5782 (   3)  0.3563 (   2)  0.2112 (   1)
................................................................................
.............................. CYCLE   31 ......................................
................................................................................
   1    -41.1172236 -0.411172E+02  0.295E-01    8.89       0.0  T
   2    -41.1172436 -0.200636E-04  0.223E-01    8.92       1.0  T
   3    -41.1172611 -0.175087E-04  0.304E-02    8.98       1.0  T
   4    -41.1172637 -0.252150E-05  0.102E-02    8.97       2.2  T
   5    -41.1172638 -0.120024E-06  0.383E-03    8.96       6.0  T
   6    -41.1172638 -0.100967E-07  0.213E-03    8.96      10.8  T
   7    -41.1172638 -0.528028E-08  0.517E-04    8.96      44.4  T
speedup  0.93
cpu  time for SCC    0.00 s
wall time for SCC    0.00 s
speedup  0.96
cpu  time for grad    0.01 s
wall time for grad    0.01 s
 E :    -40.90953764  G :  0.013535    pred/act E change: -0.274D-03 -0.749D-03
Maxdispl :   0.5309   ||displ|| :   0.7248   Lambda : -0.820D-03
Largest |displ|/coords:  0.5309 (   3)  0.2814 (   2)  0.1886 (   6)
................................................................................
.............................. CYCLE   32 ......................................
................................................................................
   1    -41.1189248 -0.411189E+02  0.245E-01    9.09       0.0  T
   2    -41.1189388 -0.139794E-04  0.183E-01    9.12       1.0  T
   3    -41.1189465 -0.770025E-05  0.273E-02    9.17       1.0  T
   4    -41.1189485 -0.205247E-05  0.564E-03    9.16       4.1  T
   5    -41.1189485 -0.295923E-07  0.258E-03    9.16       8.9  T
   6    -41.1189486 -0.464103E-08  0.126E-03    9.16      18.3  T
speedup  1.08
cpu  time for SCC    0.00 s
wall time for SCC    0.00 s
speedup  1.00
cpu  time for grad    0.01 s
wall time for grad    0.01 s
 E :    -40.91019585  G :  0.019513    pred/act E change: -0.737D-03 -0.658D-03
Maxdispl :   0.4821   ||displ|| :   0.6058   Lambda : -0.933D-03
Largest |displ|/coords:  0.4821 (   3)  0.1867 (   7)  0.1726 (   2)
................................................................................
.............................. CYCLE   33 ......................................
................................................................................
   1    -41.1205796 -0.411206E+02  0.209E-01    9.24       0.0  T
   2    -41.1205964 -0.167484E-04  0.155E-01    9.25       1.0  T
   3    -41.1206064 -0.100631E-04  0.295E-02    9.21       1.0  T
   4    -41.1206086 -0.215779E-05  0.731E-03    9.23       3.1  T
   5    -41.1206087 -0.807712E-07  0.288E-03    9.23       8.0  T
   6    -41.1206087 -0.619075E-08  0.162E-03    9.23      14.1  T
speedup  1.05
cpu  time for SCC    0.00 s
wall time for SCC    0.00 s
speedup  1.00
cpu  time for grad    0.01 s
wall time for grad    0.01 s
 E :    -40.91077674  G :  0.016258    pred/act E change: -0.626D-03 -0.581D-03
Maxdispl :   0.1667   ||displ|| :   0.3390   Lambda : -0.110D-02
Largest |displ|/coords:  0.1667 (   4)  0.1434 (   3)  0.1331 (   7)
................................................................................
.............................. CYCLE   34 ......................................
................................................................................
   1    -41.1203410 -0.411203E+02  0.309E-01    9.19       0.0  T
   2    -41.1203538 -0.127709E-04  0.231E-01    9.17       1.0  T
   3    -41.1203606 -0.680734E-05  0.324E-02    9.13       1.0  T
   4    -41.1203627 -0.216026E-05  0.871E-03    9.13       2.6  T
   5    -41.1203628 -0.920314E-07  0.328E-03    9.14       7.0  T
   6    -41.1203628 -0.463589E-08  0.172E-03    9.14      13.3  T
   7    -41.1203628 -0.392321E-08  0.467E-04    9.14      49.1  T
speedup  0.93
cpu  time for SCC    0.00 s
wall time for SCC    0.00 s
speedup  0.95
cpu  time for grad    0.01 s
wall time for grad    0.01 s
 E :    -40.91139173  G :  0.018759    pred/act E change: -0.638D-03 -0.615D-03
Maxdispl :   0.1780   ||displ|| :   0.3650   Lambda : -0.111D-02
Largest |displ|/coords:  0.1780 (  12)  0.1674 (   2)  0.1437 (   3)
................................................................................
.............................. CYCLE   35 ......................................
................................................................................
   1    -41.1213132 -0.411213E+02  0.277E-01    9.14       0.0  T
   2    -41.1213353 -0.221668E-04  0.206E-01    9.15       1.0  T
   3    -41.1213474 -0.121179E-04  0.401E-02    9.11       1.0  T
   4    -41.1213506 -0.312756E-05  0.122E-02    9.12       1.9  T
   5    -41.1213508 -0.188738E-06  0.367E-03    9.12       6.2  T
   6    -41.1213508 -0.891344E-08  0.207E-03    9.12      11.1  T
   7    -41.1213508 -0.546286E-08  0.718E-04    9.12      32.0  T
speedup  1.16
cpu  time for SCC    0.00 s
wall time for SCC    0.00 s
speedup  1.05
cpu  time for grad    0.01 s
wall time for grad    0.01 s
 E :    -40.91155236  G :  0.019994    pred/act E change: -0.615D-03 -0.161D-03
Maxdispl :   0.3071   ||displ|| :   0.4229   Lambda : -0.119D-02
Largest |displ|/coords:  0.3071 (   3)  0.1949 (   2)  0.1332 (   1)
................................................................................
.............................. CYCLE   36 ......................................
................................................................................
   1    -41.1106308 -0.411106E+02  0.262E-01    8.82       0.0  T
   2    -41.1106501 -0.192632E-04  0.197E-01    8.82       1.0  T
   3    -41.1106653 -0.151905E-04  0.312E-02    8.80       1.0  T
   4    -41.1106678 -0.254393E-05  0.104E-02    8.78       2.2  T
   5    -41.1106680 -0.148116E-06  0.376E-03    8.78       6.1  T
   6    -41.1106680 -0.111744E-07  0.200E-03    8.78      11.5  T
   7    -41.1106680 -0.798990E-08  0.545E-04    8.78      42.1  T
speedup  0.91
cpu  time for SCC    0.00 s
wall time for SCC    0.00 s
speedup  1.04
cpu  time for grad    0.01 s
wall time for grad    0.01 s
 E :    -40.91134060  G :  0.035217    pred/act E change: -0.629D-03  0.212D-03
Maxdispl :   0.1573   ||displ|| :   0.3508   Lambda : -0.285D-02
Largest |displ|/coords:  0.1573 (   8)  0.1316 (   7)  0.1148 (  12)
................................................................................
.............................. CYCLE   37 ......................................
................................................................................
   1    -41.1201109 -0.411201E+02  0.386E-01    8.85       0.0  T
   2    -41.1201401 -0.291906E-04  0.292E-01    8.84       1.0  T
   3    -41.1201666 -0.265335E-04  0.402E-02    8.81       1.0  T
   4    -41.1201701 -0.353526E-05  0.130E-02    8.83       1.8  T
   5    -41.1201703 -0.183933E-06  0.496E-03    8.83       4.6  T
   6    -41.1201703 -0.100615E-07  0.241E-03    8.83       9.5  T
speedup  1.08
cpu  time for SCC    0.00 s
wall time for SCC    0.00 s
speedup  1.02
cpu  time for grad    0.01 s
wall time for grad    0.01 s
 E :    -40.91155417  G :  0.021941    pred/act E change: -0.700D-03 -0.214D-03
Maxdispl :   0.0842   ||displ|| :   0.2078   Lambda : -0.204D-02
Largest |displ|/coords:  0.0842 (  20)  0.0774 (  10)  0.0727 (  11)
................................................................................
.............................. CYCLE   38 ......................................
................................................................................
   1    -41.1239434 -0.411239E+02  0.334E-01    9.00       0.0  T
   2    -41.1239716 -0.282293E-04  0.253E-01    8.99       1.0  T
   3    -41.1239931 -0.215203E-04  0.356E-02    8.96       1.0  T
   4    -41.1239970 -0.388181E-05  0.115E-02    8.98       2.0  T
   5    -41.1239973 -0.230844E-06  0.392E-03    8.99       5.8  T
   6    -41.1239973 -0.484768E-08  0.212E-03    8.99      10.8  T
speedup  1.08
cpu  time for SCC    0.00 s
wall time for SCC    0.00 s
speedup  1.01
cpu  time for grad    0.01 s
wall time for grad    0.01 s
 E :    -40.91220909  G :  0.017663    pred/act E change: -0.160D-02 -0.655D-03
Maxdispl :   0.1203   ||displ|| :   0.1706   Lambda : -0.758D-03
Largest |displ|/coords:  0.1203 (  12)  0.0657 (   7)  0.0432 (   8)
................................................................................
.............................. CYCLE   39 ......................................
................................................................................
   1    -41.1193100 -0.411193E+02  0.166E-01    8.89       0.0  T
   2    -41.1193166 -0.659022E-05  0.124E-01    8.90       1.0  T
   3    -41.1193209 -0.427896E-05  0.186E-02    8.92       1.2  T
   4    -41.1193218 -0.910180E-06  0.564E-03    8.90       4.1  T
   5    -41.1193218 -0.466140E-07  0.215E-03    8.90      10.7  T
   6    -41.1193218 -0.288593E-08  0.122E-03    8.90      18.8  T
speedup  1.05
cpu  time for SCC    0.00 s
wall time for SCC    0.00 s
speedup  1.00
cpu  time for grad    0.01 s
wall time for grad    0.01 s
 E :    -40.91254320  G :  0.009805    pred/act E change: -0.106D-02 -0.334D-03
Maxdispl :   0.0895   ||displ|| :   0.1728   Lambda : -0.250D-03
Largest |displ|/coords:  0.0895 (   3)  0.0873 (   7)  0.0711 (   2)
................................................................................
.............................. CYCLE   40 ......................................
................................................................................
   1    -41.1196642 -0.411197E+02  0.104E-01    8.85       0.0  T
   2    -41.1196665 -0.230015E-05  0.785E-02    8.84       1.0  T
   3    -41.1196685 -0.195656E-05  0.984E-03    8.81       2.3  T
   4    -41.1196688 -0.315055E-06  0.333E-03    8.81       6.9  T
   5    -41.1196688 -0.173975E-07  0.130E-03    8.81      17.6  T
   6    -41.1196688 -0.115428E-08  0.628E-04    8.81      36.5  T
speedup  1.08
cpu  time for SCC    0.00 s
wall time for SCC    0.00 s
speedup  1.01
cpu  time for grad    0.01 s
wall time for grad    0.01 s
 E :    -40.91268595  G :  0.007961    pred/act E change: -0.390D-03 -0.143D-03
Maxdispl :   0.0529   ||displ|| :   0.1320   Lambda : -0.202D-03
Largest |displ|/coords:  0.0529 (  18)  0.0505 (   3)  0.0499 (   1)
................................................................................
.............................. CYCLE   41 ......................................
................................................................................
   1    -41.1208426 -0.411208E+02  0.112E-01    8.82       0.0  T
   2    -41.1208444 -0.176002E-05  0.833E-02    8.82       1.0  T
   3    -41.1208458 -0.136492E-05  0.133E-02    8.84       1.7  T
   4    -41.1208460 -0.228462E-06  0.415E-03    8.84       5.5  T
   5    -41.1208460 -0.144740E-07  0.115E-03    8.84      19.9  T
   6    -41.1208460 -0.102492E-08  0.693E-04    8.84      33.1  T
speedup  0.81
cpu  time for SCC    0.00 s
wall time for SCC    0.00 s
speedup  1.01
cpu  time for grad    0.01 s
wall time for grad    0.01 s
 E :    -40.91277496  G :  0.005253    pred/act E change: -0.129D-03 -0.890D-04
Maxdispl :   0.1196   ||displ|| :   0.2045   Lambda : -0.206D-03
Largest |displ|/coords:  0.1196 (   7)  0.0715 (  18)  0.0648 (  12)
................................................................................
.............................. CYCLE   42 ......................................
................................................................................
   1    -41.1209298 -0.411209E+02  0.181E-01    8.83       0.0  T
   2    -41.1209354 -0.559485E-05  0.135E-01    8.81       1.0  T
   3    -41.1209391 -0.368007E-05  0.172E-02    8.78       1.3  T
   4    -41.1209399 -0.834587E-06  0.519E-03    8.79       4.4  T
   5    -41.1209400 -0.522018E-07  0.189E-03    8.79      12.1  T
   6    -41.1209400 -0.154593E-08  0.110E-03    8.79      20.9  T
speedup  0.81
cpu  time for SCC    0.00 s
wall time for SCC    0.00 s
speedup  1.01
cpu  time for grad    0.01 s
wall time for grad    0.01 s
 E :    -40.91288936  G :  0.007819    pred/act E change: -0.103D-03 -0.114D-03
Maxdispl :   0.0678   ||displ|| :   0.1356   Lambda : -0.174D-03
Largest |displ|/coords:  0.0678 (   7)  0.0520 (  11)  0.0472 (   6)
................................................................................
.............................. CYCLE   43 ......................................
................................................................................
   1    -41.1234885 -0.411235E+02  0.135E-01    8.81       0.0  T
   2    -41.1234931 -0.457167E-05  0.101E-01    8.80       1.0  T
   3    -41.1234958 -0.267697E-05  0.170E-02    8.79       1.3  T
   4    -41.1234964 -0.684023E-06  0.440E-03    8.79       5.2  T
   5    -41.1234965 -0.401848E-07  0.137E-03    8.79      16.7  T
   6    -41.1234965 -0.503043E-09  0.810E-04    8.79      28.3  T
speedup  1.08
cpu  time for SCC    0.00 s
wall time for SCC    0.00 s
speedup  1.01
cpu  time for grad    0.01 s
wall time for grad    0.01 s
 E :    -40.91294072  G :  0.006311    pred/act E change: -0.107D-03 -0.514D-04
Maxdispl :   0.0728   ||displ|| :   0.1285   Lambda : -0.187D-03
Largest |displ|/coords:  0.0728 (   2)  0.0489 (   4)  0.0468 (   8)
................................................................................
.............................. CYCLE   44 ......................................
................................................................................
   1    -41.1232397 -0.411232E+02  0.976E-02    8.83       0.0  T
   2    -41.1232424 -0.267989E-05  0.728E-02    8.84       1.0  T
   3    -41.1232442 -0.177914E-05  0.122E-02    8.87       1.9  T
   4    -41.1232445 -0.354163E-06  0.409E-03    8.86       5.6  T
   5    -41.1232445 -0.291367E-07  0.143E-03    8.86      16.0  T
   6    -41.1232445 -0.165191E-08  0.756E-04    8.86      30.4  T
speedup  1.05
cpu  time for SCC    0.00 s
wall time for SCC    0.00 s
speedup  1.00
cpu  time for grad    0.01 s
wall time for grad    0.01 s
 E :    -40.91299765  G :  0.009171    pred/act E change: -0.888D-04 -0.569D-04
Maxdispl :   0.0717   ||displ|| :   0.1279   Lambda : -0.158D-03
Largest |displ|/coords:  0.0717 (   7)  0.0401 (   8)  0.0398 (   6)
................................................................................
.............................. CYCLE   45 ......................................
................................................................................
   1    -41.1224710 -0.411225E+02  0.110E-01    8.83       0.0  T
   2    -41.1224729 -0.184402E-05  0.829E-02    8.82       1.0  T
   3    -41.1224749 -0.200884E-05  0.810E-03    8.82       2.8  T
   4    -41.1224750 -0.169239E-06  0.281E-03    8.82       8.2  T
   5    -41.1224750 -0.842802E-08  0.115E-03    8.82      20.0  T
speedup  0.97
cpu  time for SCC    0.00 s
wall time for SCC    0.00 s
speedup  0.95
cpu  time for grad    0.01 s
wall time for grad    0.01 s
 E :    -40.91309614  G :  0.006439    pred/act E change: -0.950D-04 -0.985D-04
Maxdispl :   0.0687   ||displ|| :   0.1429   Lambda : -0.149D-03
Largest |displ|/coords:  0.0687 (   6)  0.0637 (   1)  0.0484 (   8)
................................................................................
.............................. CYCLE   46 ......................................
................................................................................
   1    -41.1235664 -0.411236E+02  0.113E-01    8.81       0.0  T
   2    -41.1235687 -0.230608E-05  0.856E-02    8.81       1.0  T
   3    -41.1235708 -0.207385E-05  0.987E-03    8.80       2.3  T
   4    -41.1235711 -0.299783E-06  0.349E-03    8.80       6.6  T
   5    -41.1235711 -0.153942E-07  0.110E-03    8.81      20.9  T
   6    -41.1235711 -0.835101E-09  0.607E-04    8.81      37.8  T
speedup  1.08
cpu  time for SCC    0.00 s
wall time for SCC    0.00 s
speedup  1.01
cpu  time for grad    0.01 s
wall time for grad    0.01 s
 E :    -40.91320293  G :  0.005902    pred/act E change: -0.804D-04 -0.107D-03
Maxdispl :   0.1587   ||displ|| :   0.3995   Lambda : -0.267D-03
Largest |displ|/coords:  0.1587 (  18)  0.1521 (   6)  0.1475 (   8)
................................................................................
.............................. CYCLE   47 ......................................
................................................................................
   1    -41.1199851 -0.411200E+02  0.319E-01    8.68       0.0  T
   2    -41.1200040 -0.188864E-04  0.240E-01    8.68       1.0  T
   3    -41.1200178 -0.138297E-04  0.337E-02    8.67       1.0  T
   4    -41.1200208 -0.293201E-05  0.864E-03    8.67       2.7  T
   5    -41.1200208 -0.782281E-07  0.311E-03    8.67       7.4  T
   6    -41.1200209 -0.622236E-08  0.135E-03    8.67      17.0  T
   7    -41.1200209 -0.420477E-08  0.352E-04    8.67      65.2  T
speedup  1.14
cpu  time for SCC    0.00 s
wall time for SCC    0.00 s
speedup  1.03
cpu  time for grad    0.01 s
wall time for grad    0.01 s
 E :    -40.91335729  G :  0.010200    pred/act E change: -0.759D-04 -0.154D-03
Maxdispl :   0.1127   ||displ|| :   0.2333   Lambda : -0.292D-03
Largest |displ|/coords:  0.1127 (   1)  0.0799 (   5)  0.0751 (   8)
................................................................................
.............................. CYCLE   48 ......................................
................................................................................
   1    -41.1217571 -0.411218E+02  0.176E-01    8.70       0.0  T
   2    -41.1217645 -0.741351E-05  0.132E-01    8.70       1.0  T
   3    -41.1217679 -0.341621E-05  0.233E-02    8.72       1.0  T
   4    -41.1217692 -0.127154E-05  0.542E-03    8.72       4.2  T
   5    -41.1217693 -0.362066E-07  0.172E-03    8.72      13.3  T
   6    -41.1217693 -0.881293E-09  0.925E-04    8.72      24.8  T
speedup  1.05
cpu  time for SCC    0.00 s
wall time for SCC    0.00 s
speedup  1.00
cpu  time for grad    0.01 s
wall time for grad    0.01 s
 E :    -40.91351511  G :  0.010809    pred/act E change: -0.155D-03 -0.158D-03
Maxdispl :   0.0750   ||displ|| :   0.1651   Lambda : -0.202D-03
Largest |displ|/coords:  0.0750 (   3)  0.0628 (   5)  0.0489 (   8)
................................................................................
.............................. CYCLE   49 ......................................
................................................................................
   1    -41.1219158 -0.411219E+02  0.136E-01    8.77       0.0  T
   2    -41.1219196 -0.379465E-05  0.101E-01    8.76       1.0  T
   3    -41.1219216 -0.202969E-05  0.179E-02    8.76       1.3  T
   4    -41.1219223 -0.625312E-06  0.493E-03    8.76       4.7  T
   5    -41.1219223 -0.158426E-07  0.116E-03    8.76      19.7  T
   6    -41.1219223 -0.791267E-09  0.747E-04    8.76      30.7  T
speedup  1.05
cpu  time for SCC    0.00 s
wall time for SCC    0.00 s
speedup  1.00
cpu  time for grad    0.01 s
wall time for grad    0.01 s
 E :    -40.91365386  G :  0.006999    pred/act E change: -0.154D-03 -0.139D-03
Maxdispl :   0.1194   ||displ|| :   0.2954   Lambda : -0.280D-03
Largest |displ|/coords:  0.1194 (   2)  0.1100 (   7)  0.0975 (   8)
................................................................................
.............................. CYCLE   50 ......................................
................................................................................
   1    -41.1216304 -0.411216E+02  0.250E-01    8.71       0.0  T
   2    -41.1216417 -0.112735E-04  0.187E-01    8.71       1.0  T
   3    -41.1216492 -0.753034E-05  0.311E-02    8.70       1.0  T
   4    -41.1216509 -0.166007E-05  0.749E-03    8.70       3.1  T
   5    -41.1216509 -0.538856E-07  0.217E-03    8.70      10.6  T
   6    -41.1216509 -0.311295E-08  0.131E-03    8.70      17.6  T
speedup  1.05
cpu  time for SCC    0.00 s
wall time for SCC    0.00 s
speedup  1.00
cpu  time for grad    0.01 s
wall time for grad    0.01 s
 E :    -40.91383624  G :  0.009109    pred/act E change: -0.104D-03 -0.182D-03
Maxdispl :   0.1581   ||displ|| :   0.2556   Lambda : -0.377D-03
Largest |displ|/coords:  0.1581 (   2)  0.1034 (   4)  0.0846 (   3)
................................................................................
.............................. CYCLE   51 ......................................
................................................................................
   1    -41.1261825 -0.411262E+02  0.209E-01    8.87       0.0  T
   2    -41.1261906 -0.808846E-05  0.152E-01    8.86       1.0  T
   3    -41.1261963 -0.570549E-05  0.310E-02    8.84       1.0  T
   4    -41.1261970 -0.729564E-06  0.837E-03    8.84       2.7  T
   5    -41.1261971 -0.764395E-07  0.217E-03    8.84      10.6  T
   6    -41.1261971 -0.335454E-08  0.131E-03    8.84      17.5  T
speedup  1.05
cpu  time for SCC    0.00 s
wall time for SCC    0.00 s
speedup  1.09
cpu  time for grad    0.01 s
wall time for grad    0.01 s
 E :    -40.91396712  G :  0.012775    pred/act E change: -0.152D-03 -0.131D-03
Maxdispl :   0.1865   ||displ|| :   0.4031   Lambda : -0.477D-03
Largest |displ|/coords:  0.1865 (  18)  0.1641 (   8)  0.1586 (   7)
................................................................................
.............................. CYCLE   52 ......................................
................................................................................
   1    -41.1199272 -0.411199E+02  0.332E-01    8.63       0.0  T
   2    -41.1199463 -0.191040E-04  0.248E-01    8.62       1.0  T
   3    -41.1199614 -0.150790E-04  0.391E-02    8.60       1.0  T
   4    -41.1199639 -0.255881E-05  0.105E-02    8.60       2.2  T
   5    -41.1199640 -0.100462E-06  0.316E-03    8.60       7.3  T
   6    -41.1199640 -0.772555E-08  0.186E-03    8.60      12.3  T
   7    -41.1199640 -0.394456E-08  0.516E-04    8.60      44.5  T
speedup  0.89
cpu  time for SCC    0.00 s
wall time for SCC    0.00 s
speedup  0.93
cpu  time for grad    0.01 s
wall time for grad    0.01 s
 E :    -40.91416531  G :  0.013387    pred/act E change: -0.201D-03 -0.198D-03
Maxdispl :   0.0704   ||displ|| :   0.1538   Lambda : -0.489D-03
Largest |displ|/coords:  0.0704 (  11)  0.0640 (   8)  0.0463 (   3)

generating ANC from model Hessian ...
 Shifting diagonal of input Hessian by   4.910707289673398E-003
 Lowest  eigenvalues of input Hessian
   -0.000000   -0.000000   -0.000000    0.000000    0.000000    0.000000
    0.005000    0.005121    0.005795    0.006699    0.007493    0.007952
    0.008777    0.010298    0.011098    0.012066    0.014813    0.016969
 Highest eigenvalues
    1.403945    1.418343    1.437138    2.687694    3.308044    3.658237
 
cpu  time for ANC gen    0.01 s
wall time for ANC gen    0.01 s
................................................................................
.............................. CYCLE   53 ......................................
................................................................................
   1    -41.1229739 -0.411230E+02  0.153E-01    8.66       0.0  T
   2    -41.1229798 -0.591392E-05  0.116E-01    8.65       1.0  T
   3    -41.1229846 -0.479355E-05  0.165E-02    8.63       1.4  T
   4    -41.1229854 -0.791176E-06  0.568E-03    8.64       4.0  T
   5    -41.1229854 -0.484044E-07  0.185E-03    8.64      12.4  T
   6    -41.1229855 -0.158948E-08  0.104E-03    8.64      22.1  T
   7    -41.1229855 -0.174504E-08  0.239E-04    8.64      95.8  T
   8    -41.1229855 -0.982823E-10  0.948E-05    8.64     242.0  T
speedup  1.00
cpu  time for SCC    0.00 s
wall time for SCC    0.00 s
speedup  0.95
cpu  time for grad    0.01 s
wall time for grad    0.01 s
 E :    -40.91434137  G :  0.015144    pred/act E change:  0.000D+00 -0.176D-03
Maxdispl :   0.0642   ||displ|| :   0.1208   Lambda : -0.367D-03
Largest |displ|/coords:  0.0642 (   7)  0.0546 (   6)  0.0471 (   9)
................................................................................
.............................. CYCLE   54 ......................................
................................................................................
   1    -41.1232403 -0.411232E+02  0.927E-02    8.69       0.0  T
   2    -41.1232424 -0.212928E-05  0.696E-02    8.69       1.0  T
   3    -41.1232440 -0.155306E-05  0.962E-03    8.71       2.4  T
   4    -41.1232443 -0.279519E-06  0.315E-03    8.70       7.3  T
   5    -41.1232443 -0.146785E-07  0.969E-04    8.70      23.7  T
   6    -41.1232443 -0.941533E-09  0.588E-04    8.70      39.0  T
speedup  1.03
cpu  time for SCC    0.00 s
wall time for SCC    0.00 s
speedup  0.99
cpu  time for grad    0.01 s
wall time for grad    0.01 s
 E :    -40.91459415  G :  0.006486    pred/act E change:  0.000D+00 -0.253D-03
Maxdispl :   0.1238   ||displ|| :   0.2112   Lambda : -0.327D-03
Largest |displ|/coords:  0.1238 (   6)  0.1019 (   9)  0.0698 (   8)
................................................................................
.............................. CYCLE   55 ......................................
................................................................................
   1    -41.1230605 -0.411231E+02  0.172E-01    8.75       0.0  T
   2    -41.1230651 -0.457010E-05  0.130E-01    8.76       1.0  T
   3    -41.1230694 -0.426130E-05  0.158E-02    8.77       1.5  T
   4    -41.1230699 -0.504826E-06  0.555E-03    8.76       4.1  T
   5    -41.1230699 -0.315981E-07  0.159E-03    8.76      14.4  T
   6    -41.1230699 -0.219561E-08  0.101E-03    8.76      22.7  T
speedup  1.08
cpu  time for SCC    0.00 s
wall time for SCC    0.00 s
speedup  1.00
cpu  time for grad    0.01 s
wall time for grad    0.01 s
 E :    -40.91479193  G :  0.006661    pred/act E change: -0.186D-03 -0.198D-03
Maxdispl :   0.1413   ||displ|| :   0.2274   Lambda : -0.189D-03
Largest |displ|/coords:  0.1413 (   6)  0.0821 (   9)  0.0816 (   7)
................................................................................
.............................. CYCLE   56 ......................................
................................................................................
   1    -41.1221110 -0.411221E+02  0.162E-01    8.79       0.0  T
   2    -41.1221140 -0.301551E-05  0.122E-01    8.79       1.0  T
   3    -41.1221178 -0.375872E-05  0.123E-02    8.79       1.9  T
   4    -41.1221180 -0.180591E-06  0.372E-03    8.79       6.2  T
   5    -41.1221180 -0.142457E-07  0.146E-03    8.79      15.7  T
   6    -41.1221180 -0.218040E-08  0.842E-04    8.79      27.3  T
speedup  0.79
cpu  time for SCC    0.00 s
wall time for SCC    0.00 s
speedup  1.00
cpu  time for grad    0.01 s
wall time for grad    0.01 s
 E :    -40.91494110  G :  0.007493    pred/act E change: -0.171D-03 -0.149D-03
Maxdispl :   0.2289   ||displ|| :   0.3778   Lambda : -0.264D-03
Largest |displ|/coords:  0.2289 (   6)  0.1356 (   9)  0.1311 (   7)
................................................................................
.............................. CYCLE   57 ......................................
................................................................................
   1    -41.1202838 -0.411203E+02  0.244E-01    8.76       0.0  T
   2    -41.1202913 -0.756159E-05  0.184E-01    8.76       1.0  T
   3    -41.1203010 -0.963610E-05  0.198E-02    8.77       1.2  T
   4    -41.1203014 -0.442190E-06  0.577E-03    8.77       4.0  T
   5    -41.1203015 -0.386258E-07  0.240E-03    8.76       9.6  T
   6    -41.1203015 -0.547496E-08  0.128E-03    8.76      18.0  T
speedup  0.98
cpu  time for SCC    0.00 s
wall time for SCC    0.00 s
speedup  0.93
cpu  time for grad    0.01 s
wall time for grad    0.01 s
 E :    -40.91510158  G :  0.008132    pred/act E change: -0.996D-04 -0.160D-03
Maxdispl :   0.0746   ||displ|| :   0.1594   Lambda : -0.135D-03
Largest |displ|/coords:  0.0746 (   1)  0.0678 (   6)  0.0651 (   2)
................................................................................
.............................. CYCLE   58 ......................................
................................................................................
   1    -41.1219927 -0.411220E+02  0.746E-02    8.78       0.0  T
   2    -41.1219943 -0.165969E-05  0.559E-02    8.78       1.0  T
   3    -41.1219953 -0.989721E-06  0.955E-03    8.78       2.4  T
   4    -41.1219956 -0.236354E-06  0.258E-03    8.78       8.9  T
   5    -41.1219956 -0.153591E-07  0.817E-04    8.78      28.1  T
speedup  1.18
cpu  time for SCC    0.00 s
wall time for SCC    0.00 s
speedup  1.03
cpu  time for grad    0.01 s
wall time for grad    0.01 s
 E :    -40.91519733  G :  0.005442    pred/act E change: -0.151D-03 -0.957D-04
Maxdispl :   0.1107   ||displ|| :   0.2165   Lambda : -0.127D-03
Largest |displ|/coords:  0.1107 (   6)  0.0788 (   1)  0.0729 (   2)
................................................................................
.............................. CYCLE   59 ......................................
................................................................................
   1    -41.1226116 -0.411226E+02  0.122E-01    8.81       0.0  T
   2    -41.1226140 -0.242652E-05  0.918E-02    8.81       1.0  T
   3    -41.1226165 -0.251627E-05  0.118E-02    8.81       1.9  T
   4    -41.1226167 -0.237266E-06  0.376E-03    8.81       6.1  T
   5    -41.1226168 -0.173396E-07  0.129E-03    8.81      17.8  T
   6    -41.1226168 -0.135533E-08  0.769E-04    8.81      29.8  T
speedup  1.05
cpu  time for SCC    0.00 s
wall time for SCC    0.00 s
speedup  1.00
cpu  time for grad    0.01 s
wall time for grad    0.01 s
 E :    -40.91528045  G :  0.004343    pred/act E change: -0.691D-04 -0.831D-04
Maxdispl :   0.0847   ||displ|| :   0.1881   Lambda : -0.726D-04
Largest |displ|/coords:  0.0847 (   6)  0.0768 (   2)  0.0728 (   1)
................................................................................
.............................. CYCLE   60 ......................................
................................................................................
   1    -41.1226843 -0.411227E+02  0.117E-01    8.80       0.0  T
   2    -41.1226861 -0.174197E-05  0.880E-02    8.80       1.0  T
   3    -41.1226881 -0.202468E-05  0.102E-02    8.80       2.2  T
   4    -41.1226882 -0.127138E-06  0.282E-03    8.80       8.1  T
   5    -41.1226882 -0.976323E-08  0.106E-03    8.80      21.7  T
speedup  0.94
cpu  time for SCC    0.00 s
wall time for SCC    0.00 s
speedup  1.02
cpu  time for grad    0.01 s
wall time for grad    0.01 s
 E :    -40.91532599  G :  0.003373    pred/act E change: -0.666D-04 -0.455D-04
Maxdispl :   0.0604   ||displ|| :   0.1404   Lambda : -0.514D-04
Largest |displ|/coords:  0.0604 (   2)  0.0599 (   6)  0.0494 (   1)
................................................................................
.............................. CYCLE   61 ......................................
................................................................................
   1    -41.1226773 -0.411227E+02  0.102E-01    8.82       0.0  T
   2    -41.1226786 -0.131539E-05  0.765E-02    8.82       1.0  T
   3    -41.1226801 -0.148115E-05  0.967E-03    8.83       2.4  T
   4    -41.1226802 -0.894222E-07  0.241E-03    8.83       9.5  T
   5    -41.1226802 -0.752269E-08  0.913E-04    8.83      25.1  T
   6    -41.1226802 -0.703139E-09  0.555E-04    8.83      41.3  T
speedup  1.03
cpu  time for SCC    0.00 s
wall time for SCC    0.00 s
speedup  0.96
cpu  time for grad    0.01 s
wall time for grad    0.01 s
 E :    -40.91535495  G :  0.003785    pred/act E change: -0.376D-04 -0.290D-04
Maxdispl :   0.0374   ||displ|| :   0.0811   Lambda : -0.452D-04
Largest |displ|/coords:  0.0374 (   2)  0.0339 (  10)  0.0275 (  14)
................................................................................
.............................. CYCLE   62 ......................................
................................................................................
   1    -41.1235733 -0.411236E+02  0.797E-02    8.85       0.0  T
   2    -41.1235741 -0.841333E-06  0.598E-02    8.85       1.0  T
   3    -41.1235750 -0.893807E-06  0.842E-03    8.85       2.7  T
   4    -41.1235751 -0.610876E-07  0.231E-03    8.85       9.9  T
   5    -41.1235751 -0.549506E-08  0.687E-04    8.85      33.4  T
   6    -41.1235751 -0.288750E-09  0.437E-04    8.85      52.5  T
speedup  0.79
cpu  time for SCC    0.00 s
wall time for SCC    0.00 s
speedup  0.97
cpu  time for grad    0.01 s
wall time for grad    0.01 s
 E :    -40.91537423  G :  0.003618    pred/act E change: -0.262D-04 -0.193D-04
Maxdispl :   0.0684   ||displ|| :   0.1247   Lambda : -0.414D-04
Largest |displ|/coords:  0.0684 (   6)  0.0498 (   7)  0.0494 (   2)
................................................................................
.............................. CYCLE   63 ......................................
................................................................................
   1    -41.1220891 -0.411221E+02  0.989E-02    8.80       0.0  T
   2    -41.1220904 -0.128406E-05  0.750E-02    8.81       1.0  T
   3    -41.1220920 -0.159568E-05  0.697E-03    8.82       3.3  T
   4    -41.1220920 -0.700602E-07  0.201E-03    8.81      11.4  T
   5    -41.1220920 -0.349764E-08  0.834E-04    8.81      27.5  T
   6    -41.1220920 -0.604530E-09  0.434E-04    8.81      52.8  T
speedup  1.05
cpu  time for SCC    0.00 s
wall time for SCC    0.00 s
speedup  0.97
cpu  time for grad    0.01 s
wall time for grad    0.01 s
 E :    -40.91539266  G :  0.004128    pred/act E change: -0.227D-04 -0.184D-04
Maxdispl :   0.0280   ||displ|| :   0.0647   Lambda : -0.327D-04
Largest |displ|/coords:  0.0280 (  10)  0.0277 (   6)  0.0268 (   4)
................................................................................
.............................. CYCLE   64 ......................................
................................................................................
   1    -41.1232962 -0.411233E+02  0.488E-02    8.85       0.0  T
   2    -41.1232966 -0.363674E-06  0.369E-02    8.85       1.0  T
   3    -41.1232969 -0.339563E-06  0.384E-03    8.85       6.0  T
   4    -41.1232970 -0.395850E-07  0.106E-03    8.85      21.6  T
   5    -41.1232970 -0.115723E-08  0.475E-04    8.85      48.3  T
speedup  1.25
cpu  time for SCC    0.00 s
wall time for SCC    0.00 s
speedup  1.07
cpu  time for grad    0.01 s
wall time for grad    0.01 s
 E :    -40.91540852  G :  0.002590    pred/act E change: -0.210D-04 -0.159D-04
Maxdispl :   0.0308   ||displ|| :   0.0585   Lambda : -0.167D-04
Largest |displ|/coords:  0.0308 (   2)  0.0253 (   6)  0.0251 (   3)
................................................................................
.............................. CYCLE   65 ......................................
................................................................................
   1    -41.1234047 -0.411234E+02  0.398E-02    8.86       0.0  T
   2    -41.1234050 -0.248002E-06  0.301E-02    8.86       1.0  T
   3    -41.1234052 -0.221809E-06  0.349E-03    8.86       6.6  T
   4    -41.1234052 -0.300326E-07  0.102E-03    8.86      22.6  T
   5    -41.1234052 -0.123376E-08  0.394E-04    8.86      58.2  T
   6    -41.1234052 -0.850804E-10  0.214E-04    8.86     107.4  T
speedup  0.79
cpu  time for SCC    0.00 s
wall time for SCC    0.00 s
speedup  0.98
cpu  time for grad    0.01 s
wall time for grad    0.01 s
 E :    -40.91542074  G :  0.001569    pred/act E change: -0.164D-04 -0.122D-04
Maxdispl :   0.0888   ||displ|| :   0.1571   Lambda : -0.238D-04
Largest |displ|/coords:  0.0888 (   2)  0.0676 (   3)  0.0586 (   6)
................................................................................
.............................. CYCLE   66 ......................................
................................................................................
   1    -41.1235037 -0.411235E+02  0.107E-01    8.85       0.0  T
   2    -41.1235049 -0.117958E-05  0.808E-02    8.85       1.0  T
   3    -41.1235063 -0.136579E-05  0.693E-03    8.85       3.3  T
   4    -41.1235063 -0.811467E-07  0.227E-03    8.85      10.1  T
   5    -41.1235063 -0.396194E-08  0.834E-04    8.85      27.5  T
   6    -41.1235063 -0.424492E-09  0.429E-04    8.85      53.5  T
speedup  1.05
cpu  time for SCC    0.00 s
[...]
.............................. CYCLE  124 ......................................
................................................................................
   1    -41.1272988 -0.411273E+02  0.284E-02    8.83       0.0  T
   2    -41.1272989 -0.927612E-07  0.212E-02    8.83       1.1  T
   3    -41.1272989 -0.572657E-07  0.257E-03    8.83       8.9  T
   4    -41.1272990 -0.152063E-07  0.117E-03    8.83      19.7  T
   5    -41.1272990 -0.771479E-09  0.244E-04    8.83      93.9  T
   6    -41.1272990 -0.328768E-10  0.163E-04    8.83     141.2  T
speedup  0.81
cpu  time for SCC    0.00 s
wall time for SCC    0.00 s
speedup  0.97
cpu  time for grad    0.01 s
wall time for grad    0.01 s
 E :    -40.91790276  G :  0.000482    pred/act E change: -0.162D-05 -0.192D-05
Maxdispl :   0.0130   ||displ|| :   0.0213   Lambda : -0.919D-06
Largest |displ|/coords:  0.0130 (   2)  0.0081 (   1)  0.0068 (   4)
................................................................................
.............................. CYCLE  125 ......................................
................................................................................
   1    -41.1272951 -0.411273E+02  0.179E-02    8.83       0.0  T
   2    -41.1272951 -0.241076E-07  0.133E-02    8.83       1.7  T
   3    -41.1272952 -0.136498E-07  0.138E-03    8.83      16.6  T
   4    -41.1272952 -0.426907E-08  0.464E-04    8.83      49.5  T
   5    -41.1272952 -0.155559E-09  0.120E-04    8.83     191.7  T
speedup  0.94
cpu  time for SCC    0.00 s
wall time for SCC    0.00 s
speedup  1.02
cpu  time for grad    0.01 s
wall time for grad    0.01 s
 E :    -40.91790341  G :  0.000416    pred/act E change: -0.155D-05 -0.645D-06
Maxdispl :   0.0090   ||displ|| :   0.0164   Lambda : -0.821D-06
Largest |displ|/coords:  0.0090 (   1)  0.0075 (   2)  0.0063 (   3)
................................................................................
.............................. CYCLE  126 ......................................
................................................................................
   1    -41.1273301 -0.411273E+02  0.114E-02    8.83       0.0  T
   2    -41.1273301 -0.121971E-07  0.849E-03    8.83       2.7  T
   3    -41.1273301 -0.966399E-08  0.101E-03    8.83      22.8  T
   4    -41.1273301 -0.156451E-08  0.299E-04    8.83      76.7  T
   5    -41.1273301 -0.117637E-09  0.959E-05    8.83     239.2  T
speedup  0.94
cpu  time for SCC    0.00 s
wall time for SCC    0.00 s
speedup  1.02
cpu  time for grad    0.01 s
wall time for grad    0.01 s
 E :    -40.91790391  G :  0.000435    pred/act E change: -0.459D-06 -0.499D-06
Maxdispl :   0.0061   ||displ|| :   0.0119   Lambda : -0.451D-06
Largest |displ|/coords:  0.0061 (   2)  0.0056 (   7)  0.0054 (   1)
................................................................................
.............................. CYCLE  127 ......................................
................................................................................
   1    -41.1272689 -0.411273E+02  0.975E-03    8.82       0.0  T
   2    -41.1272690 -0.506499E-08  0.726E-03    8.82       3.2  T
   3    -41.1272690 -0.443445E-08  0.756E-04    8.82      30.3  T
   4    -41.1272690 -0.571966E-09  0.209E-04    8.82     109.7  T
speedup  0.77
cpu  time for SCC    0.00 s
wall time for SCC    0.00 s
speedup  0.99
cpu  time for grad    0.01 s
wall time for grad    0.01 s
 E :    -40.91790421  G :  0.000367    pred/act E change: -0.411D-06 -0.300D-06
Maxdispl :   0.0071   ||displ|| :   0.0115   Lambda : -0.481D-06
Largest |displ|/coords:  0.0071 (   1)  0.0049 (   7)  0.0048 (   3)
................................................................................
.............................. CYCLE  128 ......................................
................................................................................
   1    -41.1272588 -0.411273E+02  0.884E-03    8.82       0.0  T
   2    -41.1272588 -0.384976E-08  0.658E-03    8.82       3.5  T
   3    -41.1272588 -0.314569E-08  0.662E-04    8.82      34.6  T
   4    -41.1272588 -0.385363E-09  0.216E-04    8.82     106.3  T
speedup  0.80
cpu  time for SCC    0.00 s
wall time for SCC    0.00 s
speedup  0.99
cpu  time for grad    0.01 s
wall time for grad    0.01 s
 E :    -40.91790454  G :  0.000377    pred/act E change: -0.226D-06 -0.337D-06
Maxdispl :   0.0082   ||displ|| :   0.0136   Lambda : -0.452D-06
Largest |displ|/coords:  0.0082 (   1)  0.0072 (   7)  0.0052 (   3)
................................................................................
.............................. CYCLE  129 ......................................
................................................................................
   1    -41.1272388 -0.411272E+02  0.107E-02    8.82       0.0  T
   2    -41.1272388 -0.527828E-08  0.803E-03    8.82       2.9  T
   3    -41.1272388 -0.644451E-08  0.605E-04    8.82      37.9  T
   4    -41.1272388 -0.318089E-09  0.159E-04    8.82     144.4  T
speedup  1.20
cpu  time for SCC    0.00 s
wall time for SCC    0.00 s
speedup  0.99
cpu  time for grad    0.01 s
wall time for grad    0.01 s
 E :    -40.91790486  G :  0.000387    pred/act E change: -0.240D-06 -0.315D-06
Maxdispl :   0.0111   ||displ|| :   0.0161   Lambda : -0.469D-06
Largest |displ|/coords:  0.0111 (   1)  0.0081 (   7)  0.0047 (   3)
................................................................................
.............................. CYCLE  130 ......................................
................................................................................
   1    -41.1272481 -0.411272E+02  0.128E-02    8.83       0.0  T
   2    -41.1272481 -0.785940E-08  0.957E-03    8.83       2.4  T
   3    -41.1272481 -0.784785E-08  0.730E-04    8.83      31.4  T
   4    -41.1272481 -0.781860E-09  0.319E-04    8.83      71.8  T
speedup  1.15
cpu  time for SCC    0.00 s
wall time for SCC    0.00 s
speedup  0.99
cpu  time for grad    0.01 s
wall time for grad    0.01 s
 E :    -40.91790520  G :  0.000320    pred/act E change: -0.226D-06 -0.338D-06
Maxdispl :   0.0098   ||displ|| :   0.0140   Lambda : -0.387D-06
Largest |displ|/coords:  0.0098 (   1)  0.0060 (   7)  0.0045 (   3)
................................................................................
.............................. CYCLE  131 ......................................
................................................................................
   1    -41.1272969 -0.411273E+02  0.124E-02    8.83       0.0  T
   2    -41.1272969 -0.110386E-07  0.930E-03    8.83       2.5  T
   3    -41.1272969 -0.857366E-08  0.921E-04    8.83      24.9  T
   4    -41.1272969 -0.154144E-08  0.425E-04    8.83      53.9  T
speedup  1.20
cpu  time for SCC    0.00 s
wall time for SCC    0.00 s
speedup  0.99
cpu  time for grad    0.01 s
wall time for grad    0.01 s
 E :    -40.91790547  G :  0.000274    pred/act E change: -0.235D-06 -0.271D-06
Maxdispl :   0.0065   ||displ|| :   0.0113   Lambda : -0.245D-06
Largest |displ|/coords:  0.0065 (   1)  0.0039 (   7)  0.0037 (  11)
................................................................................
.............................. CYCLE  132 ......................................
................................................................................
   1    -41.1273160 -0.411273E+02  0.107E-02    8.83       0.0  T
   2    -41.1273160 -0.825371E-08  0.794E-03    8.83       2.9  T
   3    -41.1273160 -0.542753E-08  0.873E-04    8.83      26.3  T
   4    -41.1273160 -0.124508E-08  0.409E-04    8.83      56.1  T
speedup  0.80
cpu  time for SCC    0.00 s
wall time for SCC    0.00 s
speedup  0.99
cpu  time for grad    0.01 s
wall time for grad    0.01 s
 E :    -40.91790563  G :  0.000247    pred/act E change: -0.193D-06 -0.164D-06
Maxdispl :   0.0033   ||displ|| :   0.0062   Lambda : -0.174D-06
Largest |displ|/coords:  0.0033 (   1)  0.0026 (   9)  0.0025 (   3)
................................................................................
.............................. CYCLE  133 ......................................
................................................................................
   1    -41.1273505 -0.411274E+02  0.651E-03    8.83       0.0  T
   2    -41.1273505 -0.458289E-08  0.488E-03    8.83       4.7  T
   3    -41.1273505 -0.361543E-08  0.573E-04    8.83      40.0  T
   4    -41.1273505 -0.619373E-09  0.250E-04    8.83      91.6  T
speedup  0.77
cpu  time for SCC    0.00 s
wall time for SCC    0.00 s
speedup  0.98
cpu  time for grad    0.01 s
wall time for grad    0.01 s
 E :    -40.91790575  G :  0.000207    pred/act E change: -0.122D-06 -0.118D-06
Maxdispl :   0.0031   ||displ|| :   0.0066   Lambda : -0.142D-06
Largest |displ|/coords:  0.0031 (   4)  0.0025 (   3)  0.0025 (  11)
................................................................................
.............................. CYCLE  134 ......................................
................................................................................
   1    -41.1273424 -0.411273E+02  0.640E-03    8.83       0.0  T
   2    -41.1273424 -0.324995E-08  0.481E-03    8.83       4.8  T
   3    -41.1273424 -0.340277E-08  0.441E-04    8.83      52.0  T
   4    -41.1273424 -0.337842E-09  0.196E-04    8.83     117.0  T
speedup  0.80
cpu  time for SCC    0.00 s
wall time for SCC    0.00 s
speedup  0.99
cpu  time for grad    0.01 s
wall time for grad    0.01 s
 E :    -40.91790586  G :  0.000138    pred/act E change: -0.869D-07 -0.107D-06
Maxdispl :   0.0037   ||displ|| :   0.0065   Lambda : -0.128D-06
Largest |displ|/coords:  0.0037 (   2)  0.0024 (   3)  0.0020 (   5)
................................................................................
.............................. CYCLE  135 ......................................
................................................................................
   1    -41.1273297 -0.411273E+02  0.570E-03    8.83       0.0  T
   2    -41.1273297 -0.366705E-08  0.431E-03    8.83       5.3  T
   3    -41.1273297 -0.408102E-08  0.425E-04    8.83      54.0  T
   4    -41.1273297 -0.328043E-09  0.172E-04    8.83     133.7  T
speedup  1.20
cpu  time for SCC    0.00 s
wall time for SCC    0.00 s
speedup  0.99
cpu  time for grad    0.01 s
wall time for grad    0.01 s
 E :    -40.91790595  G :  0.000098    pred/act E change: -0.710D-07 -0.901D-07
Maxdispl :   0.0028   ||displ|| :   0.0044   Lambda : -0.554D-07
Largest |displ|/coords:  0.0028 (   2)  0.0015 (   5)  0.0013 (   3)

   *** GEOMETRY OPTIMIZATION CONVERGED AFTER 135 ITERATIONS ***

------------------------------------------------------------------------
 total energy gain (kcal):     -0.0995
------------------------------------------------------------------------
================
 final structure:
================
$coord
        0.87368175241329       -0.66868939332117       -1.59635215087432      S 
        3.07256675949408        0.91412418316720       -1.49726027945088      O 
        0.22163312325785       -1.86038433122838        0.76272591286187      O 
       -1.36077671565045        0.79387631596660       -2.64078183234637      O 
        1.25870230024986       -2.76142938044924       -3.63822223107439      O 
        2.73372627798526       -3.71508445752567       -3.05086105449233      H 
        0.50046229124716        4.59646193445794        1.04032254393374      O 
        1.73900726432364        3.51756427327387        0.22752619337440      H 
       -0.36250545606080        5.46839550602036       -0.29507005458991      H 
        4.96026486713134       -3.91002953515194       -0.53915142508173      O 
        5.59250575056629       -2.20258312267619       -0.60773636414006      H 
        3.81489837261198       -3.96648915717607        0.87526390176812      H 
       -2.36929243296978        1.37180974153071        3.85833530410980      O 
       -1.47133030185514        2.86934137891855        3.26933355474776      H 
       -1.25599667813523       -0.01885727420525        3.43358244974212      H 
       -5.15562921595700        0.07755478470662        0.06076662349632      O 
       -4.38451155115188        0.72162450458421        1.67868848354921      H 
       -3.05425057115801        0.48638444464363       -1.62159493672539      H 
       -5.35315589301153       -1.71359043446522        0.28048534229254      H 
$end
 
 Bond Distances (Angstroems)
 ---------------------------
S1-O2=1.4347         S1-O3=1.4405         S1-O4=1.5174         S1-O5=1.5606         O2-S1=1.4347         O3-S1=1.4405         
O4-S1=1.5174         O4-H18=1.0585        O5-S1=1.5606         O5-H6=0.9801         H6-O5=0.9801         O7-H8=0.9698         
O7-H9=0.9596         H8-O7=0.9698         H9-O7=0.9596         O10-H11=0.9642       O10-H12=0.9636       H11-O10=0.9642       
H12-O10=0.9636       O13-H14=0.9752       O13-H15=0.9691       H14-O13=0.9752       H15-O13=0.9691       O16-H17=1.0078       
O16-H19=0.9606       H17-O16=1.0078       H18-O4=1.0585        H19-O16=0.9606       
 O  H  Rav=0.9808 sigma=0.0291  Rmin=0.9596  Rmax=1.0585    10
 S  O  Rav=1.4883 sigma=0.0530  Rmin=1.4347  Rmax=1.5606     4
 
 selected bond angles (degree)
 --------------------
O3-S1-O2=114.72                O4-S1-O2=110.34                O4-S1-O3=110.63                O5-S1-O2=109.49                
O5-S1-O3=108.70                O5-S1-O4=102.21                H18-O4-S1=113.31               H6-O5-S1=104.47                
H9-O7-H8=106.15                H12-O10-H11=106.06             
 
 selected dihedral angles (degree)
 ---------------------------------
H18-O4-S1-O2=223.92           H18-O4-S1-O3=351.95           H18-O4-S1-O5=107.54           H6-O5-S1-O2= 61.16            
H6-O5-S1-O3=295.13            H6-O5-S1-O4=178.15            
 
 CMA Distance (Angstroems)
 ---------------------------
R(CMA):  1.7733

========================================================================
 FINAL SINGLEPOINT CALCULATION ON OPTIMIZED GEOMETRY
========================================================================

 Ncao       : 52
 Nao        : 51
 Nshell     : 29
 Nel        : 64
 T(el)      :   300.0
 intcut     :    25.0
 scfconv/Eh :  0.100E-05
   qconv/e  :  0.100E-03
 intneglect :  0.100E-07
 broydamp   :      0.250
 iter      E             dE          RMSdq      gap      omega  full diag
   1    -41.1273297 -0.411273E+02  0.628E-05    8.83       0.0  T
   2    -41.1273297 -0.165556E-11  0.413E-05    8.83     555.2  T
   3    -41.1273297 -0.136424E-11  0.859E-06    8.83    2669.4  T
speedup  0.53
cpu  time for SCC    0.00 s
wall time for SCC    0.00 s

   *** convergence criteria satisfied after 3 iterations ***

          eigenvalues
 #    :          20         21         22         23         24         25         26         27
 occ. :        2.000      2.000      2.000      2.000      2.000      2.000      2.000      2.000
 eps  :       -14.680    -14.443    -14.172    -13.918    -13.730    -13.285    -13.075    -13.062
 #    :          28         29         30         31         32         33         34         35
 occ. :        2.000      2.000      2.000      2.000      2.000      0.000      0.000      0.000
 eps  :       -12.916    -12.827    -12.765    -12.326    -12.178     -3.352     -1.112     -1.004
 #    :          36         37         38         39         40         41         42         43
 occ. :        0.000      0.000      0.000      0.000      0.000      0.000      0.000      0.000
 eps  :         0.194      0.916      1.474      2.302      4.186      4.507      5.280      6.316


   #   Z            q   n(s)   n(p)   n(d)      C6AA      α(0)
   1  16 S      1.736  1.581  1.748  0.935    87.950    15.784
   2   8 O     -0.711  1.764  4.947  0.000    29.010     7.221
   3   8 O     -0.733  1.762  4.971  0.000    29.624     7.297
   4   8 O     -0.621  1.753  4.867  0.000    25.671     6.839
   5   8 O     -0.597  1.753  4.844  0.000    25.095     6.763
   6   1 H      0.382  0.618  0.000  0.000     0.512     1.121
   7   8 O     -0.604  1.735  4.869  0.000    25.283     6.786
   8   1 H      0.309  0.691  0.000  0.000     0.696     1.310
   9   1 H      0.296  0.704  0.000  0.000     0.734     1.345
  10   8 O     -0.588  1.734  4.854  0.000    24.910     6.736
  11   1 H      0.312  0.688  0.000  0.000     0.686     1.301
  12   1 H      0.310  0.690  0.000  0.000     0.692     1.307
  13   8 O     -0.606  1.749  4.857  0.000    25.321     6.792
  14   1 H      0.325  0.675  0.000  0.000     0.649     1.266
  15   1 H      0.311  0.689  0.000  0.000     0.689     1.304
  16   8 O     -0.588  1.756  4.832  0.000    24.878     6.733
  17   1 H      0.356  0.644  0.000  0.000     0.575     1.192
  18   1 H      0.405  0.595  0.000  0.000     0.472     1.077
  19   1 H      0.307  0.693  0.000  0.000     0.701     1.315

 Mol. C6AA /au·bohr⁶  :       3366.291256
 Mol. C8AA /au·bohr⁸  :      76058.880111
 Mol. α(0) /au        :         83.489856

 
 Wiberg/Mayer (AO) data. WBOs > 0.1 written file <wbo>
 largest (>0.05) Wiberg bond orders for each atom
           total WBO             WBO to atom ...
     1  S   4.795    O    2 1.376    O    3 1.355    O    4 1.071    O    5 0.947
     2  O   1.748    S    1 1.376    O    3 0.122    O    5 0.089    O    4 0.083
     3  O   1.713    S    1 1.355    O    2 0.122    O    4 0.096    O    5 0.087
     4  O   1.975    S    1 1.071    H   18 0.603    O    3 0.096    O    2 0.083    O   16 0.060    O    5 0.052
     5  O   1.980    S    1 0.947    H    6 0.773    O    2 0.089    O    3 0.087    O    4 0.052
     6  H   0.854    O    5 0.773    O   10 0.061
     7  O   1.857    H    9 0.909    H    8 0.864
     8  H   0.905    O    7 0.864
     9  H   0.912    O    7 0.909
    10  O   1.892    H   12 0.894    H   11 0.891    H    6 0.061
    11  H   0.903    O   10 0.891
    12  H   0.904    O   10 0.894
    13  O   1.919    H   15 0.875    H   14 0.852    H   17 0.108
    14  H   0.894    O   13 0.852
    15  H   0.903    O   13 0.875
    16  O   2.002    H   19 0.903    H   17 0.764    H   18 0.216    O    4 0.060
    17  H   0.873    O   16 0.764    O   13 0.108
    18  H   0.836    O    4 0.603    O   16 0.216
    19  H   0.906    O   16 0.903
 MOs/occ written to file <molden.input>
 
molecular dipole:
                 x           y           z       tot (Debye)
 q only:       -0.397      -0.420      -0.080
   full:       -0.153      -0.544      -0.305       1.632
molecular quadrupole (traceless):
                xx          xy          yy          xz          yz          zz
 q only:        1.766       1.305       2.472       1.749      -2.591      -4.239
  q+dip:        0.888       4.427       3.090       2.749      -5.155      -3.979
   full:        0.863       3.939       3.430       2.554      -5.022      -4.293

SCC energy    :     -41.1273297
rep           :       0.2093297
ES            :       0.1849347
AES           :      -0.0428651
AXC           :      -0.0103203
disp          :      -0.0136464
XB            :       0.0000000
fix           :       0.0000000
total E       :     -40.9179059
atomizationE  :       3.7120932     2329.37
(atE without considering molecular charge,
 total energy contains solvation terms)
H-L gap (eV)  :          8.8257
optimized geometry written to: xtbopt.xyz


------------------------------------------------------------------------
 * finished run on 2019/09/03 at 08:13:33.557     
------------------------------------------------------------------------
 total:
 * wall-time:     0 d,  0 h,  0 min,  1.991 sec
 *  cpu-time:     0 d,  0 h,  0 min,  1.971 sec
 * ratio c/w:     0.990 speedup
 SCF:
 * wall-time:     0 d,  0 h,  0 min,  0.093 sec
 *  cpu-time:     0 d,  0 h,  0 min,  0.090 sec
 * ratio c/w:     0.972 speedup
 ANC optimizer:
 * wall-time:     0 d,  0 h,  0 min,  1.877 sec
 *  cpu-time:     0 d,  0 h,  0 min,  1.860 sec
 * ratio c/w:     0.991 speedup

