      -----------------------------------------------------------      
     |                   =====================                   |     
     |                           x T B                           |     
     |                   =====================                   |     
     |                         S. Grimme                         |     
     |          Mulliken Center for Theoretical Chemistry        |     
     |                    University of Bonn                     |     
     |                 Version 6.0.1 (SAW181210)                 |     
      -----------------------------------------------------------      

   This program is distributed in the hope that it will be useful,
   but WITHOUT ANY WARRANTY; without even the implied warranty of
   MERCHANTABILITY or FITNESS FOR A PARTICULAR PURPOSE.
   
   FOR NON-COMMERCIAL, ACADEMIA USE ONLY.
   
   Cite this work as:
   S. Grimme, C. Bannwarth, P. Shushkov, J. Comput. Theory Chem., 2017,
   13, 1989-2009.
   C. Bannwarth, S. Ehlert and S. Grimme., ChemRxiv, 2018, preprint.
   http://doi.org/10.26434/chemrxiv.7246238.v1
   
   for sTDA-xTB:
   S. Grimme and C. Bannwarth, J. Chem. Phys., 2016, 145, 054103.
   
   in the mass-spec context:
   V. Asgeirsson, C. Bauer and S. Grimme, Chem. Sci., 2017, 8, 4879.
   
   if GBSA is used:
   P. Shushkov, F. März and S. Grimme, unpublished.
   
   for ANC optimizer:
   S. Grimme, unpublished.
   Rational Function algorithm used in ANCopt:
   F. Eckert, P. Pulay, H.-J. Werner, J. Comput. Chem., 1997, 18, 1473.
   
   with help from (in alphabetical order)
   C. Bannwarth, F. Bohle, G. Brandenburg, E. Caldeweyher, M. Checinski,
   S. Dohm, S. Ehlert, S. Ehrlich, F. März, H. Neugebauer, J. Pisarek,
   P. Pracht, P. Shushkov, and S. Spicher.
   
 * started run on 2019/09/03 at 08:18:19.539     
========================================================================
 # omp threads = 1
========================================================================
number of atoms            : 19
number of electrons        : 64
charge                     : 0
spin                       : .0
first test random number   : .4346

########################################################################
# WARNING! Please study the warnings concerning your input carefully
#  - XTBPATH is not set, using XTBHOME instead
#  - the use of '-opt' is discouraged, please use '--opt' next time
#  - the use of '-chrg' is discouraged, please use '--chrg' next time
#  - the use of '-uhf' is discouraged, please use '--uhf' next time
########################################################################

           ------------------------------------------------- 
          |                 G F N 2 - x T B                 |
          | Geometry, Frequencies, Noncovalent interactions |
          |            JCTC 2018 parametrisation            |
           ------------------------------------------------- 
      method parameters     
 k(s)        :  1.8500
 k(p)        :  2.2300
 k(d)        :  2.2300
 k(f)        :  2.0000
 kEN (H0ij)  : -2.0000
 D4 a1       :  0.5200
 D4 a2       :  5.0000
 D4 s6       :  1.0000
 D4 s8       :  2.7000
 D4 s9       :  5.0000
 alphaj      :  2.0000


            Z     q(EN)     CN     RAES       Cart. coordinates
     1  S   6.0    0.65    4.22    4.09    -0.02482     0.73035    -3.92455
     2  O   6.0   -0.30    1.14    1.80    -0.52256    -1.96996    -3.30107
     3  O   6.0   -0.28    1.12    1.80    -2.35189     2.24553    -3.45867
     4  O   6.0   -0.29    1.14    1.80     2.06509     1.69784    -2.30456
     5  O   6.0   -0.24    2.08    1.84     0.70003     0.94500    -6.59682
     6  H   1.0    0.15    1.21    1.47    -0.64599     0.32184    -7.64132
     7  O   6.0   -0.28    1.98    1.82     4.21563     2.05685     2.86612
     8  H   1.0    0.15    0.97    1.43     5.75693     3.01930     2.97882
     9  H   1.0    0.17    0.99    1.43     3.76698     2.07121     1.10171
    10  O   6.0   -0.28    1.97    1.82    -4.21388     1.96969     2.48702
    11  H   1.0    0.15    0.97    1.43    -5.93162     1.67992     1.95786
    12  H   1.0    0.16    0.97    1.43    -3.49369     3.05238     1.21276
    13  O   6.0   -0.28    2.02    1.83     0.16297    -4.94989     0.94050
    14  H   1.0    0.17    0.99    1.43    -1.04627    -4.24949    -0.22646
    15  H   1.0    0.16    0.97    1.43     1.55141    -5.52058    -0.08964
    16  O   6.0   -0.21    2.86    2.46     0.00896    -0.87169     3.89336
    17  H   1.0    0.14    1.01    1.43     1.56088     0.11176     3.55543
    18  H   1.0    0.14    1.01    1.43    -1.53637     0.13877     3.60890
    19  H   1.0    0.14    1.04    1.43    -0.02179    -2.47881     2.94062

  Z AO/shell   Hii/eV     exponent
  1     Wed Apr 25 08:07:45 CEST 2018   EN: 2.200 GM2: 0.406  GM3: 0.0800  RAES: 1.40
     1s    -10.707211    1.230000
  8     Wed Apr 25 08:07:45 CEST 2018   EN: 3.440 GM2: 0.452  GM3:-0.0517  RAES: 1.80
     2s    -20.229985    2.439742
     2p    -15.503117    2.137023
 16     Tue Apr 24 11:44:34 CEST 2018   EN: 2.580 GM2: 0.340  GM3:-0.0502  RAES: 3.10
     3s    -20.029654    1.981333
     3p    -11.377694    2.025643
     3d     -0.420282    1.702555
 no old-style atom pair restraining (fixing) potential

molecular fragmentation (1/2 indicates fragments):
1111112222222222222
# atoms in fragment 1/2:     6    13
 fragment masses (1/2) :       97.07       73.07
CMA distance (Bohr)    :   6.525
constraining FC (au)   :  0.0500
           ------------------------------------------------- 
          |        Self-Consistent Charge Iterations        |
           ------------------------------------------------- 

 Ncao       : 52
 Nao        : 51
 Nshell     : 29
 Nel        : 64
 T(el)      :   300.0
 intcut     :    25.0
 scfconv/Eh :  0.100E-05
   qconv/e  :  0.100E-03
 intneglect :  0.100E-07
 broydamp   :      0.250
 iter      E             dE          RMSdq      gap      omega  full diag
   1    -40.9915025 -0.409915E+02  0.772E+00   10.65       0.0  T
   2    -41.0316751 -0.401726E-01  0.561E+00   10.05       1.0  T
   3    -41.0617330 -0.300579E-01  0.155E+00    7.76       1.0  T
   4    -41.0659677 -0.423469E-02  0.609E-01    7.52       1.0  T
   5    -41.0664851 -0.517449E-03  0.352E-01    7.38       1.0  T
   6    -41.0668348 -0.349663E-03  0.137E-01    7.37       1.0  T
   7    -41.0668982 -0.634106E-04  0.511E-02    7.46       1.0  T
   8    -41.0669077 -0.952780E-05  0.292E-02    7.46       1.0  T
   9    -41.0669109 -0.319828E-05  0.134E-02    7.45       1.7  T
  10    -41.0669118 -0.867454E-06  0.282E-03    7.45       8.1  T
  11    -41.0669118 -0.233384E-07  0.937E-04    7.45      24.5  T
  12    -41.0669118 -0.326897E-08  0.478E-04    7.45      48.0  T
speedup  1.04
cpu  time for SCC    0.01 s
wall time for SCC    0.01 s

   *** convergence criteria satisfied after 12 iterations ***

          eigenvalues
 #    :          20         21         22         23         24         25         26         27
 occ. :        2.000      2.000      2.000      2.000      2.000      2.000      2.000      2.000
 eps  :       -13.779    -13.736    -12.811    -12.745    -12.509    -12.096    -11.821    -10.862
 #    :          28         29         30         31         32         33         34         35
 occ. :        2.000      2.000      2.000      2.000      2.000      0.000      0.000      0.000
 eps  :       -10.595    -10.473    -10.040     -9.909     -9.697     -2.246     -0.462      0.809
 #    :          36         37         38         39         40         41         42         43
 occ. :        0.000      0.000      0.000      0.000      0.000      0.000      0.000      0.000
 eps  :         1.345      1.488      2.209      2.540      3.739      4.648      6.269      6.791


   #   Z            q   n(s)   n(p)   n(d)      C6AA      α(0)
   1  16 S      1.498  1.588  1.899  1.014    93.496    16.274
   2   8 O     -0.770  1.769  5.001  0.000    30.690     7.428
   3   8 O     -0.758  1.777  4.980  0.000    30.328     7.384
   4   8 O     -0.745  1.763  4.982  0.000    29.973     7.340
   5   8 O     -0.539  1.716  4.823  0.000    23.750     6.579
   6   1 H      0.347  0.653  0.000  0.000     0.586     1.198
   7   8 O     -0.609  1.723  4.885  0.000    25.391     6.801
   8   1 H      0.298  0.702  0.000  0.000     0.726     1.339
   9   1 H      0.331  0.669  0.000  0.000     0.634     1.250
  10   8 O     -0.592  1.722  4.869  0.000    24.985     6.746
  11   1 H      0.305  0.695  0.000  0.000     0.707     1.321
  12   1 H      0.323  0.677  0.000  0.000     0.656     1.272
  13   8 O     -0.591  1.724  4.868  0.000    24.980     6.746
  14   1 H      0.332  0.668  0.000  0.000     0.633     1.249
  15   1 H      0.311  0.689  0.000  0.000     0.690     1.305
  16   8 O     -0.400  1.638  4.763  0.000    20.796     6.159
  17   1 H      0.424  0.576  0.000  0.000     0.443     1.046
  18   1 H      0.416  0.584  0.000  0.000     0.456     1.061
  19   1 H      0.418  0.582  0.000  0.000     0.452     1.057

 Mol. C6AA /au·bohr⁶  :       3372.455131
 Mol. C8AA /au·bohr⁸  :      76745.634101
 Mol. α(0) /au        :         83.553274

 
 Wiberg/Mayer (AO) data. WBOs > 0.1 written file <wbo>
 largest (>0.05) Wiberg bond orders for each atom
           total WBO             WBO to atom ...
     1  S   5.013    O    4 1.352    O    3 1.341    O    2 1.314    O    5 0.990
     2  O   1.647    S    1 1.314    O    3 0.117    O    4 0.114    O    5 0.072
     3  O   1.656    S    1 1.341    O    2 0.117    O    4 0.116    O    5 0.075
     4  O   1.676    S    1 1.352    O    3 0.116    O    2 0.114    O    5 0.052
     5  O   2.046    S    1 0.990    H    6 0.855    O    3 0.075    O    2 0.072    O    4 0.052
     6  H   0.879    O    5 0.855
     7  O   1.844    H    8 0.899    H    9 0.868
     8  H   0.911    O    7 0.899
     9  H   0.890    O    7 0.868
    10  O   1.869    H   11 0.901    H   12 0.891    H   18 0.054
    11  H   0.907    O   10 0.901
    12  H   0.896    O   10 0.891
    13  O   1.904    H   15 0.896    H   14 0.869    H   19 0.092
    14  H   0.890    O   13 0.869
    15  H   0.904    O   13 0.896
    16  O   2.345    H   18 0.769    H   17 0.765    H   19 0.730
    17  H   0.820    O   16 0.765
    18  H   0.827    O   16 0.769    O   10 0.054
    19  H   0.825    O   16 0.730    O   13 0.092
 MOs/occ written to file <molden.input>
 
molecular dipole:
                 x           y           z       tot (Debye)
 q only:        0.011      -0.866       2.953
   full:        0.091      -0.576       1.503       4.098
molecular quadrupole (traceless):
                xx          xy          yy          xz          yz          zz
 q only:        3.289       0.547      -5.054       1.177       4.604       1.766
  q+dip:        5.187       0.760      -6.751       1.812       6.183       1.564
   full:        5.302       0.978      -7.312       1.906       6.098       2.010

SCC energy    :     -41.0669118
rep           :       0.2163970
ES            :       0.2706037
AES           :      -0.0554372
AXC           :      -0.0109138
disp          :      -0.0110231
XB            :       0.0000000
fix           :       0.0000000
total E       :     -40.8503640
atomizationE  :       3.6445512     2286.99
(atE without considering molecular charge,
 total energy contains solvation terms)
H-L gap (eV)  :          7.4512
           ------------------------------------------------- 
          |                 ===============                 |
          |                   A N C O P T                   |
          |                 ===============                 |
          |          Approximate Normal Coordinate          |
          |           Rational Function Optimizer           |
           ------------------------------------------------- 
dumping coords to <xtbopt.coord> and <xtbopt.log>
 optlevel               2
 Maxcycle             380
 Maxmicro              25
 Econv         1.000000000000000E-007
 Gconv         2.000000000000000E-004
 Maxdispl       1.00000000000000     
 Hlow          5.000000000000000E-003
 S6             20.0000000000000     
 Nvar               51

generating ANC from model Hessian ...
 Shifting diagonal of input Hessian by   5.079549995997123E-003
 Lowest  eigenvalues of input Hessian
    0.005000    0.005077   -0.000000   -0.000000    0.000000    0.000000
    0.000000    0.000000    0.005312    0.005411    0.005479    0.005554
    0.005895    0.006174    0.006368    0.006550    0.007599    0.007816
 Highest eigenvalues
    1.450683    1.552045    1.554848    3.129200    3.202371    3.303880
 
cpu  time for ANC gen    0.01 s
wall time for ANC gen    0.01 s
................................................................................
.............................. CYCLE    1 ......................................
................................................................................
   1    -41.0669118 -0.410669E+02  0.113E-04    7.45       0.0  T
   2    -41.0669118 -0.123279E-10  0.870E-05    7.45     263.8  T
   3    -41.0669118 -0.100329E-10  0.377E-05    7.45     608.3  T
speedup  0.95
cpu  time for SCC    0.00 s
wall time for SCC    0.00 s
speedup  1.10
cpu  time for grad    0.01 s
wall time for grad    0.01 s
 E :    -40.85036396  G :  0.162284    pred/act E change:  0.000D+00  0.202D-07
Maxdispl :   0.3177   ||displ|| :   0.5943   Lambda : -0.227D-01
Largest |displ|/coords:  0.3177 (  21)  0.3115 (  16)  0.1966 (  13)
................................................................................
.............................. CYCLE    2 ......................................
................................................................................
   1    -41.0796729 -0.410797E+02  0.394E-01    7.77       0.0  T
   2    -41.0798074 -0.134516E-03  0.303E-01    7.84       1.0  T
   3    -41.0798662 -0.588239E-04  0.106E-01    7.98       1.0  T
   4    -41.0798809 -0.146632E-04  0.232E-02    7.99       1.0  T
   5    -41.0798822 -0.126879E-05  0.754E-03    7.99       3.0  T
   6    -41.0798822 -0.634929E-07  0.386E-03    7.98       5.9  T
   7    -41.0798823 -0.257775E-07  0.177E-03    7.98      12.9  T
speedup  0.93
cpu  time for SCC    0.00 s
wall time for SCC    0.00 s
speedup  0.98
cpu  time for grad    0.01 s
wall time for grad    0.01 s
 E :    -40.87089181  G :  0.110487    pred/act E change:  0.000D+00 -0.205D-01
Maxdispl :   0.3960   ||displ|| :   0.6597   Lambda : -0.194D-01
Largest |displ|/coords:  0.3960 (  16)  0.3442 (  21)  0.2155 (  13)
................................................................................
.............................. CYCLE    3 ......................................
................................................................................
   1    -41.0876829 -0.410877E+02  0.368E-01    8.29       0.0  T
   2    -41.0878599 -0.177018E-03  0.283E-01    8.37       1.0  T
   3    -41.0879425 -0.826394E-04  0.108E-01    8.53       1.0  T
   4    -41.0879582 -0.157157E-04  0.298E-02    8.54       1.0  T
   5    -41.0879599 -0.170420E-05  0.878E-03    8.53       2.6  T
   6    -41.0879600 -0.823873E-07  0.453E-03    8.53       5.1  T
   7    -41.0879601 -0.395020E-07  0.200E-03    8.53      11.5  T
speedup  0.91
cpu  time for SCC    0.00 s
wall time for SCC    0.00 s
speedup  0.96
cpu  time for grad    0.01 s
wall time for grad    0.01 s
 E :    -40.88767841  G :  0.070729    pred/act E change: -0.154D-01 -0.168D-01
Maxdispl :   0.4050   ||displ|| :   0.6715   Lambda : -0.139D-01
Largest |displ|/coords:  0.4050 (  16)  0.2689 (   9)  0.2393 (  21)
................................................................................
.............................. CYCLE    4 ......................................
................................................................................
   1    -41.0937149 -0.410937E+02  0.355E-01    8.67       0.0  T
   2    -41.0938999 -0.184958E-03  0.271E-01    8.73       1.0  T
   3    -41.0939906 -0.907646E-04  0.992E-02    8.84       1.0  T
   4    -41.0940062 -0.155397E-04  0.309E-02    8.83       1.0  T
   5    -41.0940076 -0.139948E-05  0.890E-03    8.83       2.6  T
   6    -41.0940077 -0.873524E-07  0.472E-03    8.83       4.9  T
   7    -41.0940077 -0.494597E-07  0.193E-03    8.83      11.9  T
speedup  1.14
cpu  time for SCC    0.01 s
wall time for SCC    0.00 s
speedup  1.05
cpu  time for grad    0.01 s
wall time for grad    0.01 s
 E :    -40.89905412  G :  0.048634    pred/act E change: -0.139D-01 -0.114D-01
Maxdispl :   0.4040   ||displ|| :   0.7399   Lambda : -0.114D-01
Largest |displ|/coords:  0.4040 (   9)  0.2508 (  16)  0.2489 (   4)
................................................................................
.............................. CYCLE    5 ......................................
................................................................................
   1    -41.1018966 -0.411019E+02  0.424E-01    8.75       0.0  T
   2    -41.1021472 -0.250658E-03  0.316E-01    8.79       1.0  T
   3    -41.1022630 -0.115789E-03  0.111E-01    8.86       1.0  T
   4    -41.1022801 -0.170359E-04  0.326E-02    8.86       1.0  T
   5    -41.1022813 -0.126017E-05  0.865E-03    8.85       2.7  T
   6    -41.1022814 -0.890635E-07  0.478E-03    8.85       4.8  T
   7    -41.1022815 -0.566174E-07  0.204E-03    8.85      11.3  T
speedup  0.93
cpu  time for SCC    0.00 s
wall time for SCC    0.00 s
speedup  0.95
cpu  time for grad    0.01 s
wall time for grad    0.01 s
 E :    -40.90695377  G :  0.028878    pred/act E change: -0.101D-01 -0.790D-02
Maxdispl :   0.5153   ||displ|| :   0.7912   Lambda : -0.908D-02
Largest |displ|/coords:  0.5153 (   9)  0.2566 (   8)  0.2146 (  11)
................................................................................
.............................. CYCLE    6 ......................................
................................................................................
   1    -41.0790202 -0.410790E+02  0.788E-01    8.64       0.0  T
   2    -41.0795105 -0.490292E-03  0.607E-01    8.67       1.0  T
   3    -41.0797991 -0.288595E-03  0.148E-01    8.66       1.0  T
   4    -41.0798696 -0.704841E-04  0.636E-02    8.72       1.0  T
   5    -41.0798744 -0.484506E-05  0.179E-02    8.72       1.3  T
   6    -41.0798750 -0.556424E-06  0.952E-03    8.72       2.4  T
   7    -41.0798751 -0.108848E-06  0.269E-03    8.72       8.5  T
   8    -41.0798751 -0.266978E-07  0.945E-04    8.72      24.3  T
speedup  0.98
cpu  time for SCC    0.00 s
wall time for SCC    0.01 s
speedup  0.97
cpu  time for grad    0.01 s
wall time for grad    0.01 s
 E :    -40.90253909  G :  0.083720    pred/act E change: -0.884D-02  0.441D-02
Maxdispl :   0.2450   ||displ|| :   0.6131   Lambda : -0.297D-01
Largest |displ|/coords:  0.2450 (   9)  0.2205 (  17)  0.1881 (   6)
................................................................................
.............................. CYCLE    7 ......................................
................................................................................
   1    -41.1035951 -0.411036E+02  0.869E-01    9.01       0.0  T
   2    -41.1039700 -0.374936E-03  0.667E-01    8.99       1.0  T
   3    -41.1042619 -0.291824E-03  0.149E-01    8.90       1.0  T
   4    -41.1043116 -0.497408E-04  0.625E-02    8.92       1.0  T
   5    -41.1043143 -0.267026E-05  0.137E-02    8.93       1.7  T
   6    -41.1043143 -0.836118E-07  0.716E-03    8.93       3.2  T
   7    -41.1043145 -0.109187E-06  0.164E-03    8.93      14.0  T
   8    -41.1043145 -0.696244E-08  0.785E-04    8.93      29.2  T
speedup  1.00
cpu  time for SCC    0.00 s
wall time for SCC    0.01 s
speedup  0.98
cpu  time for grad    0.01 s
wall time for grad    0.01 s
 E :    -40.90734583  G :  0.056303    pred/act E change: -0.738D-02 -0.481D-02
Maxdispl :   0.1616   ||displ|| :   0.4129   Lambda : -0.112D-01
Largest |displ|/coords:  0.1616 (   6)  0.1519 (  17)  0.1516 (   8)
................................................................................
.............................. CYCLE    8 ......................................
................................................................................
   1    -41.1078453 -0.411078E+02  0.568E-01    8.97       0.0  T
   2    -41.1079443 -0.989955E-04  0.432E-01    8.97       1.0  T
   3    -41.1080414 -0.970618E-04  0.734E-02    8.99       1.0  T
   4    -41.1080507 -0.939100E-05  0.267E-02    8.99       1.0  T
   5    -41.1080514 -0.640770E-06  0.781E-03    8.99       2.9  T
   6    -41.1080514 -0.404106E-07  0.432E-03    8.99       5.3  T
   7    -41.1080514 -0.170380E-07  0.976E-04    8.99      23.5  T
speedup  1.14
cpu  time for SCC    0.01 s
wall time for SCC    0.00 s
speedup  1.04
cpu  time for grad    0.01 s
wall time for grad    0.01 s
 E :    -40.91073198  G :  0.049106    pred/act E change: -0.205D-01 -0.339D-02
Maxdispl :   0.1641   ||displ|| :   0.3845   Lambda : -0.542D-02
Largest |displ|/coords:  0.1641 (  12)  0.1533 (  18)  0.1426 (  16)
................................................................................
.............................. CYCLE    9 ......................................
................................................................................
   1    -41.0920572 -0.410921E+02  0.320E-01    8.96       0.0  T
   2    -41.0921101 -0.529729E-04  0.243E-01    8.97       1.0  T
   3    -41.0921568 -0.466705E-04  0.514E-02    8.98       1.0  T
   4    -41.0921621 -0.525867E-05  0.220E-02    8.98       1.0  T
   5    -41.0921626 -0.504117E-06  0.477E-03    8.98       4.8  T
   6    -41.0921626 -0.343799E-07  0.314E-03    8.98       7.3  T
speedup  1.05
cpu  time for SCC    0.00 s
wall time for SCC    0.00 s
speedup  1.00
cpu  time for grad    0.01 s
wall time for grad    0.01 s
 E :    -40.91113864  G :  0.051211    pred/act E change: -0.657D-02 -0.407D-03
Maxdispl :   0.1637   ||displ|| :   0.4135   Lambda : -0.843D-02
Largest |displ|/coords:  0.1637 (  12)  0.1604 (   4)  0.1533 (  16)
................................................................................
.............................. CYCLE   10 ......................................
................................................................................
   1    -41.1174595 -0.411175E+02  0.407E-01    9.10       0.0  T
   2    -41.1175583 -0.987943E-04  0.309E-01    9.09       1.0  T
   3    -41.1176387 -0.804123E-04  0.699E-02    9.06       1.0  T
   4    -41.1176489 -0.102139E-04  0.295E-02    9.07       1.0  T
   5    -41.1176499 -0.966397E-06  0.687E-03    9.07       3.3  T
   6    -41.1176499 -0.310670E-07  0.382E-03    9.07       6.0  T
   7    -41.1176499 -0.271771E-07  0.944E-04    9.07      24.3  T
speedup  0.93
cpu  time for SCC    0.00 s
wall time for SCC    0.00 s
speedup  1.05
cpu  time for grad    0.01 s
wall time for grad    0.01 s
 E :    -40.91101918  G :  0.047280    pred/act E change: -0.311D-02  0.119D-03
Maxdispl :   0.0919   ||displ|| :   0.2192   Lambda : -0.457D-02
Largest |displ|/coords:  0.0919 (  12)  0.0853 (   3)  0.0768 (  16)
................................................................................
.............................. CYCLE   11 ......................................
................................................................................
   1    -41.1082797 -0.411083E+02  0.263E-01    9.08       0.0  T
   2    -41.1083095 -0.297914E-04  0.197E-01    9.08       1.0  T
   3    -41.1083310 -0.215029E-04  0.390E-02    9.09       1.0  T
   4    -41.1083345 -0.347327E-05  0.123E-02    9.09       1.9  T
   5    -41.1083347 -0.234441E-06  0.372E-03    9.09       6.2  T
   6    -41.1083347 -0.901670E-08  0.217E-03    9.09      10.6  T
speedup  1.00
cpu  time for SCC    0.00 s
wall time for SCC    0.00 s
speedup  1.09
cpu  time for grad    0.01 s
wall time for grad    0.01 s
 E :    -40.91362936  G :  0.017071    pred/act E change: -0.494D-02 -0.261D-02
Maxdispl :   0.1526   ||displ|| :   0.3059   Lambda : -0.138D-02
Largest |displ|/coords:  0.1526 (   2)  0.1396 (   1)  0.1046 (  14)
................................................................................
.............................. CYCLE   12 ......................................
................................................................................
   1    -41.1051033 -0.411051E+02  0.327E-01    9.13       0.0  T
   2    -41.1051411 -0.378267E-04  0.249E-01    9.13       1.0  T
   3    -41.1051695 -0.283290E-04  0.418E-02    9.14       1.0  T
   4    -41.1051745 -0.498943E-05  0.140E-02    9.14       1.6  T
   5    -41.1051748 -0.303471E-06  0.441E-03    9.14       5.2  T
   6    -41.1051748 -0.148873E-07  0.244E-03    9.14       9.4  T
   7    -41.1051748 -0.125032E-07  0.649E-04    9.14      35.3  T
speedup  0.93
cpu  time for SCC    0.00 s
wall time for SCC    0.00 s
speedup  0.95
cpu  time for grad    0.01 s
wall time for grad    0.01 s
 E :    -40.91269397  G :  0.037195    pred/act E change: -0.240D-02  0.935D-03
Maxdispl :   0.2110   ||displ|| :   0.2962   Lambda : -0.328D-02
Largest |displ|/coords:  0.2110 (   3)  0.1368 (   5)  0.0858 (   2)
................................................................................
.............................. CYCLE   13 ......................................
................................................................................
   1    -41.0985846 -0.410986E+02  0.549E-01    9.16       0.0  T
   2    -41.0986669 -0.823925E-04  0.414E-01    9.16       1.0  T
   3    -41.0987258 -0.588097E-04  0.583E-02    9.16       1.0  T
   4    -41.0987372 -0.114532E-04  0.134E-02    9.16       1.7  T
   5    -41.0987374 -0.208509E-06  0.540E-03    9.16       4.2  T
   6    -41.0987375 -0.339131E-07  0.294E-03    9.16       7.8  T
speedup  0.79
cpu  time for SCC    0.00 s
wall time for SCC    0.00 s
speedup  0.89
cpu  time for grad    0.01 s
wall time for grad    0.01 s
 E :    -40.91324777  G :  0.047750    pred/act E change: -0.756D-03 -0.554D-03
Maxdispl :   0.2081   ||displ|| :   0.4545   Lambda : -0.585D-02
Largest |displ|/coords:  0.2081 (  18)  0.2061 (   5)  0.1616 (  14)
................................................................................
.............................. CYCLE   14 ......................................
................................................................................
   1    -41.1156776 -0.411157E+02  0.518E-01    9.15       0.0  T
   2    -41.1157997 -0.122110E-03  0.388E-01    9.14       1.0  T
   3    -41.1158845 -0.848113E-04  0.811E-02    9.12       1.0  T
   4    -41.1158982 -0.136961E-04  0.260E-02    9.12       1.0  T
   5    -41.1158991 -0.873552E-06  0.846E-03    9.12       2.7  T
   6    -41.1158992 -0.662381E-07  0.469E-03    9.13       4.9  T
   7    -41.1158992 -0.444627E-07  0.147E-03    9.13      15.7  T
speedup  0.91
cpu  time for SCC    0.00 s
wall time for SCC    0.00 s
speedup  0.94
cpu  time for grad    0.01 s
wall time for grad    0.01 s
 E :    -40.91129015  G :  0.048704    pred/act E change: -0.178D-02  0.196D-02
Maxdispl :   0.1445   ||displ|| :   0.2773   Lambda : -0.573D-02
Largest |displ|/coords:  0.1445 (  18)  0.1015 (  14)  0.0895 (  10)
................................................................................
.............................. CYCLE   15 ......................................
................................................................................
   1    -41.1118922 -0.411119E+02  0.270E-01    9.19       0.0  T
   2    -41.1119292 -0.369158E-04  0.203E-01    9.20       1.0  T
   3    -41.1119539 -0.247505E-04  0.466E-02    9.21       1.0  T
   4    -41.1119582 -0.424508E-05  0.156E-02    9.21       1.5  T
   5    -41.1119584 -0.282697E-06  0.480E-03    9.21       4.8  T
   6    -41.1119585 -0.270793E-07  0.263E-03    9.21       8.7  T
speedup  1.05
cpu  time for SCC    0.00 s
wall time for SCC    0.00 s
speedup  1.00
cpu  time for grad    0.01 s
wall time for grad    0.01 s
 E :    -40.91444132  G :  0.012067    pred/act E change: -0.353D-02 -0.315D-02
Maxdispl :   0.2288   ||displ|| :   0.2691   Lambda : -0.908D-03
Largest |displ|/coords:  0.2288 (   5)  0.0603 (   3)  0.0602 (   2)
................................................................................
.............................. CYCLE   16 ......................................
................................................................................
   1    -41.1060006 -0.411060E+02  0.272E-01    9.18       0.0  T
   2    -41.1060103 -0.967886E-05  0.204E-01    9.18       1.0  T
   3    -41.1060179 -0.756504E-05  0.209E-02    9.19       1.1  T
   4    -41.1060192 -0.128904E-05  0.689E-03    9.18       3.3  T
   5    -41.1060192 -0.572542E-07  0.304E-03    9.18       7.6  T
   6    -41.1060192 -0.891766E-08  0.161E-03    9.18      14.3  T
   7    -41.1060192 -0.586126E-08  0.327E-04    9.18      70.1  T
speedup  1.14
cpu  time for SCC    0.00 s
wall time for SCC    0.00 s
speedup  1.04
cpu  time for grad    0.01 s
wall time for grad    0.01 s
 E :    -40.91459833  G :  0.021800    pred/act E change: -0.309D-02 -0.157D-03
Maxdispl :   0.1269   ||displ|| :   0.2097   Lambda : -0.919D-03
Largest |displ|/coords:  0.1269 (   7)  0.1199 (   3)  0.0733 (   5)
................................................................................
.............................. CYCLE   17 ......................................
................................................................................
   1    -41.1052954 -0.411053E+02  0.212E-01    9.23       0.0  T
   2    -41.1053015 -0.610338E-05  0.160E-01    9.23       1.0  T
   3    -41.1053075 -0.600634E-05  0.156E-02    9.23       1.5  T
   4    -41.1053081 -0.596493E-06  0.507E-03    9.23       4.5  T
   5    -41.1053082 -0.135303E-07  0.212E-03    9.23      10.8  T
speedup  0.94
cpu  time for SCC    0.00 s
wall time for SCC    0.00 s
speedup  0.95
cpu  time for grad    0.01 s
wall time for grad    0.01 s
 E :    -40.91483958  G :  0.021546    pred/act E change: -0.487D-03 -0.241D-03
Maxdispl :   0.0512   ||displ|| :   0.1051   Lambda : -0.724D-03
Largest |displ|/coords:  0.0512 (  14)  0.0503 (   2)  0.0375 (   3)
................................................................................
.............................. CYCLE   18 ......................................
................................................................................
   1    -41.1121550 -0.411122E+02  0.116E-01    9.27       0.0  T
   2    -41.1121609 -0.585436E-05  0.867E-02    9.27       1.0  T
   3    -41.1121649 -0.399899E-05  0.167E-02    9.26       1.4  T
   4    -41.1121655 -0.617679E-06  0.502E-03    9.26       4.6  T
   5    -41.1121655 -0.225778E-07  0.149E-03    9.26      15.4  T
speedup  0.97
cpu  time for SCC    0.00 s
wall time for SCC    0.00 s
speedup  0.97
cpu  time for grad    0.01 s
wall time for grad    0.01 s
 E :    -40.91513968  G :  0.006741    pred/act E change: -0.480D-03 -0.300D-03
Maxdispl :   0.1082   ||displ|| :   0.1574   Lambda : -0.373D-03
Largest |displ|/coords:  0.1082 (   5)  0.0571 (   2)  0.0524 (  15)
................................................................................
.............................. CYCLE   19 ......................................
................................................................................
   1    -41.1108856 -0.411109E+02  0.145E-01    9.25       0.0  T
   2    -41.1108876 -0.208476E-05  0.109E-01    9.25       1.0  T
   3    -41.1108895 -0.186481E-05  0.104E-02    9.25       2.2  T
   4    -41.1108897 -0.222622E-06  0.367E-03    9.25       6.3  T
   5    -41.1108897 -0.101977E-07  0.112E-03    9.25      20.5  T
   6    -41.1108897 -0.847393E-09  0.637E-04    9.25      36.0  T
speedup  1.05
cpu  time for SCC    0.00 s
wall time for SCC    0.00 s
speedup  1.00
cpu  time for grad    0.01 s
wall time for grad    0.01 s
 E :    -40.91539787  G :  0.008266    pred/act E change: -0.366D-03 -0.258D-03
Maxdispl :   0.1984   ||displ|| :   0.3311   Lambda : -0.561D-03
Largest |displ|/coords:  0.1984 (   5)  0.1547 (   2)  0.1176 (   3)
................................................................................
.............................. CYCLE   20 ......................................
................................................................................
   1    -41.1089885 -0.411090E+02  0.299E-01    9.32       0.0  T
   2    -41.1090010 -0.124838E-04  0.224E-01    9.32       1.0  T
   3    -41.1090103 -0.934205E-05  0.293E-02    9.32       1.0  T
   4    -41.1090119 -0.157580E-05  0.851E-03    9.32       2.7  T
   5    -41.1090119 -0.764244E-07  0.283E-03    9.32       8.1  T
   6    -41.1090120 -0.559135E-08  0.170E-03    9.32      13.5  T
speedup  1.05
cpu  time for SCC    0.00 s
wall time for SCC    0.00 s
speedup  0.98
cpu  time for grad    0.01 s
wall time for grad    0.01 s
 E :    -40.91554001  G :  0.022026    pred/act E change: -0.191D-03 -0.142D-03
Maxdispl :   0.0871   ||displ|| :   0.1220   Lambda : -0.556D-03
Largest |displ|/coords:  0.0871 (   7)  0.0350 (   1)  0.0261 (   3)
................................................................................
.............................. CYCLE   21 ......................................
................................................................................
   1    -41.1093098 -0.411093E+02  0.116E-01    9.24       0.0  T
   2    -41.1093145 -0.472118E-05  0.871E-02    9.24       1.0  T
   3    -41.1093177 -0.322546E-05  0.152E-02    9.24       1.5  T
   4    -41.1093183 -0.608964E-06  0.472E-03    9.24       4.9  T
   5    -41.1093184 -0.321983E-07  0.141E-03    9.24      16.2  T
speedup  0.97
cpu  time for SCC    0.00 s
wall time for SCC    0.00 s
speedup  1.08
cpu  time for grad    0.01 s
wall time for grad    0.01 s
 E :    -40.91585837  G :  0.011412    pred/act E change: -0.311D-03 -0.318D-03
Maxdispl :   0.0504   ||displ|| :   0.1134   Lambda : -0.281D-03
Largest |displ|/coords:  0.0504 (   2)  0.0349 (  15)  0.0328 (   7)
................................................................................
.............................. CYCLE   22 ......................................
................................................................................
   1    -41.1126395 -0.411126E+02  0.103E-01    9.32       0.0  T
   2    -41.1126415 -0.202198E-05  0.759E-02    9.32       1.0  T
   3    -41.1126432 -0.164163E-05  0.134E-02    9.32       1.7  T
   4    -41.1126434 -0.203875E-06  0.330E-03    9.32       7.0  T
   5    -41.1126434 -0.114165E-07  0.108E-03    9.32      21.2  T
   6    -41.1126434 -0.725095E-09  0.565E-04    9.32      40.6  T
speedup  0.79
cpu  time for SCC    0.00 s
wall time for SCC    0.00 s
speedup  0.99
cpu  time for grad    0.01 s
wall time for grad    0.01 s
 E :    -40.91601841  G :  0.005999    pred/act E change: -0.282D-03 -0.160D-03
Maxdispl :   0.1801   ||displ|| :   0.3245   Lambda : -0.406D-03
Largest |displ|/coords:  0.1801 (   5)  0.1500 (   7)  0.0952 (   2)
................................................................................
.............................. CYCLE   23 ......................................
................................................................................
   1    -41.1087564 -0.411088E+02  0.317E-01    9.19       0.0  T
   2    -41.1087709 -0.145155E-04  0.239E-01    9.19       1.0  T
   3    -41.1087825 -0.115622E-04  0.243E-02    9.19       1.0  T
   4    -41.1087844 -0.197804E-05  0.723E-03    9.19       3.2  T
   5    -41.1087845 -0.397204E-07  0.289E-03    9.19       7.9  T
   6    -41.1087845 -0.628093E-08  0.137E-03    9.19      16.8  T
speedup  0.81
cpu  time for SCC    0.00 s
wall time for SCC    0.00 s
speedup  1.00
cpu  time for grad    0.01 s
wall time for grad    0.01 s
 E :    -40.91618496  G :  0.013532    pred/act E change: -0.142D-03 -0.167D-03
Maxdispl :   0.0651   ||displ|| :   0.1371   Lambda : -0.399D-03
Largest |displ|/coords:  0.0651 (   5)  0.0500 (   9)  0.0421 (   6)
................................................................................
.............................. CYCLE   24 ......................................
................................................................................
   1    -41.1106801 -0.411107E+02  0.117E-01    9.24       0.0  T
   2    -41.1106833 -0.320282E-05  0.879E-02    9.24       1.0  T
   3    -41.1106851 -0.174285E-05  0.144E-02    9.25       1.6  T
   4    -41.1106856 -0.473471E-06  0.426E-03    9.25       5.4  T
   5    -41.1106856 -0.259696E-07  0.119E-03    9.25      19.4  T
   6    -41.1106856 -0.853582E-09  0.678E-04    9.25      33.8  T
speedup  1.08
cpu  time for SCC    0.00 s
wall time for SCC    0.00 s
speedup  1.00
cpu  time for grad    0.01 s
wall time for grad    0.01 s
 E :    -40.91637835  G :  0.009920    pred/act E change: -0.224D-03 -0.193D-03
Maxdispl :   0.0762   ||displ|| :   0.1597   Lambda : -0.273D-03
Largest |displ|/coords:  0.0762 (   7)  0.0674 (   5)  0.0489 (   9)
................................................................................
.............................. CYCLE   25 ......................................
................................................................................
   1    -41.1088925 -0.411089E+02  0.158E-01    9.20       0.0  T
   2    -41.1089017 -0.913276E-05  0.119E-01    9.21       1.0  T
   3    -41.1089075 -0.587213E-05  0.202E-02    9.21       1.1  T
   4    -41.1089089 -0.130923E-05  0.626E-03    9.21       3.7  T
   5    -41.1089089 -0.614123E-07  0.221E-03    9.21      10.4  T
   6    -41.1089089 -0.266353E-08  0.126E-03    9.21      18.2  T
speedup  1.05
cpu  time for SCC    0.00 s
wall time for SCC    0.00 s
speedup  0.99
cpu  time for grad    0.01 s
wall time for grad    0.01 s
 E :    -40.91641785  G :  0.016435    pred/act E change: -0.203D-03 -0.395D-04
Maxdispl :   0.0724   ||displ|| :   0.1777   Lambda : -0.561D-03
Largest |displ|/coords:  0.0724 (   2)  0.0629 (   5)  0.0615 (   9)

generating ANC from model Hessian ...
 Shifting diagonal of input Hessian by   4.493969290900617E-003
 Lowest  eigenvalues of input Hessian
   -0.000000   -0.000000    0.000000    0.000000    0.000000    0.000000
    0.005000    0.005385    0.006326    0.007329    0.007840    0.008678
    0.010998    0.016902    0.017187    0.024044    0.027733    0.028656
 Highest eigenvalues
    1.385767    1.405525    1.413984    2.603191    3.437189    3.576610
 
cpu  time for ANC gen    0.01 s
wall time for ANC gen    0.01 s
................................................................................
.............................. CYCLE   26 ......................................
................................................................................
   1    -41.1102876 -0.411103E+02  0.150E-01    9.21       0.0  T
   2    -41.1102928 -0.520394E-05  0.113E-01    9.21       1.0  T
   3    -41.1102973 -0.448533E-05  0.147E-02    9.21       1.6  T
   4    -41.1102979 -0.631026E-06  0.539E-03    9.21       4.3  T
   5    -41.1102980 -0.283937E-07  0.182E-03    9.21      12.6  T
   6    -41.1102980 -0.302227E-08  0.974E-04    9.21      23.6  T
   7    -41.1102980 -0.147411E-08  0.248E-04    9.21      92.6  T
speedup  0.91
cpu  time for SCC    0.00 s
wall time for SCC    0.00 s
speedup  1.01
cpu  time for grad    0.01 s
wall time for grad    0.01 s
 E :    -40.91672139  G :  0.009885    pred/act E change:  0.000D+00 -0.304D-03
Maxdispl :   0.1414   ||displ|| :   0.2033   Lambda : -0.507D-03
Largest |displ|/coords:  0.1414 (   1)  0.0788 (   2)  0.0704 (   3)
................................................................................
.............................. CYCLE   27 ......................................
................................................................................
   1    -41.1105456 -0.411105E+02  0.183E-01    9.25       0.0  T
   2    -41.1105486 -0.301868E-05  0.139E-01    9.25       1.0  T
   3    -41.1105525 -0.391285E-05  0.983E-03    9.25       2.3  T
   4    -41.1105526 -0.128885E-06  0.348E-03    9.25       6.6  T
   5    -41.1105527 -0.105361E-07  0.140E-03    9.25      16.4  T
   6    -41.1105527 -0.194537E-08  0.754E-04    9.25      30.4  T
speedup  1.05
cpu  time for SCC    0.00 s
wall time for SCC    0.00 s
speedup  0.99
cpu  time for grad    0.01 s
wall time for grad    0.01 s
 E :    -40.91711452  G :  0.006471    pred/act E change:  0.000D+00 -0.393D-03
Maxdispl :   0.2470   ||displ|| :   0.4233   Lambda : -0.862D-03
Largest |displ|/coords:  0.2470 (   1)  0.1921 (   3)  0.1462 (   7)
................................................................................
.............................. CYCLE   28 ......................................
................................................................................
   1    -41.1084463 -0.411084E+02  0.388E-01    9.26       0.0  T
   2    -41.1084624 -0.160927E-04  0.294E-01    9.26       1.0  T
   3    -41.1084814 -0.189977E-04  0.237E-02    9.26       1.0  T
   4    -41.1084824 -0.101788E-05  0.873E-03    9.26       2.6  T
   5    -41.1084825 -0.573959E-07  0.288E-03    9.26       8.0  T
   6    -41.1084825 -0.626388E-08  0.155E-03    9.26      14.8  T
speedup  1.05
cpu  time for SCC    0.00 s
wall time for SCC    0.00 s
speedup  0.99
cpu  time for grad    0.01 s
wall time for grad    0.01 s
 E :    -40.91770264  G :  0.012813    pred/act E change: -0.264D-03 -0.588D-03
Maxdispl :   0.2134   ||displ|| :   0.3918   Lambda : -0.629D-03
Largest |displ|/coords:  0.2134 (   1)  0.1658 (   7)  0.1353 (   2)
................................................................................
.............................. CYCLE   29 ......................................
................................................................................
   1    -41.1063861 -0.411064E+02  0.338E-01    9.18       0.0  T
   2    -41.1063981 -0.120010E-04  0.256E-01    9.18       1.0  T
   3    -41.1064119 -0.137465E-04  0.220E-02    9.17       1.0  T
   4    -41.1064127 -0.826787E-06  0.807E-03    9.18       2.8  T
   5    -41.1064128 -0.482123E-07  0.237E-03    9.18       9.7  T
   6    -41.1064128 -0.429634E-08  0.125E-03    9.18      18.4  T
speedup  1.08
cpu  time for SCC    0.00 s
wall time for SCC    0.00 s
speedup  0.98
cpu  time for grad    0.01 s
wall time for grad    0.01 s
 E :    -40.91807589  G :  0.021304    pred/act E change: -0.508D-03 -0.373D-03
Maxdispl :   0.1175   ||displ|| :   0.2601   Lambda : -0.774D-03
Largest |displ|/coords:  0.1175 (   3)  0.1053 (   5)  0.0933 (   7)
................................................................................
.............................. CYCLE   30 ......................................
................................................................................
   1    -41.1102868 -0.411103E+02  0.209E-01    9.17       0.0  T
   2    -41.1102932 -0.634599E-05  0.158E-01    9.17       1.0  T
   3    -41.1102998 -0.664199E-05  0.160E-02    9.17       1.4  T
   4    -41.1103004 -0.567482E-06  0.362E-03    9.17       6.3  T
   5    -41.1103004 -0.133948E-07  0.183E-03    9.17      12.6  T
speedup  0.97
cpu  time for SCC    0.00 s
wall time for SCC    0.00 s
speedup  0.95
cpu  time for grad    0.01 s
wall time for grad    0.01 s
 E :    -40.91855062  G :  0.020045    pred/act E change: -0.363D-03 -0.475D-03
Maxdispl :   0.2167   ||displ|| :   0.3230   Lambda : -0.101D-02
Largest |displ|/coords:  0.2167 (   1)  0.1169 (   2)  0.1074 (   3)
................................................................................
.............................. CYCLE   31 ......................................
................................................................................
   1    -41.1136294 -0.411136E+02  0.243E-01    9.27       0.0  T
   2    -41.1136396 -0.102082E-04  0.184E-01    9.28       1.0  T
   3    -41.1136478 -0.813444E-05  0.222E-02    9.28       1.0  T
   4    -41.1136491 -0.137147E-05  0.803E-03    9.28       2.9  T
   5    -41.1136492 -0.837729E-07  0.270E-03    9.28       8.5  T
   6    -41.1136492 -0.343115E-08  0.149E-03    9.28      15.4  T
speedup  1.05
cpu  time for SCC    0.00 s
wall time for SCC    0.00 s
speedup  0.99
cpu  time for grad    0.01 s
wall time for grad    0.01 s
 E :    -40.91913519  G :  0.015258    pred/act E change: -0.413D-03 -0.585D-03
Maxdispl :   0.1720   ||displ|| :   0.3668   Lambda : -0.751D-03
Largest |displ|/coords:  0.1720 (   2)  0.1605 (   7)  0.1320 (   1)
................................................................................
.............................. CYCLE   32 ......................................
................................................................................
   1    -41.1131274 -0.411131E+02  0.297E-01    9.28       0.0  T
   2    -41.1131367 -0.934758E-05  0.225E-01    9.28       1.0  T
   3    -41.1131478 -0.110707E-04  0.197E-02    9.28       1.2  T
   4    -41.1131484 -0.578418E-06  0.668E-03    9.28       3.4  T
   5    -41.1131484 -0.344406E-07  0.246E-03    9.28       9.3  T
   6    -41.1131484 -0.436124E-08  0.134E-03    9.28      17.1  T
speedup  1.08
cpu  time for SCC    0.00 s
wall time for SCC    0.00 s
speedup  0.99
cpu  time for grad    0.01 s
wall time for grad    0.01 s
 E :    -40.91971491  G :  0.014773    pred/act E change: -0.559D-03 -0.580D-03
Maxdispl :   0.2641   ||displ|| :   0.4287   Lambda : -0.115D-02
Largest |displ|/coords:  0.2641 (   2)  0.1771 (   7)  0.1121 (   3)
................................................................................
.............................. CYCLE   33 ......................................
................................................................................
   1    -41.1162525 -0.411163E+02  0.390E-01    9.43       0.0  T
   2    -41.1162707 -0.182377E-04  0.294E-01    9.43       1.0  T
   3    -41.1162873 -0.166449E-04  0.309E-02    9.43       1.0  T
   4    -41.1162894 -0.210962E-05  0.980E-03    9.43       2.3  T
   5    -41.1162895 -0.895648E-07  0.390E-03    9.43       5.9  T
   6    -41.1162895 -0.598571E-08  0.185E-03    9.43      12.4  T
   7    -41.1162895 -0.461913E-08  0.398E-04    9.43      57.6  T
speedup  0.91
cpu  time for SCC    0.00 s
wall time for SCC    0.00 s
speedup  0.92
cpu  time for grad    0.01 s
wall time for grad    0.01 s
 E :    -40.92011866  G :  0.020128    pred/act E change: -0.426D-03 -0.404D-03
Maxdispl :   0.2641   ||displ|| :   0.4769   Lambda : -0.124D-02
Largest |displ|/coords:  0.2641 (   1)  0.2430 (   3)  0.1679 (   2)
................................................................................
.............................. CYCLE   34 ......................................
................................................................................
   1    -41.1007609 -0.411008E+02  0.420E-01    9.01       0.0  T
   2    -41.1007985 -0.375702E-04  0.315E-01    9.01       1.0  T
   3    -41.1008239 -0.253535E-04  0.529E-02    9.01       1.0  T
   4    -41.1008288 -0.497302E-05  0.153E-02    9.01       1.5  T
   5    -41.1008291 -0.320149E-06  0.428E-03    9.01       5.4  T
   6    -41.1008292 -0.126490E-07  0.251E-03    9.01       9.1  T
speedup  1.05
cpu  time for SCC    0.00 s
wall time for SCC    0.00 s
speedup  0.99
cpu  time for grad    0.01 s
wall time for grad    0.01 s
 E :    -40.91978963  G :  0.036984    pred/act E change: -0.678D-03  0.329D-03
Maxdispl :   0.1584   ||displ|| :   0.3382   Lambda : -0.264D-02
Largest |displ|/coords:  0.1584 (   3)  0.1580 (   7)  0.1508 (   2)
................................................................................
.............................. CYCLE   35 ......................................
................................................................................
   1    -41.1174278 -0.411174E+02  0.338E-01    9.51       0.0  T
   2    -41.1174594 -0.315819E-04  0.246E-01    9.52       1.0  T
   3    -41.1174799 -0.205682E-04  0.589E-02    9.51       1.0  T
   4    -41.1174832 -0.328346E-05  0.137E-02    9.51       1.7  T
   5    -41.1174835 -0.233591E-06  0.426E-03    9.51       5.4  T
   6    -41.1174835 -0.151043E-07  0.232E-03    9.51       9.9  T
speedup  1.08
cpu  time for SCC    0.00 s
wall time for SCC    0.00 s
speedup  0.99
cpu  time for grad    0.01 s
wall time for grad    0.01 s
 E :    -40.92018819  G :  0.022592    pred/act E change: -0.760D-03 -0.399D-03
Maxdispl :   0.2024   ||displ|| :   0.2609   Lambda : -0.169D-02
Largest |displ|/coords:  0.2024 (   6)  0.0889 (   2)  0.0639 (   9)
................................................................................
.............................. CYCLE   36 ......................................
................................................................................
   1    -41.1196869 -0.411197E+02  0.225E-01    9.51       0.0  T
   2    -41.1197031 -0.162329E-04  0.169E-01    9.51       1.0  T
   3    -41.1197182 -0.150052E-04  0.285E-02    9.52       1.0  T
   4    -41.1197200 -0.184827E-05  0.103E-02    9.51       2.2  T
   5    -41.1197201 -0.113567E-06  0.346E-03    9.51       6.6  T
   6    -41.1197201 -0.896954E-08  0.194E-03    9.51      11.8  T
speedup  1.05
cpu  time for SCC    0.00 s
wall time for SCC    0.00 s
speedup  1.09
cpu  time for grad    0.01 s
wall time for grad    0.01 s
 E :    -40.92074353  G :  0.015582    pred/act E change: -0.147D-02 -0.555D-03
Maxdispl :   0.1044   ||displ|| :   0.1664   Lambda : -0.541D-03
Largest |displ|/coords:  0.1044 (   3)  0.0765 (   1)  0.0471 (   2)
................................................................................
.............................. CYCLE   37 ......................................
................................................................................
   1    -41.1148239 -0.411148E+02  0.141E-01    9.42       0.0  T
   2    -41.1148290 -0.512545E-05  0.105E-01    9.41       1.0  T
   3    -41.1148323 -0.332807E-05  0.197E-02    9.41       1.2  T
   4    -41.1148331 -0.709308E-06  0.537E-03    9.42       4.3  T
   5    -41.1148331 -0.408543E-07  0.170E-03    9.42      13.5  T
   6    -41.1148331 -0.173350E-08  0.955E-04    9.42      24.0  T
speedup  0.81
cpu  time for SCC    0.00 s
wall time for SCC    0.00 s
speedup  0.99
cpu  time for grad    0.01 s
wall time for grad    0.01 s
 E :    -40.92109315  G :  0.007170    pred/act E change: -0.901D-03 -0.350D-03
Maxdispl :   0.1190   ||displ|| :   0.2576   Lambda : -0.323D-03
Largest |displ|/coords:  0.1190 (   1)  0.1115 (   2)  0.1006 (   3)
................................................................................
.............................. CYCLE   38 ......................................
................................................................................
   1    -41.1131704 -0.411132E+02  0.200E-01    9.37       0.0  T
   2    -41.1131765 -0.612256E-05  0.151E-01    9.37       1.0  T
   3    -41.1131819 -0.538612E-05  0.180E-02    9.37       1.3  T
   4    -41.1131826 -0.754708E-06  0.665E-03    9.37       3.4  T
   5    -41.1131827 -0.372700E-07  0.164E-03    9.37      14.0  T
   6    -41.1131827 -0.166682E-08  0.105E-03    9.37      21.8  T
speedup  0.81
cpu  time for SCC    0.00 s
wall time for SCC    0.00 s
speedup  0.99
cpu  time for grad    0.01 s
wall time for grad    0.01 s
 E :    -40.92130722  G :  0.012475    pred/act E change: -0.278D-03 -0.214D-03
Maxdispl :   0.2248   ||displ|| :   0.3869   Lambda : -0.498D-03
Largest |displ|/coords:  0.2248 (   3)  0.1370 (   2)  0.1203 (   1)
................................................................................
.............................. CYCLE   39 ......................................
................................................................................
   1    -41.1095799 -0.411096E+02  0.281E-01    9.33       0.0  T
   2    -41.1095910 -0.111170E-04  0.211E-01    9.33       1.0  T
   3    -41.1096018 -0.108176E-04  0.260E-02    9.33       1.0  T
   4    -41.1096029 -0.110009E-05  0.102E-02    9.33       2.3  T
   5    -41.1096030 -0.828280E-07  0.250E-03    9.33       9.2  T
   6    -41.1096030 -0.568102E-08  0.169E-03    9.33      13.6  T
speedup  1.03
cpu  time for SCC    0.00 s
wall time for SCC    0.00 s
speedup  0.97
cpu  time for grad    0.01 s
wall time for grad    0.01 s
 E :    -40.92156389  G :  0.017521    pred/act E change: -0.172D-03 -0.257D-03
Maxdispl :   0.1526   ||displ|| :   0.3187   Lambda : -0.759D-03
Largest |displ|/coords:  0.1526 (   5)  0.1132 (   3)  0.1092 (  15)
................................................................................
.............................. CYCLE   40 ......................................
................................................................................
   1    -41.1148017 -0.411148E+02  0.195E-01    9.46       0.0  T
   2    -41.1148107 -0.897002E-05  0.142E-01    9.45       1.0  T
   3    -41.1148170 -0.634425E-05  0.317E-02    9.45       1.0  T
   4    -41.1148180 -0.970918E-06  0.103E-02    9.45       2.2  T
   5    -41.1148181 -0.807960E-07  0.207E-03    9.45      11.1  T
   6    -41.1148181 -0.367780E-08  0.134E-03    9.45      17.1  T
speedup  1.05
cpu  time for SCC    0.00 s
wall time for SCC    0.00 s
speedup  0.97
cpu  time for grad    0.01 s
wall time for grad    0.01 s
 E :    -40.92206042  G :  0.013952    pred/act E change: -0.286D-03 -0.497D-03
Maxdispl :   0.1750   ||displ|| :   0.4259   Lambda : -0.817D-03
Largest |displ|/coords:  0.1750 (   6)  0.1744 (   2)  0.1607 (   5)
................................................................................
.............................. CYCLE   41 ......................................
................................................................................
   1    -41.1160732 -0.411161E+02  0.315E-01    9.55       0.0  T
   2    -41.1160912 -0.179548E-04  0.234E-01    9.55       1.0  T
   3    -41.1161082 -0.170052E-04  0.393E-02    9.54       1.0  T
   4    -41.1161101 -0.188990E-05  0.134E-02    9.54       1.7  T
   5    -41.1161102 -0.142843E-06  0.350E-03    9.54       6.6  T
   6    -41.1161102 -0.894097E-08  0.222E-03    9.54      10.3  T
   7    -41.1161102 -0.554215E-08  0.527E-04    9.54      43.5  T
speedup  1.16
cpu  time for SCC    0.00 s
wall time for SCC    0.00 s
speedup  1.02
cpu  time for grad    0.01 s
wall time for grad    0.01 s
 E :    -40.92240334  G :  0.023174    pred/act E change: -0.418D-03 -0.343D-03
Maxdispl :   0.1177   ||displ|| :   0.2773   Lambda : -0.868D-03
Largest |displ|/coords:  0.1177 (   5)  0.0901 (  14)  0.0896 (  15)
................................................................................
.............................. CYCLE   42 ......................................
................................................................................
   1    -41.1213242 -0.411213E+02  0.183E-01    9.51       0.0  T
   2    -41.1213369 -0.126956E-04  0.135E-01    9.51       1.0  T
   3    -41.1213444 -0.753562E-05  0.262E-02    9.50       1.0  T
   4    -41.1213460 -0.157826E-05  0.102E-02    9.50       2.2  T
   5    -41.1213461 -0.102441E-06  0.232E-03    9.50       9.9  T
   6    -41.1213461 -0.689197E-08  0.142E-03    9.50      16.1  T
speedup  1.05
cpu  time for SCC    0.00 s
wall time for SCC    0.00 s
speedup  1.09
cpu  time for grad    0.01 s
wall time for grad    0.01 s
 E :    -40.92277649  G :  0.016947    pred/act E change: -0.483D-03 -0.373D-03
Maxdispl :   0.1776   ||displ|| :   0.3787   Lambda : -0.945D-03
Largest |displ|/coords:  0.1776 (   1)  0.1707 (   3)  0.1537 (   5)
................................................................................
.............................. CYCLE   43 ......................................
................................................................................
   1    -41.1157114 -0.411157E+02  0.234E-01    9.47       0.0  T
   2    -41.1157262 -0.148453E-04  0.175E-01    9.47       1.0  T
   3    -41.1157359 -0.964731E-05  0.308E-02    9.47       1.0  T
   4    -41.1157381 -0.215831E-05  0.120E-02    9.47       1.9  T
   5    -41.1157382 -0.152401E-06  0.313E-03    9.47       7.3  T
   6    -41.1157382 -0.793472E-08  0.201E-03    9.47      11.4  T
   7    -41.1157382 -0.625106E-08  0.456E-04    9.47      50.3  T
speedup  0.93
cpu  time for SCC    0.00 s
wall time for SCC    0.00 s
speedup  0.92
cpu  time for grad    0.01 s
wall time for grad    0.01 s
 E :    -40.92307777  G :  0.019807    pred/act E change: -0.467D-03 -0.301D-03
Maxdispl :   0.1231   ||displ|| :   0.2210   Lambda : -0.953D-03
Largest |displ|/coords:  0.1231 (   1)  0.0796 (  10)  0.0758 (   4)
................................................................................
.............................. CYCLE   44 ......................................
................................................................................
   1    -41.1215658 -0.411216E+02  0.191E-01    9.77       0.0  T
   2    -41.1215777 -0.119235E-04  0.139E-01    9.77       1.0  T
   3    -41.1215853 -0.757896E-05  0.300E-02    9.76       1.0  T
   4    -41.1215864 -0.114103E-05  0.945E-03    9.76       2.4  T
   5    -41.1215865 -0.964080E-07  0.209E-03    9.76      11.0  T
   6    -41.1215865 -0.430980E-08  0.127E-03    9.76      18.1  T
speedup  1.05
cpu  time for SCC    0.00 s
wall time for SCC    0.00 s
speedup  1.09
cpu  time for grad    0.01 s
wall time for grad    0.01 s
 E :    -40.92317784  G :  0.021133    pred/act E change: -0.540D-03 -0.100D-03
Maxdispl :   0.1760   ||displ|| :   0.3667   Lambda : -0.129D-02
Largest |displ|/coords:  0.1760 (   2)  0.1277 (   5)  0.1223 (   3)
................................................................................
.............................. CYCLE   45 ......................................
................................................................................
   1    -41.1147738 -0.411148E+02  0.302E-01    9.45       0.0  T
   2    -41.1148058 -0.320468E-04  0.225E-01    9.45       1.0  T
   3    -41.1148254 -0.195922E-04  0.441E-02    9.45       1.0  T
   4    -41.1148297 -0.426703E-05  0.151E-02    9.45       1.5  T
   5    -41.1148300 -0.321077E-06  0.407E-03    9.45       5.6  T
   6    -41.1148300 -0.150387E-07  0.248E-03    9.45       9.2  T
speedup  0.79
cpu  time for SCC    0.00 s
wall time for SCC    0.00 s
speedup  0.98
cpu  time for grad    0.01 s
wall time for grad    0.01 s
 E :    -40.92325704  G :  0.023548    pred/act E change: -0.500D-03 -0.792D-04
Maxdispl :   0.1235   ||displ|| :   0.1850   Lambda : -0.126D-02
Largest |displ|/coords:  0.1235 (   3)  0.0665 (  15)  0.0647 (   6)
................................................................................
.............................. CYCLE   46 ......................................
................................................................................
   1    -41.1197560 -0.411198E+02  0.140E-01    9.54       0.0  T
   2    -41.1197661 -0.101081E-04  0.104E-01    9.54       1.0  T
   3    -41.1197718 -0.565452E-05  0.228E-02    9.54       1.0  T
   4    -41.1197730 -0.118250E-05  0.830E-03    9.54       2.8  T
   5    -41.1197730 -0.806898E-07  0.219E-03    9.54      10.5  T
   6    -41.1197730 -0.455874E-08  0.124E-03    9.54      18.5  T
speedup  1.05
cpu  time for SCC    0.00 s
wall time for SCC    0.00 s
speedup  0.97
cpu  time for grad    0.01 s
wall time for grad    0.01 s
 E :    -40.92376424  G :  0.010962    pred/act E change: -0.730D-03 -0.507D-03
Maxdispl :   0.0974   ||displ|| :   0.1833   Lambda : -0.370D-03
Largest |displ|/coords:  0.0974 (   4)  0.0856 (   3)  0.0638 (   5)
................................................................................
.............................. CYCLE   47 ......................................
................................................................................
   1    -41.1188754 -0.411189E+02  0.116E-01    9.57       0.0  T
   2    -41.1188791 -0.378359E-05  0.857E-02    9.57       1.0  T
   3    -41.1188816 -0.243566E-05  0.193E-02    9.57       1.2  T
   4    -41.1188820 -0.439446E-06  0.474E-03    9.57       4.8  T
   5    -41.1188820 -0.284120E-07  0.148E-03    9.57      15.5  T
   6    -41.1188820 -0.136089E-08  0.837E-04    9.57      27.4  T
speedup  0.79
cpu  time for SCC    0.00 s
wall time for SCC    0.00 s
speedup  0.97
cpu  time for grad    0.01 s
wall time for grad    0.01 s
 E :    -40.92392325  G :  0.009057    pred/act E change: -0.652D-03 -0.159D-03
Maxdispl :   0.0856   ||displ|| :   0.1491   Lambda : -0.194D-03
Largest |displ|/coords:  0.0856 (   2)  0.0669 (   1)  0.0624 (   5)
................................................................................
.............................. CYCLE   48 ......................................
................................................................................
   1    -41.1185412 -0.411185E+02  0.103E-01    9.57       0.0  T
   2    -41.1185431 -0.190227E-05  0.770E-02    9.57       1.0  T
   3    -41.1185451 -0.194314E-05  0.116E-02    9.57       2.0  T
   4    -41.1185453 -0.192672E-06  0.348E-03    9.57       6.6  T
   5    -41.1185453 -0.120878E-07  0.116E-03    9.57      19.7  T
   6    -41.1185453 -0.107645E-08  0.622E-04    9.57      36.9  T
speedup  0.79
cpu  time for SCC    0.00 s
wall time for SCC    0.00 s
speedup  0.96
cpu  time for grad    0.01 s
wall time for grad    0.01 s
 E :    -40.92406284  G :  0.006009    pred/act E change: -0.191D-03 -0.140D-03
Maxdispl :   0.1143   ||displ|| :   0.1947   Lambda : -0.189D-03
Largest |displ|/coords:  0.1143 (   2)  0.0815 (   1)  0.0815 (   5)
................................................................................
.............................. CYCLE   49 ......................................
................................................................................
   1    -41.1185030 -0.411185E+02  0.123E-01    9.53       0.0  T
   2    -41.1185054 -0.236715E-05  0.916E-02    9.53       1.0  T
   3    -41.1185078 -0.236267E-05  0.159E-02    9.53       1.4  T
   4    -41.1185080 -0.247781E-06  0.417E-03    9.53       5.5  T
   5    -41.1185080 -0.194302E-07  0.141E-03    9.53      16.3  T
   6    -41.1185080 -0.118572E-08  0.761E-04    9.53      30.2  T
speedup  1.05
cpu  time for SCC    0.00 s
wall time for SCC    0.00 s
speedup  0.98
cpu  time for grad    0.01 s
wall time for grad    0.01 s
 E :    -40.92416781  G :  0.006499    pred/act E change: -0.992D-04 -0.105D-03
Maxdispl :   0.0603   ||displ|| :   0.1097   Lambda : -0.800D-04
Largest |displ|/coords:  0.0603 (   5)  0.0551 (   2)  0.0408 (   1)
................................................................................
.............................. CYCLE   50 ......................................
................................................................................
   1    -41.1184596 -0.411185E+02  0.700E-02    9.55       0.0  T
   2    -41.1184604 -0.812135E-06  0.524E-02    9.55       1.0  T
   3    -41.1184612 -0.806384E-06  0.805E-03    9.55       2.8  T
   4    -41.1184613 -0.771675E-07  0.215E-03    9.55      10.7  T
   5    -41.1184613 -0.621840E-08  0.762E-04    9.55      30.1  T
speedup  1.29
cpu  time for SCC    0.00 s
wall time for SCC    0.00 s
speedup  1.05
cpu  time for grad    0.01 s
wall time for grad    0.01 s
 E :    -40.92420792  G :  0.005608    pred/act E change: -0.979D-04 -0.401D-04
Maxdispl :   0.0258   ||displ|| :   0.0433   Lambda : -0.647D-04
Largest |displ|/coords:  0.0258 (   2)  0.0155 (   4)  0.0100 (   5)
................................................................................
.............................. CYCLE   51 ......................................
................................................................................
   1    -41.1195735 -0.411196E+02  0.354E-02    9.58       0.0  T
   2    -41.1195739 -0.358238E-06  0.264E-02    9.58       1.0  T
   3    -41.1195743 -0.360779E-06  0.457E-03    9.58       5.0  T
   4    -41.1195743 -0.341507E-07  0.136E-03    9.58      16.9  T
   5    -41.1195743 -0.205684E-08  0.518E-04    9.58      44.3  T
speedup  0.94
cpu  time for SCC    0.00 s
wall time for SCC    0.00 s
speedup  1.05
cpu  time for grad    0.01 s
wall time for grad    0.01 s
 E :    -40.92424930  G :  0.004295    pred/act E change: -0.405D-04 -0.414D-04
Maxdispl :   0.0331   ||displ|| :   0.0489   Lambda : -0.411D-04
Largest |displ|/coords:  0.0331 (   2)  0.0126 (   4)  0.0119 (  12)
................................................................................
.............................. CYCLE   52 ......................................
................................................................................
   1    -41.1200232 -0.411200E+02  0.457E-02    9.59       0.0  T
   2    -41.1200236 -0.380329E-06  0.338E-02    9.59       1.0  T
   3    -41.1200239 -0.303161E-06  0.565E-03    9.59       4.1  T
   4    -41.1200239 -0.422631E-07  0.169E-03    9.59      13.6  T
   5    -41.1200239 -0.226666E-08  0.484E-04    9.59      47.4  T
speedup  0.91
cpu  time for SCC    0.00 s
wall time for SCC    0.00 s
speedup  1.03
cpu  time for grad    0.01 s
wall time for grad    0.01 s
 E :    -40.92427829  G :  0.004123    pred/act E change: -0.324D-04 -0.290D-04
Maxdispl :   0.0238   ||displ|| :   0.0499   Lambda : -0.444D-04
Largest |displ|/coords:  0.0238 (   2)  0.0192 (  12)  0.0164 (   8)

generating ANC from model Hessian ...
 Shifting diagonal of input Hessian by   4.325308393399367E-003
 Lowest  eigenvalues of input Hessian
   -0.000000   -0.000000   -0.000000    0.000000    0.000000    0.000000
    0.005000    0.005236    0.005854    0.006042    0.006277    0.006984
    0.010085    0.013284    0.014010    0.017682    0.022219    0.023313
 Highest eigenvalues
    1.364775    1.378843    1.417159    2.656952    3.456600    3.597551
 
cpu  time for ANC gen    0.02 s
wall time for ANC gen    0.02 s
................................................................................
.............................. CYCLE   53 ......................................
................................................................................
   1    -41.1202583 -0.411203E+02  0.480E-02    9.60       0.0  T
   2    -41.1202588 -0.488500E-06  0.356E-02    9.60       1.0  T
   3    -41.1202591 -0.335668E-06  0.591E-03    9.60       3.9  T
   4    -41.1202592 -0.644435E-07  0.193E-03    9.60      11.9  T
   5    -41.1202592 -0.337902E-08  0.541E-04    9.60      42.4  T
   6    -41.1202592 -0.287457E-09  0.324E-04    9.60      70.7  T
speedup  0.79
cpu  time for SCC    0.00 s
wall time for SCC    0.00 s
speedup  0.95
cpu  time for grad    0.01 s
wall time for grad    0.01 s
 E :    -40.92430543  G :  0.004006    pred/act E change:  0.000D+00 -0.271D-04
Maxdispl :   0.0821   ||displ|| :   0.1299   Lambda : -0.153D-03
Largest |displ|/coords:  0.0821 (   2)  0.0674 (   6)  0.0410 (   3)
................................................................................
.............................. CYCLE   54 ......................................
................................................................................
   1    -41.1197622 -0.411198E+02  0.102E-01    9.58       0.0  T
   2    -41.1197634 -0.121187E-05  0.765E-02    9.58       1.0  T
   3    -41.1197648 -0.138064E-05  0.891E-03    9.58       2.6  T
   4    -41.1197649 -0.110385E-06  0.293E-03    9.58       7.8  T
   5    -41.1197649 -0.834090E-08  0.106E-03    9.58      21.6  T
speedup  0.97
cpu  time for SCC    0.00 s
wall time for SCC    0.00 s
speedup  1.05
cpu  time for grad    0.01 s
wall time for grad    0.01 s
 E :    -40.92440174  G :  0.003038    pred/act E change:  0.000D+00 -0.963D-04
Maxdispl :   0.1037   ||displ|| :   0.1668   Lambda : -0.127D-03
Largest |displ|/coords:  0.1037 (   2)  0.0768 (   6)  0.0701 (   3)
................................................................................
.............................. CYCLE   55 ......................................
................................................................................
   1    -41.1185768 -0.411186E+02  0.131E-01    9.55       0.0  T
   2    -41.1185785 -0.173389E-05  0.984E-02    9.55       1.0  T
   3    -41.1185806 -0.208203E-05  0.100E-02    9.55       2.3  T
   4    -41.1185807 -0.143234E-06  0.374E-03    9.55       6.1  T
   5    -41.1185808 -0.131405E-07  0.130E-03    9.55      17.7  T
   6    -41.1185808 -0.149548E-08  0.659E-04    9.55      34.8  T
   7    -41.1185808 -0.481563E-09  0.157E-04    9.55     146.3  T
speedup  0.93
cpu  time for SCC    0.00 s
wall time for SCC    0.00 s
speedup  1.00
cpu  time for grad    0.01 s
wall time for grad    0.01 s
 E :    -40.92446363  G :  0.004398    pred/act E change: -0.779D-04 -0.619D-04
Maxdispl :   0.0597   ||displ|| :   0.0909   Lambda : -0.731D-04
Largest |displ|/coords:  0.0597 (   2)  0.0385 (   3)  0.0304 (   5)
................................................................................
.............................. CYCLE   56 ......................................
................................................................................
   1    -41.1185490 -0.411185E+02  0.669E-02    9.54       0.0  T
   2    -41.1185494 -0.368224E-06  0.502E-02    9.54       1.0  T
   3    -41.1185497 -0.342498E-06  0.483E-03    9.54       4.7  T
   4    -41.1185498 -0.441761E-07  0.168E-03    9.54      13.6  T
   5    -41.1185498 -0.281420E-08  0.577E-04    9.54      39.8  T
speedup  0.94
cpu  time for SCC    0.00 s
wall time for SCC    0.00 s
speedup  1.02
cpu  time for grad    0.01 s
wall time for grad    0.01 s
 E :    -40.92450000  G :  0.003827    pred/act E change: -0.651D-04 -0.364D-04
Maxdispl :   0.0115   ||displ|| :   0.0291   Lambda : -0.348D-04
Largest |displ|/coords:  0.0115 (   1)  0.0100 (  12)  0.0092 (   5)
................................................................................
.............................. CYCLE   57 ......................................
................................................................................
   1    -41.1193410 -0.411193E+02  0.183E-02    9.54       0.0  T
   2    -41.1193411 -0.124646E-06  0.139E-02    9.54       1.7  T
   3    -41.1193412 -0.111053E-06  0.236E-03    9.54       9.7  T
   4    -41.1193412 -0.134526E-07  0.892E-04    9.54      25.7  T
   5    -41.1193412 -0.782279E-09  0.270E-04    9.54      85.1  T
speedup  0.94
cpu  time for SCC    0.00 s
wall time for SCC    0.00 s
speedup  1.01
cpu  time for grad    0.01 s
wall time for grad    0.01 s
 E :    -40.92451795  G :  0.001406    pred/act E change: -0.369D-04 -0.180D-04
Maxdispl :   0.0426   ||displ|| :   0.0718   Lambda : -0.191D-04
Largest |displ|/coords:  0.0426 (   2)  0.0411 (   6)  0.0262 (   3)
................................................................................
.............................. CYCLE   58 ......................................
................................................................................
   1    -41.1191657 -0.411192E+02  0.567E-02    9.55       0.0  T
   2    -41.1191662 -0.513976E-06  0.428E-02    9.55       1.0  T
   3    -41.1191667 -0.528683E-06  0.494E-03    9.55       4.6  T
   4    -41.1191668 -0.588934E-07  0.180E-03    9.55      12.8  T
   5    -41.1191668 -0.331607E-08  0.658E-04    9.55      34.8  T
   6    -41.1191668 -0.395140E-09  0.309E-04    9.55      74.2  T
speedup  1.08
cpu  time for SCC    0.00 s
wall time for SCC    0.00 s
speedup  1.06
cpu  time for grad    0.01 s
wall time for grad    0.01 s
 E :    -40.92452897  G :  0.001491    pred/act E change: -0.174D-04 -0.110D-04
Maxdispl :   0.0138   ||displ|| :   0.0246   Lambda : -0.534D-05
Largest |displ|/coords:  0.0138 (   2)  0.0128 (   6)  0.0087 (   4)
................................................................................
.............................. CYCLE   59 ......................................
................................................................................
   1    -41.1193075 -0.411193E+02  0.203E-02    9.55       0.0  T
   2    -41.1193076 -0.732085E-07  0.153E-02    9.55       1.5  T
   3    -41.1193077 -0.722250E-07  0.190E-03    9.55      12.1  T
   4    -41.1193077 -0.843747E-08  0.635E-04    9.55      36.1  T
   5    -41.1193077 -0.424563E-09  0.229E-04    9.55     100.2  T
speedup  0.94
cpu  time for SCC    0.00 s
wall time for SCC    0.00 s
speedup  1.01
cpu  time for grad    0.01 s
wall time for grad    0.01 s
 E :    -40.92453294  G :  0.000951    pred/act E change: -0.962D-05 -0.397D-05
Maxdispl :   0.0133   ||displ|| :   0.0254   Lambda : -0.419D-05
Largest |displ|/coords:  0.0133 (   4)  0.0124 (   6)  0.0091 (   2)
................................................................................
.............................. CYCLE   60 ......................................
................................................................................
   1    -41.1195298 -0.411195E+02  0.207E-02    9.56       0.0  T
   2    -41.1195299 -0.831228E-07  0.156E-02    9.56       1.5  T
   3    -41.1195300 -0.779173E-07  0.201E-03    9.56      11.4  T
   4    -41.1195300 -0.982138E-08  0.620E-04    9.56      37.0  T
   5    -41.1195300 -0.449404E-09  0.247E-04    9.56      93.0  T
speedup  0.94
cpu  time for SCC    0.00 s
wall time for SCC    0.00 s
speedup  1.01
cpu  time for grad    0.01 s
wall time for grad    0.01 s
 E :    -40.92453551  G :  0.000419    pred/act E change: -0.267D-05 -0.257D-05
Maxdispl :   0.0072   ||displ|| :   0.0125   Lambda : -0.925D-06
Largest |displ|/coords:  0.0072 (   4)  0.0067 (   6)  0.0043 (  14)
................................................................................
.............................. CYCLE   61 ......................................
................................................................................
   1    -41.1195801 -0.411196E+02  0.952E-03    9.56       0.0  T
   2    -41.1195802 -0.166620E-07  0.715E-03    9.56       3.2  T
   3    -41.1195802 -0.138994E-07  0.954E-04    9.56      24.0  T
   4    -41.1195802 -0.222227E-08  0.285E-04    9.56      80.4  T
speedup  0.80
cpu  time for SCC    0.00 s
wall time for SCC    0.00 s
speedup  0.98
cpu  time for grad    0.01 s
wall time for grad    0.01 s
 E :    -40.92453617  G :  0.000343    pred/act E change: -0.209D-05 -0.658D-06
Maxdispl :   0.0061   ||displ|| :   0.0107   Lambda : -0.564D-06
Largest |displ|/coords:  0.0061 (   4)  0.0046 (   3)  0.0042 (   6)
................................................................................
.............................. CYCLE   62 ......................................
................................................................................
   1    -41.1195970 -0.411196E+02  0.606E-03    9.56       0.0  T
   2    -41.1195970 -0.756193E-08  0.455E-03    9.56       5.0  T
   3    -41.1195970 -0.519887E-08  0.677E-04    9.56      33.9  T
   4    -41.1195970 -0.114229E-08  0.215E-04    9.56     106.6  T
speedup  1.15
cpu  time for SCC    0.00 s
wall time for SCC    0.00 s
speedup  1.08
cpu  time for grad    0.01 s
wall time for grad    0.01 s
 E :    -40.92453653  G :  0.000248    pred/act E change: -0.463D-06 -0.364D-06
Maxdispl :   0.0019   ||displ|| :   0.0044   Lambda : -0.179D-06
Largest |displ|/coords:  0.0019 (   2)  0.0019 (   3)  0.0018 (   4)
................................................................................
.............................. CYCLE   63 ......................................
................................................................................
   1    -41.1195614 -0.411196E+02  0.263E-03    9.56       0.0  T
   2    -41.1195614 -0.204204E-08  0.198E-03    9.56      11.6  T
   3    -41.1195614 -0.899917E-09  0.379E-04    9.56      60.6  T
   4    -41.1195614 -0.351086E-09  0.135E-04    9.56     169.6  T
speedup  0.77
cpu  time for SCC    0.00 s
wall time for SCC    0.00 s
speedup  0.96
cpu  time for grad    0.01 s
wall time for grad    0.01 s
 E :    -40.92453665  G :  0.000137    pred/act E change: -0.282D-06 -0.122D-06
Maxdispl :   0.0020   ||displ|| :   0.0036   Lambda : -0.111D-06
Largest |displ|/coords:  0.0020 (   2)  0.0018 (   3)  0.0009 (  25)
................................................................................
.............................. CYCLE   64 ......................................
................................................................................
   1    -41.1195307 -0.411195E+02  0.243E-03    9.56       0.0  T
   2    -41.1195307 -0.161163E-08  0.183E-03    9.56      12.5  T
   3    -41.1195307 -0.706216E-09  0.364E-04    9.56      63.0  T
   4    -41.1195307 -0.281339E-09  0.129E-04    9.56     178.0  T
speedup  1.20
cpu  time for SCC    0.00 s
wall time for SCC    0.00 s
speedup  0.98
cpu  time for grad    0.01 s
wall time for grad    0.01 s
 E :    -40.92453673  G :  0.000100    pred/act E change: -0.893D-07 -0.787D-07
Maxdispl :   0.0012   ||displ|| :   0.0026   Lambda : -0.836D-07
Largest |displ|/coords:  0.0012 (  25)  0.0010 (   2)  0.0010 (   6)

   *** GEOMETRY OPTIMIZATION CONVERGED AFTER 64 ITERATIONS ***

------------------------------------------------------------------------
 total energy gain (kcal):     -0.1451
------------------------------------------------------------------------
================
 final structure:
================
$coord
        0.21768446982010        0.41612251743239       -2.84102281685283      S 
       -1.94870409593828       -1.23756741191228       -2.42999661785715      O 
       -0.19232464893489        2.87618758591068       -1.66688432926127      O 
        2.57792016132959       -0.73230103306161       -2.06873594082531      O 
        0.42226669862920        0.87121825505135       -5.78389088788653      O 
       -1.17940104211947        1.53929503756303       -6.26377545589248      H 
        3.37936379563635        1.89522569915562        1.99909086633843      O 
        2.59293510373864        3.44248431549281        1.44216760303583      H 
        3.48894595631644        0.87530549384211        0.43761563990252      H 
       -3.52643011591240        1.55149093432502        1.66536200125286      O 
       -4.35875520629416        0.26213154518537        0.68254689836611      H 
       -2.39505270977507        2.38641273534920        0.42775869455398      H 
        0.14106883182740       -4.22170709442964        0.86825964229033      O 
       -0.86829689723372       -3.38010001350520       -0.46259318285816      H 
        1.83091780362026       -4.22198167749012        0.18637479728923      H 
       -0.06273207876231       -0.68141587015408        4.04880503595400      O 
        1.47719742186028        0.41577264693945        3.46779453818767      H 
       -1.63968870504379        0.27076485455130        3.33452164065150      H 
        0.04308523859232       -2.32733850154300        2.95660189236094      H 
$end
 
 Bond Distances (Angstroems)
 ---------------------------
S1-O2=1.4585         S1-O3=1.4587         S1-O4=1.4479         S1-O5=1.5795         O2-S1=1.4585         O3-S1=1.4587         
O4-S1=1.4479         O5-S1=1.5795         O5-H6=0.9528         H6-O5=0.9528         O7-H8=0.9646         O7-H9=0.9886         
H8-O7=0.9646         H9-O7=0.9886         O10-H11=0.9644       O10-H12=0.9912       H11-O10=0.9644       H12-O10=0.9912       
O13-H14=0.9898       O13-H15=0.9643       H14-O13=0.9898       H15-O13=0.9643       O16-H17=1.0468       O16-H18=1.0455       
O16-H19=1.0468       H17-O16=1.0468       H18-O16=1.0455       H19-O16=1.0468       
 O  H  Rav=0.9955 sigma=0.0355  Rmin=0.9528  Rmax=1.0468    10
 S  O  Rav=1.4862 sigma=0.0541  Rmin=1.4479  Rmax=1.5795     4
 
 selected bond angles (degree)
 --------------------
O3-S1-O2=110.79                O4-S1-O2=112.59                O4-S1-O3=112.50                O5-S1-O2=107.00                
O5-S1-O3=107.10                O5-S1-O4=106.45                H6-O5-S1=104.97                H9-O7-H8=103.49                
H12-O10-H11=103.59             
 
 selected dihedral angles (degree)
 ---------------------------------
H6-O5-S1-O2= 56.32            H6-O5-S1-O3=297.47            H6-O5-S1-O4=176.92            
 
 CMA Distance (Angstroems)
 ---------------------------
R(CMA):  2.6943

========================================================================
 FINAL SINGLEPOINT CALCULATION ON OPTIMIZED GEOMETRY
========================================================================

 Ncao       : 52
 Nao        : 51
 Nshell     : 29
 Nel        : 64
 T(el)      :   300.0
 intcut     :    25.0
 scfconv/Eh :  0.100E-05
   qconv/e  :  0.100E-03
 intneglect :  0.100E-07
 broydamp   :      0.250
 iter      E             dE          RMSdq      gap      omega  full diag
   1    -41.1195307 -0.411195E+02  0.365E-05    9.56       0.0  T
   2    -41.1195307 -0.653699E-12  0.237E-05    9.56     967.2  T
   3    -41.1195307 -0.333955E-12  0.535E-06    9.56    4289.1  T
speedup  0.56
cpu  time for SCC    0.00 s
wall time for SCC    0.00 s

   *** convergence criteria satisfied after 3 iterations ***

          eigenvalues
 #    :          20         21         22         23         24         25         26         27
 occ. :        2.000      2.000      2.000      2.000      2.000      2.000      2.000      2.000
 eps  :       -14.665    -14.661    -14.127    -13.625    -12.995    -12.921    -12.885    -12.661
 #    :          28         29         30         31         32         33         34         35
 occ. :        2.000      2.000      2.000      2.000      2.000      0.000      0.000      0.000
 eps  :       -12.576    -12.572    -12.365    -12.304    -12.111     -2.555     -0.828     -0.686
 #    :          36         37         38         39         40         41         42         43
 occ. :        0.000      0.000      0.000      0.000      0.000      0.000      0.000      0.000
 eps  :         0.731      0.910      2.195      2.233      3.626      4.163      6.434      6.585


   #   Z            q   n(s)   n(p)   n(d)      C6AA      α(0)
   1  16 S      1.675  1.582  1.790  0.953    89.337    15.908
   2   8 O     -0.760  1.774  4.986  0.000    30.405     7.393
   3   8 O     -0.759  1.774  4.984  0.000    30.355     7.387
   4   8 O     -0.728  1.765  4.963  0.000    29.479     7.280
   5   8 O     -0.582  1.750  4.832  0.000    24.733     6.714
   6   1 H      0.345  0.655  0.000  0.000     0.593     1.206
   7   8 O     -0.593  1.743  4.851  0.000    25.018     6.751
   8   1 H      0.317  0.683  0.000  0.000     0.672     1.288
   9   1 H      0.336  0.664  0.000  0.000     0.623     1.240
  10   8 O     -0.597  1.745  4.852  0.000    25.105     6.763
  11   1 H      0.315  0.685  0.000  0.000     0.677     1.293
  12   1 H      0.335  0.665  0.000  0.000     0.625     1.242
  13   8 O     -0.595  1.743  4.852  0.000    25.047     6.755
  14   1 H      0.335  0.665  0.000  0.000     0.625     1.242
  15   1 H      0.317  0.683  0.000  0.000     0.673     1.288
  16   8 O     -0.509  1.730  4.778  0.000    23.017     6.480
  17   1 H      0.383  0.617  0.000  0.000     0.517     1.129
  18   1 H      0.382  0.618  0.000  0.000     0.518     1.130
  19   1 H      0.383  0.617  0.000  0.000     0.517     1.130

 Mol. C6AA /au·bohr⁶  :       3383.153142
 Mol. C8AA /au·bohr⁸  :      76643.297101
 Mol. α(0) /au        :         83.618216

 
 Wiberg/Mayer (AO) data. WBOs > 0.1 written file <wbo>
 largest (>0.05) Wiberg bond orders for each atom
           total WBO             WBO to atom ...
     1  S   4.861    O    4 1.343    O    2 1.294    O    3 1.292    O    5 0.901
     2  O   1.706    S    1 1.294    O    4 0.110    O    3 0.110    O    5 0.075    H   14 0.072
     3  O   1.709    S    1 1.292    O    4 0.110    O    2 0.110    H   12 0.076    O    5 0.075
     4  O   1.744    S    1 1.343    O    3 0.110    O    2 0.110    H    9 0.069    O    5 0.062
     5  O   1.980    S    1 0.901    H    6 0.864    O    2 0.075    O    3 0.075    O    4 0.062
     6  H   0.881    O    5 0.864
     7  O   1.970    H    8 0.888    H    9 0.813    H   17 0.167    O   16 0.061
     8  H   0.900    O    7 0.888
     9  H   0.887    O    7 0.813    O    4 0.069
    10  O   1.966    H   11 0.889    H   12 0.807    H   18 0.165    O   16 0.060
    11  H   0.901    O   10 0.889
    12  H   0.888    O   10 0.807    O    3 0.076
    13  O   1.969    H   15 0.889    H   14 0.810    H   19 0.167    O   16 0.060
    14  H   0.888    O   13 0.810    O    2 0.072
    15  H   0.900    O   13 0.889
    16  O   2.242    H   18 0.686    H   19 0.684    H   17 0.684    O    7 0.061    O   13 0.060    O   10 0.060
    17  H   0.853    O   16 0.684    O    7 0.167
    18  H   0.854    O   16 0.686    O   10 0.165
    19  H   0.854    O   16 0.684    O   13 0.167
 MOs/occ written to file <molden.input>
 
molecular dipole:
                 x           y           z       tot (Debye)
 q only:       -0.428      -0.012       0.908
   full:       -0.493       0.216      -0.313       1.584
molecular quadrupole (traceless):
                xx          xy          yy          xz          yz          zz
 q only:       -1.356      -1.183      -1.020       4.661      -2.545       2.376
  q+dip:       -1.174      -1.444      -0.762       5.577      -2.827       1.936
   full:       -1.240      -1.558      -0.992       5.689      -2.979       2.232

SCC energy    :     -41.1195307
rep           :       0.1949062
ES            :       0.2019653
AES           :      -0.0579651
AXC           :      -0.0103432
disp          :      -0.0146191
XB            :       0.0000000
fix           :       0.0000000
total E       :     -40.9245367
atomizationE  :       3.7187239     2333.53
(atE without considering molecular charge,
 total energy contains solvation terms)
H-L gap (eV)  :          9.5558
optimized geometry written to: xtbopt.xyz


------------------------------------------------------------------------
 * finished run on 2019/09/03 at 08:18:20.662     
------------------------------------------------------------------------
 total:
 * wall-time:     0 d,  0 h,  0 min,  1.121 sec
 *  cpu-time:     0 d,  0 h,  0 min,  1.065 sec
 * ratio c/w:     0.950 speedup
 SCF:
 * wall-time:     0 d,  0 h,  0 min,  0.095 sec
 *  cpu-time:     0 d,  0 h,  0 min,  0.092 sec
 * ratio c/w:     0.969 speedup
 ANC optimizer:
 * wall-time:     0 d,  0 h,  0 min,  1.004 sec
 *  cpu-time:     0 d,  0 h,  0 min,  0.953 sec
 * ratio c/w:     0.949 speedup

