      -----------------------------------------------------------      
     |                   =====================                   |     
     |                           x T B                           |     
     |                   =====================                   |     
     |                         S. Grimme                         |     
     |          Mulliken Center for Theoretical Chemistry        |     
     |                    University of Bonn                     |     
     |                 Version 6.0.1 (SAW181210)                 |     
      -----------------------------------------------------------      

   This program is distributed in the hope that it will be useful,
   but WITHOUT ANY WARRANTY; without even the implied warranty of
   MERCHANTABILITY or FITNESS FOR A PARTICULAR PURPOSE.
   
   FOR NON-COMMERCIAL, ACADEMIA USE ONLY.
   
   Cite this work as:
   S. Grimme, C. Bannwarth, P. Shushkov, J. Comput. Theory Chem., 2017,
   13, 1989-2009.
   C. Bannwarth, S. Ehlert and S. Grimme., ChemRxiv, 2018, preprint.
   http://doi.org/10.26434/chemrxiv.7246238.v1
   
   for sTDA-xTB:
   S. Grimme and C. Bannwarth, J. Chem. Phys., 2016, 145, 054103.
   
   in the mass-spec context:
   V. Asgeirsson, C. Bauer and S. Grimme, Chem. Sci., 2017, 8, 4879.
   
   if GBSA is used:
   P. Shushkov, F. März and S. Grimme, unpublished.
   
   for ANC optimizer:
   S. Grimme, unpublished.
   Rational Function algorithm used in ANCopt:
   F. Eckert, P. Pulay, H.-J. Werner, J. Comput. Chem., 1997, 18, 1473.
   
   with help from (in alphabetical order)
   C. Bannwarth, F. Bohle, G. Brandenburg, E. Caldeweyher, M. Checinski,
   S. Dohm, S. Ehlert, S. Ehrlich, F. März, H. Neugebauer, J. Pisarek,
   P. Pracht, P. Shushkov, and S. Spicher.
   
 * started run on 2019/09/03 at 08:18:38.166     
========================================================================
 # omp threads = 1
========================================================================
number of atoms            : 19
number of electrons        : 64
charge                     : 0
spin                       : .0
first test random number   : .0073

########################################################################
# WARNING! Please study the warnings concerning your input carefully
#  - XTBPATH is not set, using XTBHOME instead
#  - the use of '-opt' is discouraged, please use '--opt' next time
#  - the use of '-chrg' is discouraged, please use '--chrg' next time
#  - the use of '-uhf' is discouraged, please use '--uhf' next time
########################################################################

           ------------------------------------------------- 
          |                 G F N 2 - x T B                 |
          | Geometry, Frequencies, Noncovalent interactions |
          |            JCTC 2018 parametrisation            |
           ------------------------------------------------- 
      method parameters     
 k(s)        :  1.8500
 k(p)        :  2.2300
 k(d)        :  2.2300
 k(f)        :  2.0000
 kEN (H0ij)  : -2.0000
 D4 a1       :  0.5200
 D4 a2       :  5.0000
 D4 s6       :  1.0000
 D4 s8       :  2.7000
 D4 s9       :  5.0000
 alphaj      :  2.0000


            Z     q(EN)     CN     RAES       Cart. coordinates
     1  S   6.0    0.64    4.35    4.33    -1.16369     0.77967    -1.99682
     2  O   6.0   -0.33    1.23    1.80    -0.34795    -1.38467    -0.39111
     3  O   6.0   -0.29    1.16    1.80    -2.71642     2.55579    -0.45977
     4  O   6.0   -0.29    1.18    1.80     1.10518     2.12627    -2.98020
     5  O   6.0   -0.24    2.09    1.84    -2.67459    -0.16560    -4.12665
     6  H   1.0    0.16    1.25    1.48    -4.13668    -1.03338    -3.49392
     7  O   6.0   -0.27    1.99    1.83    -5.30468    -3.64895    -1.37618
     8  H   1.0    0.15    0.97    1.43    -6.58944    -4.48308    -0.39219
     9  H   1.0    0.16    0.99    1.43    -3.79266    -3.73501    -0.36573
    10  O   6.0   -0.26    1.95    1.82     2.25762    -3.69171     2.90796
    11  H   1.0    0.17    1.03    1.43     0.88021    -3.67316     1.71758
    12  H   1.0    0.15    0.97    1.43     3.76771    -3.78722     1.89548
    13  O   6.0   -0.28    2.03    1.83     4.72518     3.76200     0.15052
    14  H   1.0    0.15    0.97    1.43     6.44112     3.67656    -0.45183
    15  H   1.0    0.18    1.03    1.43     3.68474     3.52575    -1.32470
    16  O   6.0   -0.21    2.92    2.59     0.96601     2.38640     3.06680
    17  H   1.0    0.14    1.03    1.43    -0.59978     3.10514     2.34461
    18  H   1.0    0.14    0.99    1.43     1.00106     0.52239     2.94735
    19  H   1.0    0.14    1.04    1.43     2.49704     3.16281     2.32880

  Z AO/shell   Hii/eV     exponent
  1     Wed Apr 25 08:07:45 CEST 2018   EN: 2.200 GM2: 0.406  GM3: 0.0800  RAES: 1.40
     1s    -10.707211    1.230000
  8     Wed Apr 25 08:07:45 CEST 2018   EN: 3.440 GM2: 0.452  GM3:-0.0517  RAES: 1.80
     2s    -20.229985    2.439742
     2p    -15.503117    2.137023
 16     Tue Apr 24 11:44:34 CEST 2018   EN: 2.580 GM2: 0.340  GM3:-0.0502  RAES: 3.10
     3s    -20.029654    1.981333
     3p    -11.377694    2.025643
     3d     -0.420282    1.702555
 no old-style atom pair restraining (fixing) potential

molecular fragmentation (1/2 indicates fragments):
1111112222222222222
# atoms in fragment 1/2:     6    13
 fragment masses (1/2) :       97.07       73.07
CMA distance (Bohr)    :   3.825
constraining FC (au)   :  0.0500
           ------------------------------------------------- 
          |        Self-Consistent Charge Iterations        |
           ------------------------------------------------- 

 Ncao       : 52
 Nao        : 51
 Nshell     : 29
 Nel        : 64
 T(el)      :   300.0
 intcut     :    25.0
 scfconv/Eh :  0.100E-05
   qconv/e  :  0.100E-03
 intneglect :  0.100E-07
 broydamp   :      0.250
 iter      E             dE          RMSdq      gap      omega  full diag
   1    -41.0033007 -0.410033E+02  0.770E+00   10.52       0.0  T
   2    -41.0419983 -0.386976E-01  0.555E+00   10.03       1.0  T
   3    -41.0729428 -0.309444E-01  0.140E+00    8.56       1.0  T
   4    -41.0771241 -0.418135E-02  0.621E-01    8.53       1.0  T
   5    -41.0778415 -0.717392E-03  0.319E-01    8.45       1.0  T
   6    -41.0781625 -0.321009E-03  0.150E-01    8.46       1.0  T
   7    -41.0782535 -0.909859E-04  0.547E-02    8.52       1.0  T
   8    -41.0782642 -0.107180E-04  0.314E-02    8.51       1.0  T
   9    -41.0782687 -0.451436E-05  0.118E-02    8.51       2.0  T
  10    -41.0782693 -0.601845E-06  0.257E-03    8.51       8.9  T
  11    -41.0782694 -0.205272E-07  0.102E-03    8.51      22.4  T
  12    -41.0782694 -0.354059E-08  0.494E-04    8.51      46.4  T
  13    -41.0782694 -0.898197E-09  0.115E-04    8.51     200.1  T
speedup  1.03
cpu  time for SCC    0.01 s
wall time for SCC    0.01 s

   *** convergence criteria satisfied after 13 iterations ***

          eigenvalues
 #    :          20         21         22         23         24         25         26         27
 occ. :        2.000      2.000      2.000      2.000      2.000      2.000      2.000      2.000
 eps  :       -14.210    -13.621    -12.847    -12.583    -12.535    -12.489    -11.974    -11.623
 #    :          28         29         30         31         32         33         34         35
 occ. :        2.000      2.000      2.000      2.000      2.000      0.000      0.000      0.000
 eps  :       -11.498    -11.452    -10.992    -10.934    -10.666     -2.160     -1.060      0.192
 #    :          36         37         38         39         40         41         42         43
 occ. :        0.000      0.000      0.000      0.000      0.000      0.000      0.000      0.000
 eps  :         1.285      1.652      1.819      2.283      3.352      5.284      5.484      6.541


   #   Z            q   n(s)   n(p)   n(d)      C6AA      α(0)
   1  16 S      1.571  1.591  1.854  0.984    91.747    16.121
   2   8 O     -0.790  1.772  5.019  0.000    31.291     7.500
   3   8 O     -0.772  1.781  4.991  0.000    30.754     7.435
   4   8 O     -0.741  1.772  4.969  0.000    29.851     7.325
   5   8 O     -0.547  1.716  4.831  0.000    23.920     6.603
   6   1 H      0.384  0.616  0.000  0.000     0.507     1.114
   7   8 O     -0.593  1.740  4.853  0.000    25.017     6.751
   8   1 H      0.294  0.706  0.000  0.000     0.740     1.351
   9   1 H      0.307  0.693  0.000  0.000     0.699     1.314
  10   8 O     -0.605  1.739  4.866  0.000    25.308     6.790
  11   1 H      0.313  0.687  0.000  0.000     0.683     1.298
  12   1 H      0.281  0.719  0.000  0.000     0.781     1.388
  13   8 O     -0.619  1.725  4.894  0.000    25.650     6.836
  14   1 H      0.299  0.701  0.000  0.000     0.725     1.337
  15   1 H      0.338  0.662  0.000  0.000     0.616     1.233
  16   8 O     -0.387  1.626  4.761  0.000    20.549     6.122
  17   1 H      0.416  0.584  0.000  0.000     0.456     1.061
  18   1 H      0.423  0.577  0.000  0.000     0.446     1.049
  19   1 H      0.428  0.572  0.000  0.000     0.436     1.038

 Mol. C6AA /au·bohr⁶  :       3383.728266
 Mol. C8AA /au·bohr⁸  :      76831.738423
 Mol. α(0) /au        :         83.664627

 
 Wiberg/Mayer (AO) data. WBOs > 0.1 written file <wbo>
 largest (>0.05) Wiberg bond orders for each atom
           total WBO             WBO to atom ...
     1  S   4.934    O    4 1.333    O    3 1.282    O    2 1.256    O    5 1.028
     2  O   1.641    S    1 1.256    O    3 0.111    O    4 0.110    O    5 0.074
     3  O   1.664    S    1 1.282    O    4 0.114    O    2 0.111    O    5 0.075    H   17 0.055
     4  O   1.692    S    1 1.333    O    3 0.114    O    2 0.110    O    5 0.058
     5  O   2.054    S    1 1.028    H    6 0.800    O    3 0.075    O    2 0.074    O    4 0.058
     6  H   0.852    O    5 0.800
     7  O   1.844    H    8 0.907    H    9 0.892
     8  H   0.913    O    7 0.907
     9  H   0.906    O    7 0.892
    10  O   1.830    H   12 0.920    H   11 0.866
    11  H   0.902    O   10 0.866
    12  H   0.921    O   10 0.920
    13  O   1.857    H   14 0.898    H   15 0.838    H   19 0.073
    14  H   0.911    O   13 0.898
    15  H   0.885    O   13 0.838
    16  O   2.358    H   18 0.785    H   17 0.766    H   19 0.738
    17  H   0.827    O   16 0.766    O    3 0.055
    18  H   0.821    O   16 0.785
    19  H   0.817    O   16 0.738    O   13 0.073
 MOs/occ written to file <molden.input>
 
molecular dipole:
                 x           y           z       tot (Debye)
 q only:        0.724       0.086       1.903
   full:        0.472      -0.329       1.145       3.256
molecular quadrupole (traceless):
                xx          xy          yy          xz          yz          zz
 q only:        8.142      10.780      -1.371      -1.584       8.662      -6.771
  q+dip:       11.914      11.884      -1.689      -4.454       7.077     -10.224
   full:       12.571      12.191      -2.415      -4.208       7.067     -10.156

SCC energy    :     -41.0782694
rep           :       0.2163387
ES            :       0.2490179
AES           :      -0.0519912
AXC           :      -0.0111542
disp          :      -0.0125535
XB            :       0.0000000
fix           :       0.0000000
total E       :     -40.8618396
atomizationE  :       3.6560268     2294.19
(atE without considering molecular charge,
 total energy contains solvation terms)
H-L gap (eV)  :          8.5059
           ------------------------------------------------- 
          |                 ===============                 |
          |                   A N C O P T                   |
          |                 ===============                 |
          |          Approximate Normal Coordinate          |
          |           Rational Function Optimizer           |
           ------------------------------------------------- 
dumping coords to <xtbopt.coord> and <xtbopt.log>
 optlevel               2
 Maxcycle             380
 Maxmicro              25
 Econv         1.000000000000000E-007
 Gconv         2.000000000000000E-004
 Maxdispl       1.00000000000000     
 Hlow          5.000000000000000E-003
 S6             20.0000000000000     
 Nvar               51

generating ANC from model Hessian ...
 Shifting diagonal of input Hessian by   5.122385060970278E-003
 Lowest  eigenvalues of input Hessian
    0.005000   -0.000000   -0.000000   -0.000000    0.000000    0.000000
    0.000000    0.005213    0.005268    0.005494    0.005762    0.006008
    0.006404    0.007112    0.007327    0.007658    0.008362    0.009582
 Highest eigenvalues
    1.458477    1.542971    1.552867    3.136661    3.208834    3.310898
 
cpu  time for ANC gen    0.01 s
wall time for ANC gen    0.01 s
................................................................................
.............................. CYCLE    1 ......................................
................................................................................
   1    -41.0782694 -0.410783E+02  0.857E-05    8.51       0.0  T
   2    -41.0782694 -0.986233E-11  0.668E-05    8.51     343.2  T
   3    -41.0782694 -0.128892E-10  0.276E-05    8.51     832.4  T
speedup  1.00
cpu  time for SCC    0.00 s
wall time for SCC    0.00 s
speedup  0.95
cpu  time for grad    0.01 s
wall time for grad    0.01 s
 E :    -40.86183959  G :  0.131600    pred/act E change:  0.000D+00  0.360D-07
Maxdispl :   0.2161   ||displ|| :   0.5521   Lambda : -0.216D-01
Largest |displ|/coords:  0.2161 (   7)  0.2039 (  18)  0.1776 (  21)
................................................................................
.............................. CYCLE    2 ......................................
................................................................................
   1    -41.0892020 -0.410892E+02  0.468E-01    8.85       0.0  T
   2    -41.0893213 -0.119288E-03  0.351E-01    8.90       1.0  T
   3    -41.0893753 -0.539405E-04  0.962E-02    9.01       1.0  T
   4    -41.0893898 -0.145624E-04  0.274E-02    9.00       1.0  T
   5    -41.0893908 -0.999801E-06  0.781E-03    8.99       2.9  T
   6    -41.0893909 -0.109392E-06  0.483E-03    8.99       4.7  T
   7    -41.0893910 -0.821420E-07  0.226E-03    8.99      10.2  T
speedup  1.11
cpu  time for SCC    0.00 s
wall time for SCC    0.00 s
speedup  0.94
cpu  time for grad    0.01 s
wall time for grad    0.01 s
 E :    -40.88061116  G :  0.085040    pred/act E change:  0.000D+00 -0.188D-01
Maxdispl :   0.2985   ||displ|| :   0.5608   Lambda : -0.156D-01
Largest |displ|/coords:  0.2985 (  20)  0.1890 (   7)  0.1532 (  23)
................................................................................
.............................. CYCLE    3 ......................................
................................................................................
   1    -41.0952051 -0.410952E+02  0.467E-01    9.12       0.0  T
   2    -41.0955352 -0.330161E-03  0.345E-01    9.16       1.0  T
   3    -41.0956756 -0.140392E-03  0.128E-01    9.22       1.0  T
   4    -41.0956958 -0.201495E-04  0.385E-02    9.21       1.0  T
   5    -41.0956976 -0.181736E-05  0.111E-02    9.21       2.1  T
   6    -41.0956978 -0.222946E-06  0.613E-03    9.21       3.7  T
   7    -41.0956980 -0.125045E-06  0.283E-03    9.21       8.1  T
   8    -41.0956980 -0.381768E-07  0.974E-04    9.21      23.6  T
speedup  1.00
cpu  time for SCC    0.00 s
wall time for SCC    0.00 s
speedup  0.99
cpu  time for grad    0.01 s
wall time for grad    0.01 s
 E :    -40.89307888  G :  0.053806    pred/act E change: -0.141D-01 -0.125D-01
Maxdispl :   0.2362   ||displ|| :   0.5529   Lambda : -0.800D-02
Largest |displ|/coords:  0.2362 (  12)  0.1811 (  10)  0.1677 (   3)
................................................................................
.............................. CYCLE    4 ......................................
................................................................................
   1    -41.0947016 -0.410947E+02  0.437E-01    9.14       0.0  T
   2    -41.0950015 -0.299888E-03  0.326E-01    9.17       1.0  T
   3    -41.0951213 -0.119809E-03  0.122E-01    9.20       1.0  T
   4    -41.0951416 -0.202174E-04  0.348E-02    9.20       1.0  T
   5    -41.0951432 -0.164072E-05  0.936E-03    9.20       2.5  T
   6    -41.0951433 -0.103989E-06  0.483E-03    9.19       4.7  T
   7    -41.0951434 -0.543170E-07  0.192E-03    9.19      11.9  T
speedup  1.14
cpu  time for SCC    0.00 s
wall time for SCC    0.00 s
speedup  0.93
cpu  time for grad    0.01 s
wall time for grad    0.01 s
 E :    -40.89927470  G :  0.044564    pred/act E change: -0.102D-01 -0.620D-02
Maxdispl :   0.3903   ||displ|| :   0.7185   Lambda : -0.794D-02
Largest |displ|/coords:  0.3903 (   8)  0.3143 (   4)  0.2960 (  12)
................................................................................
.............................. CYCLE    5 ......................................
................................................................................
   1    -41.0973081 -0.410973E+02  0.413E-01    8.98       0.0  T
   2    -41.0975243 -0.216184E-03  0.310E-01    9.01       1.0  T
   3    -41.0976112 -0.868900E-04  0.107E-01    9.06       1.0  T
   4    -41.0976303 -0.190332E-04  0.276E-02    9.05       1.0  T
   5    -41.0976316 -0.135263E-05  0.765E-03    9.05       3.0  T
   6    -41.0976317 -0.505026E-07  0.401E-03    9.05       5.7  T
   7    -41.0976317 -0.233173E-07  0.129E-03    9.05      17.8  T
speedup  0.91
cpu  time for SCC    0.00 s
wall time for SCC    0.00 s
speedup  0.94
cpu  time for grad    0.01 s
wall time for grad    0.01 s
 E :    -40.90532237  G :  0.035401    pred/act E change: -0.522D-02 -0.605D-02
Maxdispl :   0.3941   ||displ|| :   0.6836   Lambda : -0.616D-02
Largest |displ|/coords:  0.3941 (   8)  0.3365 (   4)  0.1868 (  10)
................................................................................
.............................. CYCLE    6 ......................................
................................................................................
   1    -41.0957142 -0.410957E+02  0.526E-01    8.86       0.0  T
   2    -41.0960132 -0.299027E-03  0.392E-01    8.88       1.0  T
   3    -41.0961288 -0.115612E-03  0.117E-01    8.93       1.0  T
   4    -41.0961624 -0.335939E-04  0.262E-02    8.92       1.0  T
   5    -41.0961639 -0.145086E-05  0.845E-03    8.92       2.7  T
   6    -41.0961639 -0.496135E-07  0.446E-03    8.92       5.1  T
   7    -41.0961639 -0.260796E-07  0.121E-03    8.92      19.0  T
speedup  1.14
cpu  time for SCC    0.00 s
wall time for SCC    0.00 s
speedup  1.04
cpu  time for grad    0.01 s
wall time for grad    0.01 s
 E :    -40.90882397  G :  0.055511    pred/act E change: -0.602D-02 -0.350D-02
Maxdispl :   0.2136   ||displ|| :   0.4669   Lambda : -0.809D-02
Largest |displ|/coords:  0.2136 (   4)  0.1985 (  10)  0.1937 (   8)
................................................................................
.............................. CYCLE    7 ......................................
................................................................................
   1    -41.1131792 -0.411132E+02  0.659E-01    9.10       0.0  T
   2    -41.1133404 -0.161177E-03  0.499E-01    9.10       1.0  T
   3    -41.1134526 -0.112202E-03  0.849E-02    9.10       1.0  T
   4    -41.1134757 -0.230927E-04  0.206E-02    9.11       1.1  T
   5    -41.1134763 -0.654570E-06  0.956E-03    9.11       2.4  T
   6    -41.1134764 -0.262180E-07  0.456E-03    9.10       5.0  T
   7    -41.1134764 -0.277825E-07  0.801E-04    9.10      28.6  T
speedup  0.91
cpu  time for SCC    0.00 s
wall time for SCC    0.00 s
speedup  1.03
cpu  time for grad    0.01 s
wall time for grad    0.01 s
 E :    -40.90914851  G :  0.064517    pred/act E change: -0.452D-02 -0.325D-03
Maxdispl :   0.3007   ||displ|| :   0.4259   Lambda : -0.685D-02
Largest |displ|/coords:  0.3007 (   4)  0.1301 (  15)  0.1090 (   2)
................................................................................
.............................. CYCLE    8 ......................................
................................................................................
   1    -41.1002861 -0.411003E+02  0.413E-01    8.99       0.0  T
   2    -41.1004173 -0.131174E-03  0.308E-01    8.99       1.0  T
   3    -41.1004799 -0.625463E-04  0.755E-02    9.00       1.0  T
   4    -41.1004961 -0.162772E-04  0.143E-02    9.00       1.6  T
   5    -41.1004964 -0.246168E-06  0.581E-03    9.00       4.0  T
   6    -41.1004964 -0.222945E-07  0.310E-03    9.00       7.4  T
speedup  1.05
cpu  time for SCC    0.00 s
wall time for SCC    0.00 s
speedup  0.99
cpu  time for grad    0.01 s
wall time for grad    0.01 s
 E :    -40.91173261  G :  0.046188    pred/act E change: -0.493D-02 -0.258D-02
Maxdispl :   0.2411   ||displ|| :   0.4368   Lambda : -0.463D-02
Largest |displ|/coords:  0.2411 (   8)  0.1932 (   7)  0.1683 (   6)
................................................................................
.............................. CYCLE    9 ......................................
................................................................................
   1    -41.1071440 -0.411071E+02  0.418E-01    8.96       0.0  T
   2    -41.1071992 -0.552117E-04  0.316E-01    8.96       1.0  T
   3    -41.1072387 -0.395425E-04  0.491E-02    8.97       1.0  T
   4    -41.1072475 -0.872784E-05  0.152E-02    8.97       1.5  T
   5    -41.1072478 -0.312354E-06  0.640E-03    8.97       3.6  T
   6    -41.1072478 -0.205019E-07  0.307E-03    8.97       7.5  T
   7    -41.1072478 -0.174035E-07  0.660E-04    8.97      34.7  T
speedup  0.68
cpu  time for SCC    0.00 s
wall time for SCC    0.00 s
speedup  0.94
cpu  time for grad    0.01 s
wall time for grad    0.01 s
 E :    -40.91274064  G :  0.039648    pred/act E change: -0.405D-02 -0.101D-02
Maxdispl :   0.1592   ||displ|| :   0.3348   Lambda : -0.393D-02
Largest |displ|/coords:  0.1592 (   7)  0.1581 (   5)  0.1080 (   8)
................................................................................
.............................. CYCLE   10 ......................................
................................................................................
   1    -41.1122250 -0.411122E+02  0.318E-01    9.18       0.0  T
   2    -41.1123149 -0.899087E-04  0.235E-01    9.17       1.0  T
   3    -41.1123548 -0.398534E-04  0.717E-02    9.16       1.0  T
   4    -41.1123623 -0.753168E-05  0.165E-02    9.17       1.4  T
   5    -41.1123632 -0.879667E-06  0.465E-03    9.17       4.9  T
   6    -41.1123632 -0.124198E-07  0.277E-03    9.17       8.3  T
speedup  1.05
cpu  time for SCC    0.00 s
wall time for SCC    0.00 s
speedup  1.00
cpu  time for grad    0.01 s
wall time for grad    0.01 s
 E :    -40.91379118  G :  0.036788    pred/act E change: -0.275D-02 -0.105D-02
Maxdispl :   0.1553   ||displ|| :   0.2720   Lambda : -0.239D-02
Largest |displ|/coords:  0.1553 (   4)  0.1151 (   5)  0.1004 (  15)
................................................................................
.............................. CYCLE   11 ......................................
................................................................................
   1    -41.1205516 -0.411206E+02  0.283E-01    9.25       0.0  T
   2    -41.1205832 -0.316118E-04  0.214E-01    9.25       1.0  T
   3    -41.1206060 -0.227903E-04  0.385E-02    9.26       1.0  T
   4    -41.1206101 -0.404716E-05  0.113E-02    9.26       2.0  T
   5    -41.1206103 -0.248127E-06  0.409E-03    9.26       5.6  T
   6    -41.1206103 -0.766421E-08  0.234E-03    9.25       9.8  T
speedup  1.05
cpu  time for SCC    0.00 s
wall time for SCC    0.00 s
speedup  1.00
cpu  time for grad    0.01 s
wall time for grad    0.01 s
 E :    -40.91452192  G :  0.032172    pred/act E change: -0.218D-02 -0.731D-03
Maxdispl :   0.2316   ||displ|| :   0.4298   Lambda : -0.325D-02
Largest |displ|/coords:  0.2316 (   4)  0.2267 (   5)  0.1318 (   9)
................................................................................
.............................. CYCLE   12 ......................................
................................................................................
   1    -41.1096624 -0.411097E+02  0.383E-01    9.15       0.0  T
   2    -41.1097474 -0.850516E-04  0.283E-01    9.15       1.0  T
   3    -41.1097863 -0.388493E-04  0.595E-02    9.16       1.0  T
   4    -41.1097981 -0.118068E-04  0.110E-02    9.15       2.1  T
   5    -41.1097982 -0.106228E-06  0.559E-03    9.15       4.1  T
   6    -41.1097982 -0.261080E-07  0.199E-03    9.15      11.5  T
speedup  1.05
cpu  time for SCC    0.00 s
wall time for SCC    0.00 s
speedup  1.00
cpu  time for grad    0.01 s
wall time for grad    0.01 s
 E :    -40.91540614  G :  0.031579    pred/act E change: -0.129D-02 -0.884D-03
Maxdispl :   0.1653   ||displ|| :   0.2878   Lambda : -0.222D-02
Largest |displ|/coords:  0.1653 (   4)  0.1044 (   2)  0.1039 (   7)
................................................................................
.............................. CYCLE   13 ......................................
................................................................................
   1    -41.1125016 -0.411125E+02  0.187E-01    9.24       0.0  T
   2    -41.1125319 -0.303173E-04  0.138E-01    9.24       1.0  T
   3    -41.1125483 -0.163688E-04  0.385E-02    9.24       1.0  T
   4    -41.1125511 -0.280161E-05  0.112E-02    9.24       2.0  T
   5    -41.1125514 -0.260048E-06  0.386E-03    9.24       5.9  T
   6    -41.1125514 -0.118518E-07  0.206E-03    9.24      11.1  T
speedup  1.03
cpu  time for SCC    0.00 s
wall time for SCC    0.00 s
speedup  0.99
cpu  time for grad    0.01 s
wall time for grad    0.01 s
 E :    -40.91646426  G :  0.023509    pred/act E change: -0.192D-02 -0.106D-02
Maxdispl :   0.2407   ||displ|| :   0.3868   Lambda : -0.231D-02
Largest |displ|/coords:  0.2407 (   8)  0.1552 (   5)  0.0914 (  18)
................................................................................
.............................. CYCLE   14 ......................................
................................................................................
   1    -41.1232776 -0.411233E+02  0.393E-01    9.50       0.0  T
   2    -41.1233929 -0.115360E-03  0.294E-01    9.50       1.0  T
   3    -41.1234505 -0.575180E-04  0.777E-02    9.39       1.0  T
   4    -41.1234636 -0.131557E-04  0.217E-02    9.41       1.1  T
   5    -41.1234649 -0.128440E-05  0.639E-03    9.43       3.6  T
   6    -41.1234649 -0.234860E-07  0.390E-03    9.43       5.9  T
   7    -41.1234649 -0.168275E-07  0.843E-04    9.43      27.2  T
speedup  0.93
cpu  time for SCC    0.00 s
wall time for SCC    0.00 s
speedup  1.04
cpu  time for grad    0.01 s
wall time for grad    0.01 s
 E :    -40.91630860  G :  0.037993    pred/act E change: -0.120D-02  0.156D-03
Maxdispl :   0.1160   ||displ|| :   0.2402   Lambda : -0.229D-02
Largest |displ|/coords:  0.1160 (   4)  0.0772 (   6)  0.0706 (   9)
................................................................................
.............................. CYCLE   15 ......................................
................................................................................
   1    -41.1249254 -0.411249E+02  0.286E-01    9.25       0.0  T
   2    -41.1249515 -0.260687E-04  0.215E-01    9.25       1.0  T
   3    -41.1249700 -0.184820E-04  0.373E-02    9.25       1.0  T
   4    -41.1249735 -0.351026E-05  0.126E-02    9.25       1.8  T
   5    -41.1249737 -0.212841E-06  0.375E-03    9.24       6.1  T
   6    -41.1249737 -0.952468E-08  0.218E-03    9.25      10.5  T
speedup  1.08
cpu  time for SCC    0.00 s
wall time for SCC    0.00 s
speedup  0.97
cpu  time for grad    0.01 s
wall time for grad    0.01 s
 E :    -40.91745646  G :  0.028466    pred/act E change: -0.133D-02 -0.115D-02
Maxdispl :   0.1306   ||displ|| :   0.3418   Lambda : -0.251D-02
Largest |displ|/coords:  0.1306 (  12)  0.1170 (   9)  0.0988 (  15)
................................................................................
.............................. CYCLE   16 ......................................
................................................................................
   1    -41.1168022 -0.411168E+02  0.519E-01    9.16       0.0  T
   2    -41.1168987 -0.965632E-04  0.389E-01    9.22       1.0  T
   3    -41.1169701 -0.713791E-04  0.738E-02    9.34       1.0  T
   4    -41.1169819 -0.117654E-04  0.139E-02    9.28       1.7  T
   5    -41.1169820 -0.131777E-06  0.701E-03    9.28       3.3  T
   6    -41.1169821 -0.697844E-07  0.274E-03    9.29       8.4  T
   7    -41.1169821 -0.143967E-07  0.112E-03    9.29      20.5  T
speedup  1.14
cpu  time for SCC    0.00 s
wall time for SCC    0.00 s
speedup  1.03
cpu  time for grad    0.01 s
wall time for grad    0.01 s
 E :    -40.91577928  G :  0.055879    pred/act E change: -0.121D-02  0.168D-02
Maxdispl :   0.1703   ||displ|| :   0.4397   Lambda : -0.102D-01
Largest |displ|/coords:  0.1703 (  11)  0.1490 (  12)  0.1461 (  18)
................................................................................
.............................. CYCLE   17 ......................................
................................................................................
   1    -41.1223194 -0.411223E+02  0.784E-01    9.36       0.0  T
   2    -41.1225868 -0.267419E-03  0.591E-01    9.29       1.0  T
   3    -41.1227907 -0.203858E-03  0.113E-01    9.08       1.0  T
   4    -41.1228248 -0.341554E-04  0.241E-02    9.17       1.0  T
   5    -41.1228254 -0.547598E-06  0.127E-02    9.17       1.8  T
   6    -41.1228255 -0.107202E-06  0.511E-03    9.17       4.5  T
   7    -41.1228255 -0.504234E-07  0.158E-03    9.17      14.5  T
speedup  0.93
cpu  time for SCC    0.00 s
wall time for SCC    0.00 s
speedup  0.95
cpu  time for grad    0.01 s
wall time for grad    0.01 s
 E :    -40.91553540  G :  0.062172    pred/act E change: -0.140D-02  0.244D-03
Maxdispl :   0.1552   ||displ|| :   0.3741   Lambda : -0.887D-02
Largest |displ|/coords:  0.1552 (  11)  0.1480 (  13)  0.1202 (  14)
................................................................................
.............................. CYCLE   18 ......................................
................................................................................
   1    -41.1313087 -0.411313E+02  0.638E-01    9.18       0.0  T
   2    -41.1314748 -0.166162E-03  0.482E-01    9.24       1.0  T
   3    -41.1316087 -0.133894E-03  0.875E-02    9.36       1.0  T
   4    -41.1316288 -0.201166E-04  0.218E-02    9.32       1.1  T
   5    -41.1316293 -0.446298E-06  0.976E-03    9.32       2.4  T
   6    -41.1316294 -0.921580E-07  0.443E-03    9.32       5.2  T
   7    -41.1316294 -0.275700E-07  0.136E-03    9.32      16.9  T
speedup  0.93
cpu  time for SCC    0.00 s
wall time for SCC    0.00 s
speedup  1.05
cpu  time for grad    0.01 s
wall time for grad    0.01 s
 E :    -40.91684429  G :  0.045392    pred/act E change: -0.611D-02 -0.131D-02
Maxdispl :   0.0821   ||displ|| :   0.2011   Lambda : -0.253D-02
Largest |displ|/coords:  0.0821 (   9)  0.0704 (   8)  0.0682 (  14)
................................................................................
.............................. CYCLE   19 ......................................
................................................................................
   1    -41.1211633 -0.411212E+02  0.240E-01    9.17       0.0  T
   2    -41.1212071 -0.438118E-04  0.181E-01    9.16       1.0  T
   3    -41.1212311 -0.240158E-04  0.440E-02    9.12       1.0  T
   4    -41.1212370 -0.586380E-05  0.145E-02    9.11       1.6  T
   5    -41.1212373 -0.367333E-06  0.429E-03    9.11       5.3  T
   6    -41.1212373 -0.175115E-07  0.238E-03    9.12       9.7  T
speedup  1.00
cpu  time for SCC    0.00 s
wall time for SCC    0.00 s
speedup  0.97
cpu  time for grad    0.01 s
wall time for grad    0.01 s
 E :    -40.91792561  G :  0.020160    pred/act E change: -0.505D-02 -0.108D-02
Maxdispl :   0.1546   ||displ|| :   0.2558   Lambda : -0.158D-02
Largest |displ|/coords:  0.1546 (   5)  0.0996 (   9)  0.0724 (  12)
................................................................................
.............................. CYCLE   20 ......................................
................................................................................
   1    -41.1221076 -0.411221E+02  0.290E-01    9.22       0.0  T
   2    -41.1221431 -0.355418E-04  0.217E-01    9.20       1.0  T
   3    -41.1221644 -0.212532E-04  0.416E-02    9.16       1.0  T
   4    -41.1221692 -0.479653E-05  0.131E-02    9.17       1.8  T
   5    -41.1221695 -0.333719E-06  0.434E-03    9.18       5.3  T
   6    -41.1221695 -0.910002E-08  0.248E-03    9.18       9.2  T
speedup  0.78
cpu  time for SCC    0.00 s
wall time for SCC    0.01 s
speedup  0.87
cpu  time for grad    0.01 s
wall time for grad    0.01 s
 E :    -40.91781672  G :  0.029213    pred/act E change: -0.131D-02  0.109D-03
Maxdispl :   0.0791   ||displ|| :   0.1602   Lambda : -0.133D-02
Largest |displ|/coords:  0.0791 (   5)  0.0683 (   3)  0.0674 (   8)
................................................................................
.............................. CYCLE   21 ......................................
................................................................................
   1    -41.1274886 -0.411275E+02  0.158E-01    9.16       0.0  T
   2    -41.1275006 -0.120147E-04  0.119E-01    9.16       1.0  T
   3    -41.1275083 -0.765614E-05  0.231E-02    9.16       1.0  T
   4    -41.1275099 -0.166047E-05  0.768E-03    9.15       3.0  T
   5    -41.1275100 -0.899628E-07  0.260E-03    9.15       8.8  T
   6    -41.1275100 -0.372851E-08  0.143E-03    9.15      16.1  T
speedup  0.79
cpu  time for SCC    0.00 s
wall time for SCC    0.00 s
speedup  0.89
cpu  time for grad    0.01 s
wall time for grad    0.01 s
 E :    -40.91841673  G :  0.007868    pred/act E change: -0.842D-03 -0.600D-03
Maxdispl :   0.0772   ||displ|| :   0.1598   Lambda : -0.428D-03
Largest |displ|/coords:  0.0772 (   5)  0.0722 (  15)  0.0615 (   9)
................................................................................
.............................. CYCLE   22 ......................................
................................................................................
   1    -41.1243558 -0.411244E+02  0.178E-01    9.17       0.0  T
   2    -41.1243639 -0.809601E-05  0.131E-01    9.18       1.0  T
   3    -41.1243691 -0.524358E-05  0.243E-02    9.21       1.0  T
   4    -41.1243700 -0.841839E-06  0.621E-03    9.20       3.7  T
   5    -41.1243700 -0.442602E-07  0.208E-03    9.19      11.0  T
   6    -41.1243700 -0.397161E-08  0.107E-03    9.20      21.5  T
speedup  0.79
cpu  time for SCC    0.00 s
wall time for SCC    0.00 s
speedup  0.96
cpu  time for grad    0.01 s
wall time for grad    0.01 s
 E :    -40.91837969  G :  0.015015    pred/act E change: -0.681D-03  0.370D-04
Maxdispl :   0.0432   ||displ|| :   0.0994   Lambda : -0.476D-03
Largest |displ|/coords:  0.0432 (   5)  0.0358 (  20)  0.0322 (   3)
................................................................................
.............................. CYCLE   23 ......................................
................................................................................
   1    -41.1249922 -0.411250E+02  0.104E-01    9.11       0.0  T
   2    -41.1250029 -0.106698E-04  0.765E-02    9.09       1.0  T
   3    -41.1250089 -0.607233E-05  0.224E-02    9.06       1.0  T
   4    -41.1250100 -0.106201E-05  0.574E-03    9.07       4.0  T
   5    -41.1250100 -0.501160E-07  0.245E-03    9.07       9.4  T
   6    -41.1250100 -0.471432E-08  0.119E-03    9.07      19.3  T
speedup  1.08
cpu  time for SCC    0.00 s
wall time for SCC    0.00 s
speedup  0.89
cpu  time for grad    0.01 s
wall time for grad    0.01 s
 E :    -40.91861197  G :  0.009044    pred/act E change: -0.219D-03 -0.232D-03
Maxdispl :   0.0422   ||displ|| :   0.0948   Lambda : -0.291D-03
Largest |displ|/coords:  0.0422 (   5)  0.0394 (  11)  0.0327 (   3)
................................................................................
.............................. CYCLE   24 ......................................
................................................................................
   1    -41.1297497 -0.411297E+02  0.122E-01    9.17       0.0  T
   2    -41.1297544 -0.468920E-05  0.919E-02    9.16       1.0  T
   3    -41.1297582 -0.379280E-05  0.169E-02    9.14       1.4  T
   4    -41.1297588 -0.550614E-06  0.503E-03    9.15       4.6  T
   5    -41.1297588 -0.391927E-07  0.164E-03    9.15      14.0  T
   6    -41.1297588 -0.127901E-08  0.858E-04    9.15      26.7  T
speedup  1.05
cpu  time for SCC    0.00 s
wall time for SCC    0.00 s
speedup  0.98
cpu  time for grad    0.01 s
wall time for grad    0.01 s
 E :    -40.91861805  G :  0.013453    pred/act E change: -0.240D-03 -0.608D-05
Maxdispl :   0.0584   ||displ|| :   0.0969   Lambda : -0.248D-03
Largest |displ|/coords:  0.0584 (   5)  0.0356 (  16)  0.0322 (   6)
................................................................................
.............................. CYCLE   25 ......................................
................................................................................
   1    -41.1284710 -0.411285E+02  0.862E-02    9.10       0.0  T
   2    -41.1284718 -0.839991E-06  0.641E-02    9.10       1.0  T
   3    -41.1284725 -0.701007E-06  0.877E-03    9.10       2.6  T
   4    -41.1284726 -0.906248E-07  0.275E-03    9.10       8.3  T
   5    -41.1284726 -0.720517E-08  0.830E-04    9.10      27.6  T
speedup  1.29
cpu  time for SCC    0.00 s
wall time for SCC    0.00 s
speedup  1.08
cpu  time for grad    0.01 s
wall time for grad    0.01 s
 E :    -40.91879291  G :  0.007067    pred/act E change: -0.147D-03 -0.175D-03
Maxdispl :   0.0738   ||displ|| :   0.1611   Lambda : -0.195D-03
Largest |displ|/coords:  0.0738 (   3)  0.0719 (   5)  0.0543 (  11)

generating ANC from model Hessian ...
 Shifting diagonal of input Hessian by   4.641926879365561E-003
 Lowest  eigenvalues of input Hessian
   -0.000000   -0.000000   -0.000000    0.000000    0.000000    0.000000
    0.005000    0.005012    0.005250    0.006084    0.006971    0.007616
    0.010105    0.011447    0.013182    0.015411    0.016873    0.018473
 Highest eigenvalues
    1.406989    1.417380    1.434019    2.739686    3.302668    3.731350
 
cpu  time for ANC gen    0.01 s
wall time for ANC gen    0.01 s
................................................................................
.............................. CYCLE   26 ......................................
................................................................................
   1    -41.1272917 -0.411273E+02  0.127E-01    9.03       0.0  T
   2    -41.1272941 -0.233171E-05  0.945E-02    9.03       1.0  T
   3    -41.1272956 -0.157275E-05  0.132E-02    9.03       1.7  T
   4    -41.1272959 -0.306324E-06  0.333E-03    9.03       6.9  T
   5    -41.1272960 -0.108909E-07  0.128E-03    9.03      17.9  T
   6    -41.1272960 -0.161872E-08  0.780E-04    9.03      29.4  T
   7    -41.1272960 -0.569059E-09  0.184E-04    9.03     125.0  T
speedup  0.93
cpu  time for SCC    0.00 s
wall time for SCC    0.00 s
speedup  0.92
cpu  time for grad    0.01 s
wall time for grad    0.01 s
 E :    -40.91893070  G :  0.006743    pred/act E change:  0.000D+00 -0.138D-03
Maxdispl :   0.0779   ||displ|| :   0.1412   Lambda : -0.328D-03
Largest |displ|/coords:  0.0779 (   7)  0.0522 (   1)  0.0458 (  15)
................................................................................
.............................. CYCLE   27 ......................................
................................................................................
   1    -41.1279954 -0.411280E+02  0.177E-01    9.01       0.0  T
   2    -41.1279991 -0.366662E-05  0.135E-01    9.01       1.0  T
   3    -41.1280033 -0.421883E-05  0.110E-02    9.01       2.1  T
   4    -41.1280035 -0.245034E-06  0.385E-03    9.01       6.0  T
   5    -41.1280035 -0.134141E-07  0.138E-03    9.01      16.6  T
   6    -41.1280035 -0.117897E-08  0.723E-04    9.01      31.7  T
speedup  1.05
cpu  time for SCC    0.00 s
wall time for SCC    0.00 s
speedup  1.11
cpu  time for grad    0.01 s
wall time for grad    0.01 s
 E :    -40.91917944  G :  0.004920    pred/act E change:  0.000D+00 -0.249D-03
Maxdispl :   0.1493   ||displ|| :   0.2977   Lambda : -0.441D-03
Largest |displ|/coords:  0.1493 (   7)  0.1227 (   2)  0.1175 (   1)
................................................................................
.............................. CYCLE   28 ......................................
................................................................................
   1    -41.1260878 -0.411261E+02  0.335E-01    9.01       0.0  T
   2    -41.1261041 -0.162955E-04  0.253E-01    9.01       1.0  T
   3    -41.1261194 -0.152852E-04  0.259E-02    9.01       1.0  T
   4    -41.1261212 -0.179365E-05  0.700E-03    9.01       3.3  T
   5    -41.1261212 -0.394482E-07  0.369E-03    9.01       6.2  T
   6    -41.1261212 -0.113487E-07  0.159E-03    9.01      14.4  T
   7    -41.1261213 -0.550499E-08  0.346E-04    9.01      66.2  T
speedup  0.87
cpu  time for SCC    0.00 s
wall time for SCC    0.00 s
speedup  0.92
cpu  time for grad    0.01 s
wall time for grad    0.01 s
 E :    -40.91922787  G :  0.024550    pred/act E change: -0.167D-03 -0.484D-04
Maxdispl :   0.0475   ||displ|| :   0.0981   Lambda : -0.607D-03
Largest |displ|/coords:  0.0475 (   1)  0.0357 (   7)  0.0301 (   3)
................................................................................
.............................. CYCLE   29 ......................................
................................................................................
   1    -41.1290099 -0.411290E+02  0.147E-01    9.03       0.0  T
   2    -41.1290203 -0.103846E-04  0.110E-01    9.03       1.0  T
   3    -41.1290278 -0.747867E-05  0.214E-02    9.03       1.1  T
   4    -41.1290291 -0.130814E-05  0.460E-03    9.03       5.0  T
   5    -41.1290291 -0.217481E-07  0.237E-03    9.03       9.7  T
speedup  1.29
cpu  time for SCC    0.00 s
wall time for SCC    0.00 s
speedup  1.08
cpu  time for grad    0.01 s
wall time for grad    0.01 s
 E :    -40.91947680  G :  0.005114    pred/act E change: -0.240D-03 -0.249D-03
Maxdispl :   0.0618   ||displ|| :   0.1147   Lambda : -0.149D-03
Largest |displ|/coords:  0.0618 (   2)  0.0485 (   7)  0.0427 (   1)
................................................................................
.............................. CYCLE   30 ......................................
................................................................................
   1    -41.1287783 -0.411288E+02  0.102E-01    9.03       0.0  T
   2    -41.1287792 -0.869667E-06  0.765E-02    9.03       1.0  T
   3    -41.1287800 -0.828369E-06  0.645E-03    9.04       3.6  T
   4    -41.1287801 -0.891084E-07  0.209E-03    9.04      11.0  T
   5    -41.1287801 -0.374022E-08  0.858E-04    9.04      26.7  T
speedup  0.94
cpu  time for SCC    0.00 s
wall time for SCC    0.00 s
speedup  0.95
cpu  time for grad    0.01 s
wall time for grad    0.01 s
 E :    -40.91961494  G :  0.004894    pred/act E change: -0.307D-03 -0.138D-03
Maxdispl :   0.2869   ||displ|| :   0.5807   Lambda : -0.698D-03
Largest |displ|/coords:  0.2869 (   2)  0.2580 (   7)  0.2218 (   1)
................................................................................
.............................. CYCLE   31 ......................................
................................................................................
   1    -41.1210871 -0.411211E+02  0.524E-01    9.02       0.0  T
   2    -41.1211326 -0.455423E-04  0.394E-01    9.03       1.0  T
   3    -41.1211649 -0.322839E-04  0.453E-02    9.05       1.0  T
   4    -41.1211715 -0.663488E-05  0.116E-02    9.05       2.0  T
   5    -41.1211717 -0.121527E-06  0.612E-03    9.05       3.7  T
   6    -41.1211717 -0.275045E-07  0.300E-03    9.05       7.6  T
   7    -41.1211717 -0.134519E-07  0.517E-04    9.05      44.4  T
speedup  1.14
cpu  time for SCC    0.00 s
wall time for SCC    0.00 s
speedup  1.04
cpu  time for grad    0.01 s
wall time for grad    0.01 s
 E :    -40.91917030  G :  0.039189    pred/act E change: -0.752D-04  0.445D-03
Maxdispl :   0.1233   ||displ|| :   0.2646   Lambda : -0.232D-02
Largest |displ|/coords:  0.1233 (   7)  0.1114 (  13)  0.1095 (   1)
................................................................................
.............................. CYCLE   32 ......................................
................................................................................
   1    -41.1283441 -0.411283E+02  0.297E-01    9.05       0.0  T
   2    -41.1283841 -0.400301E-04  0.222E-01    9.05       1.0  T
   3    -41.1284103 -0.261989E-04  0.422E-02    9.05       1.0  T
   4    -41.1284155 -0.523015E-05  0.905E-03    9.05       2.5  T
   5    -41.1284156 -0.676775E-07  0.518E-03    9.05       4.4  T
   6    -41.1284156 -0.179494E-07  0.185E-03    9.05      12.4  T
speedup  1.08
cpu  time for SCC    0.00 s
wall time for SCC    0.00 s
speedup  1.01
cpu  time for grad    0.01 s
wall time for grad    0.01 s
 E :    -40.91992132  G :  0.004164    pred/act E change: -0.467D-03 -0.751D-03
Maxdispl :   0.0375   ||displ|| :   0.0910   Lambda : -0.125D-03
Largest |displ|/coords:  0.0375 (   3)  0.0343 (   6)  0.0323 (  13)
................................................................................
.............................. CYCLE   33 ......................................
................................................................................
   1    -41.1281289 -0.411281E+02  0.842E-02    9.04       0.0  T
   2    -41.1281302 -0.127186E-05  0.634E-02    9.04       1.0  T
   3    -41.1281311 -0.945426E-06  0.786E-03    9.05       2.9  T
   4    -41.1281313 -0.167419E-06  0.217E-03    9.05      10.6  T
   5    -41.1281313 -0.530405E-08  0.817E-04    9.05      28.1  T
speedup  0.94
cpu  time for SCC    0.00 s
wall time for SCC    0.00 s
speedup  1.06
cpu  time for grad    0.01 s
wall time for grad    0.01 s
 E :    -40.92002980  G :  0.002728    pred/act E change: -0.124D-02 -0.108D-03
Maxdispl :   0.2082   ||displ|| :   0.4617   Lambda : -0.425D-03
Largest |displ|/coords:  0.2082 (   3)  0.1815 (   7)  0.1780 (   2)
................................................................................
.............................. CYCLE   34 ......................................
................................................................................
   1    -41.1225113 -0.411225E+02  0.392E-01    9.00       0.0  T
   2    -41.1225362 -0.249035E-04  0.294E-01    9.00       1.0  T
   3    -41.1225514 -0.152335E-04  0.346E-02    9.02       1.0  T
   4    -41.1225553 -0.381028E-05  0.865E-03    9.02       2.7  T
   5    -41.1225553 -0.740245E-07  0.398E-03    9.02       5.8  T
   6    -41.1225553 -0.946859E-08  0.224E-03    9.02      10.2  T
   7    -41.1225553 -0.479997E-08  0.414E-04    9.02      55.4  T
   8    -41.1225553 -0.320064E-09  0.108E-04    9.02     213.2  T
speedup  1.02
cpu  time for SCC    0.00 s
wall time for SCC    0.00 s
speedup  0.96
cpu  time for grad    0.01 s
wall time for grad    0.01 s
 E :    -40.91989273  G :  0.027642    pred/act E change: -0.630D-04  0.137D-03
Maxdispl :   0.0878   ||displ|| :   0.2211   Lambda : -0.877D-03
Largest |displ|/coords:  0.0878 (   7)  0.0859 (   2)  0.0840 (  13)
................................................................................
.............................. CYCLE   35 ......................................
................................................................................
   1    -41.1274952 -0.411275E+02  0.217E-01    9.05       0.0  T
   2    -41.1275105 -0.153177E-04  0.162E-01    9.04       1.0  T
   3    -41.1275193 -0.877750E-05  0.263E-02    9.03       1.0  T
   4    -41.1275215 -0.224313E-05  0.540E-03    9.03       4.3  T
   5    -41.1275215 -0.275976E-07  0.299E-03    9.03       7.7  T
speedup  1.00
cpu  time for SCC    0.00 s
wall time for SCC    0.00 s
speedup  0.98
cpu  time for grad    0.01 s
wall time for grad    0.01 s
 E :    -40.92021192  G :  0.004063    pred/act E change: -0.258D-03 -0.319D-03
Maxdispl :   0.0598   ||displ|| :   0.1033   Lambda : -0.712D-04
Largest |displ|/coords:  0.0598 (   3)  0.0447 (   1)  0.0355 (   7)
................................................................................
.............................. CYCLE   36 ......................................
................................................................................
   1    -41.1271887 -0.411272E+02  0.766E-02    9.02       0.0  T
   2    -41.1271891 -0.409400E-06  0.574E-02    9.02       1.0  T
   3    -41.1271895 -0.331732E-06  0.509E-03    9.03       4.5  T
   4    -41.1271895 -0.472539E-07  0.186E-03    9.03      12.4  T
   5    -41.1271895 -0.231478E-08  0.502E-04    9.03      45.7  T
speedup  0.94
cpu  time for SCC    0.00 s
wall time for SCC    0.00 s
speedup  1.07
cpu  time for grad    0.01 s
wall time for grad    0.01 s
 E :    -40.92027696  G :  0.004183    pred/act E change: -0.460D-03 -0.650D-04
Maxdispl :   0.3466   ||displ|| :   0.6119   Lambda : -0.390D-03
Largest |displ|/coords:  0.3466 (   3)  0.2852 (   1)  0.2102 (   7)
................................................................................
.............................. CYCLE   37 ......................................
................................................................................
   1    -41.1229618 -0.411230E+02  0.447E-01    8.93       0.0  T
   2    -41.1229797 -0.179002E-04  0.335E-01    8.94       1.0  T
   3    -41.1229919 -0.121964E-04  0.320E-02    8.97       1.0  T
   4    -41.1229944 -0.250943E-05  0.106E-02    8.97       2.2  T
   5    -41.1229945 -0.977181E-07  0.349E-03    8.96       6.6  T
   6    -41.1229945 -0.709819E-08  0.204E-03    8.96      11.3  T
   7    -41.1229945 -0.416976E-08  0.450E-04    8.96      51.0  T
speedup  1.14
cpu  time for SCC    0.00 s
wall time for SCC    0.00 s
speedup  1.03
cpu  time for grad    0.01 s
wall time for grad    0.01 s
 E :    -40.92023762  G :  0.022836    pred/act E change: -0.360D-04  0.393D-04
Maxdispl :   0.0734   ||displ|| :   0.1773   Lambda : -0.664D-03
Largest |displ|/coords:  0.0734 (   3)  0.0696 (   7)  0.0682 (   1)
................................................................................
.............................. CYCLE   38 ......................................
................................................................................
   1    -41.1263042 -0.411263E+02  0.167E-01    9.00       0.0  T
   2    -41.1263128 -0.865668E-05  0.125E-01    9.00       1.0  T
   3    -41.1263183 -0.545642E-05  0.199E-02    9.00       1.2  T
   4    -41.1263195 -0.122889E-05  0.448E-03    8.99       5.1  T
   5    -41.1263195 -0.149087E-07  0.234E-03    8.99       9.8  T
speedup  0.97
cpu  time for SCC    0.00 s
wall time for SCC    0.00 s
speedup  0.98
cpu  time for grad    0.01 s
wall time for grad    0.01 s
 E :    -40.92049236  G :  0.006960    pred/act E change: -0.268D-03 -0.255D-03
Maxdispl :   0.0546   ||displ|| :   0.0935   Lambda : -0.107D-03
Largest |displ|/coords:  0.0546 (   1)  0.0441 (   3)  0.0362 (   6)
................................................................................
.............................. CYCLE   39 ......................................
................................................................................
   1    -41.1276455 -0.411276E+02  0.677E-02    9.00       0.0  T
   2    -41.1276463 -0.807438E-06  0.511E-02    9.00       1.0  T
   3    -41.1276470 -0.728531E-06  0.604E-03    9.00       3.8  T
   4    -41.1276471 -0.870879E-07  0.228E-03    9.00      10.1  T
   5    -41.1276471 -0.417057E-08  0.693E-04    9.00      33.1  T
speedup  0.94
cpu  time for SCC    0.00 s
wall time for SCC    0.00 s
speedup  1.07
cpu  time for grad    0.01 s
wall time for grad    0.01 s
 E :    -40.92055810  G :  0.003746    pred/act E change: -0.342D-03 -0.657D-04
Maxdispl :   0.2394   ||displ|| :   0.4011   Lambda : -0.187D-03
Largest |displ|/coords:  0.2394 (   3)  0.2310 (   1)  0.1051 (   7)
................................................................................
.............................. CYCLE   40 ......................................
................................................................................
   1    -41.1259405 -0.411259E+02  0.267E-01    8.95       0.0  T
   2    -41.1259449 -0.446588E-05  0.200E-01    8.96       1.0  T
   3    -41.1259487 -0.371899E-05  0.160E-02    8.97       1.4  T
   4    -41.1259492 -0.546885E-06  0.646E-03    8.97       3.6  T
   5    -41.1259492 -0.312660E-07  0.186E-03    8.97      12.3  T
   6    -41.1259492 -0.234422E-08  0.110E-03    8.97      20.9  T
   7    -41.1259492 -0.146331E-08  0.245E-04    8.97      93.8  T
   8    -41.1259492 -0.167823E-09  0.754E-05    8.97     304.4  T
speedup  1.00
cpu  time for SCC    0.01 s
wall time for SCC    0.00 s
speedup  0.96
cpu  time for grad    0.01 s
wall time for grad    0.01 s
 E :    -40.92069569  G :  0.008184    pred/act E change: -0.541D-04 -0.138D-03
Maxdispl :   0.2404   ||displ|| :   0.3811   Lambda : -0.173D-03
Largest |displ|/coords:  0.2404 (   1)  0.1898 (   3)  0.1196 (   6)
................................................................................
.............................. CYCLE   41 ......................................
................................................................................
   1    -41.1251617 -0.411252E+02  0.233E-01    8.94       0.0  T
   2    -41.1251656 -0.384040E-05  0.174E-01    8.95       1.0  T
   3    -41.1251685 -0.294461E-05  0.142E-02    8.97       1.6  T
   4    -41.1251691 -0.527213E-06  0.585E-03    8.97       3.9  T
   5    -41.1251691 -0.316668E-07  0.166E-03    8.96      13.8  T
   6    -41.1251691 -0.199326E-08  0.101E-03    8.96      22.7  T
speedup  1.05
cpu  time for SCC    0.00 s
wall time for SCC    0.00 s
speedup  0.99
cpu  time for grad    0.01 s
wall time for grad    0.01 s
 E :    -40.92079402  G :  0.010138    pred/act E change: -0.109D-03 -0.983D-04
Maxdispl :   0.1930   ||displ|| :   0.2790   Lambda : -0.272D-03
Largest |displ|/coords:  0.1930 (   1)  0.1395 (   3)  0.0571 (   9)
................................................................................
.............................. CYCLE   42 ......................................
................................................................................
   1    -41.1266933 -0.411267E+02  0.169E-01    8.97       0.0  T
   2    -41.1266961 -0.286768E-05  0.127E-01    8.98       1.0  T
   3    -41.1266987 -0.253059E-05  0.111E-02    8.98       2.1  T
   4    -41.1266990 -0.358056E-06  0.462E-03    8.98       5.0  T
   5    -41.1266990 -0.211346E-07  0.158E-03    8.98      14.6  T
   6    -41.1266990 -0.208673E-08  0.878E-04    8.98      26.1  T
speedup  1.05
cpu  time for SCC    0.00 s
wall time for SCC    0.00 s
speedup  0.99
cpu  time for grad    0.01 s
wall time for grad    0.01 s
 E :    -40.92095647  G :  0.005963    pred/act E change: -0.991D-04 -0.162D-03
Maxdispl :   0.2042   ||displ|| :   0.2810   Lambda : -0.223D-03
Largest |displ|/coords:  0.2042 (   1)  0.0875 (   6)  0.0850 (   3)
................................................................................
.............................. CYCLE   43 ......................................
................................................................................
   1    -41.1294889 -0.411295E+02  0.161E-01    9.05       0.0  T
   2    -41.1294918 -0.290364E-05  0.121E-01    9.05       1.0  T
   3    -41.1294946 -0.274921E-05  0.115E-02    9.05       2.0  T
   4    -41.1294949 -0.338626E-06  0.458E-03    9.05       5.0  T
   5    -41.1294950 -0.242796E-07  0.173E-03    9.05      13.3  T
   6    -41.1294950 -0.286028E-08  0.902E-04    9.05      25.4  T
speedup  1.05
cpu  time for SCC    0.00 s
wall time for SCC    0.00 s
speedup  0.99
cpu  time for grad    0.01 s
wall time for grad    0.01 s
 E :    -40.92099427  G :  0.012010    pred/act E change: -0.147D-03 -0.378D-04
Maxdispl :   0.1943   ||displ|| :   0.2945   Lambda : -0.276D-03
Largest |displ|/coords:  0.1943 (   1)  0.1124 (   3)  0.0784 (   7)
................................................................................
.............................. CYCLE   44 ......................................
................................................................................
   1    -41.1288908 -0.411289E+02  0.201E-01    9.03       0.0  T
   2    -41.1288946 -0.387197E-05  0.151E-01    9.04       1.0  T
   3    -41.1288980 -0.339538E-05  0.131E-02    9.04       1.7  T
   4    -41.1288985 -0.481723E-06  0.493E-03    9.04       4.7  T
   5    -41.1288985 -0.243867E-07  0.185E-03    9.04      12.4  T
   6    -41.1288985 -0.261691E-08  0.978E-04    9.04      23.5  T
speedup  1.08
cpu  time for SCC    0.00 s
wall time for SCC    0.00 s
speedup  1.00
cpu  time for grad    0.01 s
wall time for grad    0.01 s
 E :    -40.92114269  G :  0.005540    pred/act E change: -0.120D-03 -0.148D-03
Maxdispl :   0.0737   ||displ|| :   0.1135   Lambda : -0.105D-03
Largest |displ|/coords:  0.0737 (   1)  0.0453 (   3)  0.0335 (  14)
................................................................................
.............................. CYCLE   45 ......................................
................................................................................
   1    -41.1278958 -0.411279E+02  0.959E-02    9.04       0.0  T
   2    -41.1278968 -0.950916E-06  0.723E-02    9.03       1.0  T
   3    -41.1278979 -0.106886E-05  0.662E-03    9.03       3.5  T
   4    -41.1278979 -0.834803E-07  0.212E-03    9.03      10.8  T
   5    -41.1278979 -0.412077E-08  0.101E-03    9.03      22.7  T
speedup  0.94
cpu  time for SCC    0.00 s
wall time for SCC    0.00 s
speedup  0.95
cpu  time for grad    0.01 s
wall time for grad    0.01 s
 E :    -40.92120683  G :  0.006905    pred/act E change: -0.150D-03 -0.641D-04
Maxdispl :   0.0948   ||displ|| :   0.2032   Lambda : -0.254D-03
Largest |displ|/coords:  0.0948 (   3)  0.0810 (   2)  0.0693 (   5)
................................................................................
.............................. CYCLE   46 ......................................
................................................................................
   1    -41.1342527 -0.411343E+02  0.113E-01    9.13       0.0  T
   2    -41.1342581 -0.541737E-05  0.842E-02    9.12       1.0  T
   3    -41.1342615 -0.334275E-05  0.184E-02    9.10       1.2  T
   4    -41.1342621 -0.595553E-06  0.608E-03    9.10       3.8  T
   5    -41.1342621 -0.465027E-07  0.156E-03    9.10      14.8  T
   6    -41.1342621 -0.165230E-08  0.890E-04    9.10      25.8  T
speedup  1.08
cpu  time for SCC    0.00 s
wall time for SCC    0.00 s
speedup  1.01
cpu  time for grad    0.01 s
wall time for grad    0.01 s
 E :    -40.92103416  G :  0.017306    pred/act E change: -0.531D-04  0.173D-03
Maxdispl :   0.1648   ||displ|| :   0.2661   Lambda : -0.593D-03
Largest |displ|/coords:  0.1648 (   1)  0.1601 (   3)  0.0854 (   6)
................................................................................
.............................. CYCLE   47 ......................................
................................................................................
   1    -41.1279791 -0.411280E+02  0.183E-01    8.99       0.0  T
   2    -41.1279830 -0.393635E-05  0.137E-01    8.99       1.0  T
   3    -41.1279863 -0.329678E-05  0.139E-02    9.01       1.7  T
   4    -41.1279868 -0.466697E-06  0.373E-03    9.01       6.2  T
   5    -41.1279868 -0.132920E-07  0.188E-03    9.01      12.2  T
   6    -41.1279868 -0.316044E-08  0.876E-04    9.01      26.2  T
speedup  1.08
cpu  time for SCC    0.00 s
wall time for SCC    0.00 s
speedup  0.99
cpu  time for grad    0.01 s
wall time for grad    0.01 s
 E :    -40.92133088  G :  0.006559    pred/act E change: -0.132D-03 -0.297D-03
Maxdispl :   0.1352   ||displ|| :   0.1778   Lambda : -0.177D-03
Largest |displ|/coords:  0.1352 (   1)  0.0719 (   6)  0.0377 (   7)
................................................................................
.............................. CYCLE   48 ......................................
................................................................................
   1    -41.1285705 -0.411286E+02  0.121E-01    9.03       0.0  T
   2    -41.1285739 -0.339632E-05  0.909E-02    9.03       1.0  T
   3    -41.1285763 -0.237893E-05  0.140E-02    9.04       1.6  T
   4    -41.1285768 -0.451551E-06  0.451E-03    9.04       5.1  T
   5    -41.1285768 -0.281317E-07  0.137E-03    9.04      16.8  T
   6    -41.1285768 -0.137140E-08  0.734E-04    9.04      31.3  T
speedup  1.08
cpu  time for SCC    0.00 s
wall time for SCC    0.00 s
speedup  1.00
cpu  time for grad    0.01 s
wall time for grad    0.01 s
 E :    -40.92129292  G :  0.014377    pred/act E change: -0.318D-03  0.380D-04
Maxdispl :   0.0398   ||displ|| :   0.0588   Lambda : -0.218D-03
Largest |displ|/coords:  0.0398 (   2)  0.0234 (   4)  0.0162 (   7)
................................................................................
.............................. CYCLE   49 ......................................
................................................................................
   1    -41.1290194 -0.411290E+02  0.588E-02    9.03       0.0  T
   2    -41.1290208 -0.139228E-05  0.443E-02    9.03       1.0  T
   3    -41.1290219 -0.111958E-05  0.854E-03    9.03       2.7  T
   4    -41.1290220 -0.145763E-06  0.290E-03    9.03       7.9  T
   5    -41.1290221 -0.135373E-07  0.861E-04    9.03      26.7  T
speedup  0.97
cpu  time for SCC    0.00 s
wall time for SCC    0.00 s
speedup  0.95
cpu  time for grad    0.01 s
wall time for grad    0.01 s
 E :    -40.92140849  G :  0.003375    pred/act E change: -0.914D-04 -0.116D-03
Maxdispl :   0.0686   ||displ|| :   0.1186   Lambda : -0.550D-04
Largest |displ|/coords:  0.0686 (   1)  0.0447 (   3)  0.0360 (   6)
................................................................................
.............................. CYCLE   50 ......................................
................................................................................
   1    -41.1284627 -0.411285E+02  0.839E-02    9.03       0.0  T
   2    -41.1284635 -0.791983E-06  0.633E-02    9.03       1.0  T
   3    -41.1284644 -0.828556E-06  0.545E-03    9.03       4.2  T
   4    -41.1284644 -0.820932E-07  0.177E-03    9.03      13.0  T
   5    -41.1284644 -0.254535E-08  0.895E-04    9.03      25.6  T
   6    -41.1284644 -0.822887E-09  0.375E-04    9.03      61.1  T
speedup  1.08
cpu  time for SCC    0.00 s
wall time for SCC    0.00 s
speedup  1.08
cpu  time for grad    0.01 s
wall time for grad    0.01 s
 E :    -40.92143241  G :  0.004485    pred/act E change: -0.109D-03 -0.239D-04
Maxdispl :   0.0994   ||displ|| :   0.1512   Lambda : -0.652D-04
Largest |displ|/coords:  0.0994 (   1)  0.0593 (   2)  0.0548 (   6)
................................................................................
.............................. CYCLE   51 ......................................
................................................................................
   1    -41.1284333 -0.411284E+02  0.103E-01    9.01       0.0  T
   2    -41.1284341 -0.798772E-06  0.773E-02    9.02       1.0  T
   3    -41.1284351 -0.979318E-06  0.513E-03    9.03       4.5  T
   4    -41.1284351 -0.468257E-07  0.195E-03    9.03      11.8  T
   5    -41.1284351 -0.313261E-08  0.845E-04    9.02      27.2  T
speedup  0.97
cpu  time for SCC    0.00 s
wall time for SCC    0.00 s
speedup  0.95
cpu  time for grad    0.01 s
wall time for grad    0.01 s
 E :    -40.92146463  G :  0.005887    pred/act E change: -0.279D-04 -0.322D-04
Maxdispl :   0.0593   ||displ|| :   0.1283   Lambda : -0.101D-03
Largest |displ|/coords:  0.0593 (   2)  0.0576 (   6)  0.0484 (   1)
................................................................................
.............................. CYCLE   52 ......................................
................................................................................
   1    -41.1310590 -0.411311E+02  0.731E-02    9.05       0.0  T
   2    -41.1310604 -0.131548E-05  0.535E-02    9.05       1.0  T
   3    -41.1310611 -0.743120E-06  0.104E-02    9.07       2.2  T
   4    -41.1310612 -0.142791E-06  0.300E-03    9.07       7.7  T
   5    -41.1310612 -0.953845E-08  0.717E-04    9.07      32.0  T
speedup  0.97
cpu  time for SCC    0.00 s
wall time for SCC    0.00 s
speedup  0.96
cpu  time for grad    0.01 s
wall time for grad    0.01 s
 E :    -40.92147574  G :  0.005965    pred/act E change: -0.333D-04 -0.111D-04
Maxdispl :   0.1265   ||displ|| :   0.1914   Lambda : -0.807D-04
Largest |displ|/coords:  0.1265 (   1)  0.0842 (   3)  0.0537 (   6)

generating ANC from model Hessian ...
 Shifting diagonal of input Hessian by   4.726669360677748E-003
 Lowest  eigenvalues of input Hessian
   -0.000000   -0.000000   -0.000000    0.000000    0.000000    0.000000
    0.005000    0.005455    0.006124    0.006347    0.007125    0.007551
    0.008791    0.010493    0.012009    0.014381    0.015477    0.017009
 Highest eigenvalues
    1.401633    1.406232    1.422382    2.701706    3.275853    3.737633
 
cpu  time for ANC gen    0.01 s
wall time for ANC gen    0.01 s
................................................................................
.............................. CYCLE   53 ......................................
................................................................................
   1    -41.1279434 -0.411279E+02  0.129E-01    9.03       0.0  T
   2    -41.1279449 -0.152816E-05  0.970E-02    9.03       1.0  T
   3    -41.1279464 -0.149232E-05  0.850E-03    9.04       2.7  T
   4    -41.1279466 -0.164599E-06  0.310E-03    9.03       7.4  T
   5    -41.1279466 -0.112287E-07  0.117E-03    9.03      19.6  T
   6    -41.1279466 -0.104454E-08  0.573E-04    9.03      40.1  T
   7    -41.1279466 -0.732427E-09  0.156E-04    9.03     147.0  T
speedup  0.93
cpu  time for SCC    0.00 s
wall time for SCC    0.00 s
speedup  0.91
cpu  time for grad    0.01 s
wall time for grad    0.01 s
 E :    -40.92149271  G :  0.005446    pred/act E change:  0.000D+00 -0.170D-04
Maxdispl :   0.0343   ||displ|| :   0.0634   Lambda : -0.629D-04
Largest |displ|/coords:  0.0343 (   6)  0.0289 (   5)  0.0235 (   1)
................................................................................
.............................. CYCLE   54 ......................................
................................................................................
   1    -41.1288914 -0.411289E+02  0.618E-02    9.04       0.0  T
   2    -41.1288918 -0.348192E-06  0.468E-02    9.04       1.0  T
   3    -41.1288922 -0.400643E-06  0.314E-03    9.04       7.3  T
   4    -41.1288922 -0.235333E-07  0.123E-03    9.04      18.7  T
   5    -41.1288922 -0.919982E-09  0.484E-04    9.04      47.4  T
speedup  1.25
cpu  time for SCC    0.00 s
wall time for SCC    0.00 s
speedup  1.07
cpu  time for grad    0.01 s
wall time for grad    0.01 s
 E :    -40.92153644  G :  0.001887    pred/act E change:  0.000D+00 -0.437D-04
Maxdispl :   0.0463   ||displ|| :   0.0827   Lambda : -0.399D-04
Largest |displ|/coords:  0.0463 (   1)  0.0336 (   5)  0.0303 (   6)
................................................................................
.............................. CYCLE   55 ......................................
................................................................................
   1    -41.1295238 -0.411295E+02  0.755E-02    9.06       0.0  T
   2    -41.1295242 -0.384926E-06  0.569E-02    9.06       1.0  T
   3    -41.1295246 -0.409932E-06  0.373E-03    9.06       6.1  T
   4    -41.1295246 -0.346274E-07  0.163E-03    9.06      14.1  T
   5    -41.1295246 -0.202103E-08  0.566E-04    9.06      40.6  T
   6    -41.1295246 -0.201972E-09  0.269E-04    9.06      85.3  T
speedup  1.05
cpu  time for SCC    0.00 s
wall time for SCC    0.00 s
speedup  0.96
cpu  time for grad    0.01 s
wall time for grad    0.01 s
 E :    -40.92156351  G :  0.002116    pred/act E change: -0.316D-04 -0.271D-04
Maxdispl :   0.0551   ||displ|| :   0.0939   Lambda : -0.249D-04
Largest |displ|/coords:  0.0551 (   1)  0.0344 (   3)  0.0328 (   5)
................................................................................
.............................. CYCLE   56 ......................................
................................................................................
   1    -41.1294857 -0.411295E+02  0.785E-02    9.07       0.0  T
   2    -41.1294860 -0.337004E-06  0.591E-02    9.07       1.0  T
   3    -41.1294863 -0.352992E-06  0.370E-03    9.07       6.2  T
   4    -41.1294864 -0.328966E-07  0.163E-03    9.07      14.0  T
   5    -41.1294864 -0.182123E-08  0.544E-04    9.07      42.2  T
   6    -41.1294864 -0.179803E-09  0.235E-04    9.07      97.7  T
speedup  1.08
cpu  time for SCC    0.00 s
wall time for SCC    0.00 s
speedup  1.05
cpu  time for grad    0.01 s
wall time for grad    0.01 s
 E :    -40.92158112  G :  0.002871    pred/act E change: -0.201D-04 -0.176D-04
Maxdispl :   0.0718   ||displ|| :   0.1049   Lambda : -0.238D-04
Largest |displ|/coords:  0.0718 (   1)  0.0467 (   3)  0.0375 (   2)
................................................................................
.............................. CYCLE   57 ......................................
................................................................................
   1    -41.1292300 -0.411292E+02  0.776E-02    9.08       0.0  T
   2    -41.1292303 -0.316227E-06  0.584E-02    9.08       1.0  T
   3    -41.1292306 -0.301716E-06  0.368E-03    9.08       6.2  T
   4    -41.1292307 -0.361541E-07  0.154E-03    9.08      14.9  T
   5    -41.1292307 -0.233165E-08  0.574E-04    9.08      40.0  T
   6    -41.1292307 -0.191939E-09  0.275E-04    9.08      83.3  T
speedup  1.05
cpu  time for SCC    0.00 s
wall time for SCC    0.00 s
speedup  0.96
cpu  time for grad    0.01 s
wall time for grad    0.01 s
 E :    -40.92159663  G :  0.002007    pred/act E change: -0.126D-04 -0.155D-04
Maxdispl :   0.0410   ||displ|| :   0.0691   Lambda : -0.133D-04
Largest |displ|/coords:  0.0410 (   1)  0.0403 (   3)  0.0294 (   2)
................................................................................
.............................. CYCLE   58 ......................................
................................................................................
   1    -41.1290806 -0.411291E+02  0.436E-02    9.08       0.0  T
   2    -41.1290808 -0.190504E-06  0.329E-02    9.08       1.0  T
   3    -41.1290810 -0.154448E-06  0.290E-03    9.08       7.9  T
   4    -41.1290810 -0.256468E-07  0.984E-04    9.08      23.3  T
   5    -41.1290810 -0.129364E-08  0.363E-04    9.08      63.2  T
speedup  1.29
cpu  time for SCC    0.00 s
wall time for SCC    0.00 s
speedup  1.03
cpu  time for grad    0.01 s
wall time for grad    0.01 s
 E :    -40.92160463  G :  0.000843    pred/act E change: -0.120D-04 -0.800D-05
Maxdispl :   0.0426   ||displ|| :   0.0658   Lambda : -0.826D-05
Largest |displ|/coords:  0.0426 (   1)  0.0316 (   3)  0.0276 (   2)
................................................................................
.............................. CYCLE   59 ......................................
................................................................................
   1    -41.1287698 -0.411288E+02  0.469E-02    9.08       0.0  T
   2    -41.1287700 -0.194302E-06  0.354E-02    9.08       1.0  T
   3    -41.1287702 -0.217563E-06  0.269E-03    9.08       8.5  T
   4    -41.1287702 -0.175053E-07  0.101E-03    9.08      22.6  T
   5    -41.1287702 -0.971127E-09  0.421E-04    9.08      54.4  T
   6    -41.1287702 -0.159595E-09  0.183E-04    9.08     125.5  T
speedup  1.08
cpu  time for SCC    0.00 s
wall time for SCC    0.00 s
speedup  0.97
cpu  time for grad    0.01 s
wall time for grad    0.01 s
 E :    -40.92160939  G :  0.001007    pred/act E change: -0.667D-05 -0.476D-05
Maxdispl :   0.0112   ||displ|| :   0.0255   Lambda : -0.426D-05
Largest |displ|/coords:  0.0112 (   3)  0.0101 (   4)  0.0095 (   5)
................................................................................
.............................. CYCLE   60 ......................................
................................................................................
   1    -41.1289506 -0.411290E+02  0.223E-02    9.07       0.0  T
   2    -41.1289507 -0.529909E-07  0.168E-02    9.07       1.4  T
   3    -41.1289507 -0.645042E-07  0.169E-03    9.07      13.6  T
   4    -41.1289507 -0.350988E-08  0.469E-04    9.07      48.9  T
   5    -41.1289507 -0.243993E-09  0.212E-04    9.07     108.1  T
speedup  0.94
cpu  time for SCC    0.00 s
wall time for SCC    0.00 s
speedup  0.91
cpu  time for grad    0.01 s
wall time for grad    0.01 s
 E :    -40.92161202  G :  0.000697    pred/act E change: -0.415D-05 -0.263D-05
Maxdispl :   0.0232   ||displ|| :   0.0432   Lambda : -0.412D-05
Largest |displ|/coords:  0.0232 (   3)  0.0210 (   4)  0.0147 (   1)
................................................................................
.............................. CYCLE   61 ......................................
................................................................................
   1    -41.1288839 -0.411289E+02  0.408E-02    9.07       0.0  T
   2    -41.1288840 -0.171101E-06  0.307E-02    9.07       1.0  T
   3    -41.1288842 -0.196019E-06  0.292E-03    9.07       7.9  T
   4    -41.1288842 -0.140159E-07  0.104E-03    9.07      22.1  T
   5    -41.1288843 -0.105059E-08  0.386E-04    9.07      59.5  T
   6    -41.1288843 -0.117069E-09  0.217E-04    9.07     105.6  T
speedup  1.11
cpu  time for SCC    0.00 s
wall time for SCC    0.00 s
speedup  1.09
cpu  time for grad    0.01 s
wall time for grad    0.01 s
 E :    -40.92161372  G :  0.000927    pred/act E change: -0.213D-05 -0.170D-05
Maxdispl :   0.0078   ||displ|| :   0.0162   Lambda : -0.204D-05
Largest |displ|/coords:  0.0078 (   1)  0.0075 (   3)  0.0070 (   2)
................................................................................
.............................. CYCLE   62 ......................................
................................................................................
   1    -41.1290472 -0.411290E+02  0.124E-02    9.07       0.0  T
   2    -41.1290473 -0.242739E-07  0.928E-03    9.07       2.5  T
   3    -41.1290473 -0.168099E-07  0.112E-03    9.07      20.4  T
   4    -41.1290473 -0.351485E-08  0.250E-04    9.07      91.7  T
   5    -41.1290473 -0.523386E-10  0.945E-05    9.07     242.8  T
speedup  0.94
cpu  time for SCC    0.00 s
wall time for SCC    0.00 s
speedup  0.92
cpu  time for grad    0.01 s
wall time for grad    0.01 s
 E :    -40.92161508  G :  0.000511    pred/act E change: -0.206D-05 -0.136D-05
Maxdispl :   0.0063   ||displ|| :   0.0121   Lambda : -0.120D-05
Largest |displ|/coords:  0.0063 (   4)  0.0050 (  12)  0.0042 (   6)
................................................................................
.............................. CYCLE   63 ......................................
................................................................................
   1    -41.1290848 -0.411291E+02  0.122E-02    9.07       0.0  T
   2    -41.1290848 -0.268990E-07  0.918E-03    9.07       2.5  T
   3    -41.1290848 -0.177049E-07  0.113E-03    9.07      20.2  T
   4    -41.1290848 -0.399549E-08  0.430E-04    9.07      53.3  T
   5    -41.1290848 -0.185899E-09  0.108E-04    9.07     212.3  T
speedup  1.25
cpu  time for SCC    0.00 s
wall time for SCC    0.00 s
speedup  1.02
cpu  time for grad    0.01 s
wall time for grad    0.01 s
 E :    -40.92161588  G :  0.000311    pred/act E change: -0.102D-05 -0.795D-06
Maxdispl :   0.0059   ||displ|| :   0.0104   Lambda : -0.579D-06
Largest |displ|/coords:  0.0059 (   4)  0.0033 (   3)  0.0029 (  10)
................................................................................
.............................. CYCLE   64 ......................................
................................................................................
   1    -41.1290957 -0.411291E+02  0.110E-02    9.07       0.0  T
   2    -41.1290957 -0.204675E-07  0.825E-03    9.07       2.8  T
   3    -41.1290957 -0.122936E-07  0.972E-04    9.07      23.6  T
   4    -41.1290957 -0.347428E-08  0.404E-04    9.07      56.8  T
speedup  1.20
cpu  time for SCC    0.00 s
wall time for SCC    0.00 s
speedup  1.00
cpu  time for grad    0.01 s
wall time for grad    0.01 s
 E :    -40.92161625  G :  0.000213    pred/act E change: -0.598D-06 -0.366D-06
Maxdispl :   0.0039   ||displ|| :   0.0077   Lambda : -0.262D-06
Largest |displ|/coords:  0.0039 (   4)  0.0037 (   3)  0.0032 (   2)
................................................................................
.............................. CYCLE   65 ......................................
................................................................................
   1    -41.1290923 -0.411291E+02  0.762E-03    9.07       0.0  T
   2    -41.1290923 -0.107694E-07  0.576E-03    9.07       4.0  T
   3    -41.1290923 -0.675149E-08  0.711E-04    9.07      32.3  T
   4    -41.1290923 -0.187513E-08  0.287E-04    9.07      80.0  T
speedup  0.80
cpu  time for SCC    0.00 s
wall time for SCC    0.00 s
speedup  0.99
cpu  time for grad    0.01 s
wall time for grad    0.01 s
 E :    -40.92161644  G :  0.000183    pred/act E change: -0.289D-06 -0.197D-06
Maxdispl :   0.0044   ||displ|| :   0.0087   Lambda : -0.239D-06
Largest |displ|/coords:  0.0044 (   2)  0.0039 (   3)  0.0039 (   4)
................................................................................
.............................. CYCLE   66 ......................................
................................................................................
   1    -41.1291179 -0.411291E+02  0.878E-03    9.07       0.0  T
   2    -41.1291179 -0.125610E-07  0.664E-03    9.07       3.5  T
   3    -41.1291180 -0.872423E-08  0.762E-04    9.07      30.1  T
   4    -41.1291180 -0.206763E-08  0.311E-04    9.07      73.8  T
speedup  1.07
cpu  time for SCC    0.00 s
wall time for SCC    0.00 s
speedup  0.96
cpu  time for grad    0.01 s
wall time for grad    0.01 s
 E :    -40.92161662  G :  0.000174    pred/act E change: -0.129D-06 -0.178D-06
Maxdispl :   0.0051   ||displ|| :   0.0088   Lambda : -0.202D-06
Largest |displ|/coords:  0.0051 (   1)  0.0037 (   2)  0.0034 (  11)
................................................................................
.............................. CYCLE   67 ......................................
................................................................................
   1    -41.1291626 -0.411292E+02  0.995E-03    9.07       0.0  T
   2    -41.1291626 -0.108428E-07  0.753E-03    9.07       3.0  T
   3    -41.1291626 -0.959372E-08  0.655E-04    9.07      35.0  T
   4    -41.1291626 -0.139255E-08  0.280E-04    9.07      82.0  T
speedup  1.15
cpu  time for SCC    0.00 s
wall time for SCC    0.00 s
speedup  0.98
cpu  time for grad    0.01 s
wall time for grad    0.01 s
 E :    -40.92161679  G :  0.000194    pred/act E change: -0.119D-06 -0.168D-06
Maxdispl :   0.0115   ||displ|| :   0.0163   Lambda : -0.306D-06
[...]
Maxdispl :   0.0415   ||displ|| :   0.0607   Lambda : -0.634D-05
Largest |displ|/coords:  0.0415 (   1)  0.0197 (   3)  0.0188 (   2)
................................................................................
.............................. CYCLE  112 ......................................
................................................................................
   1    -41.1277260 -0.411277E+02  0.383E-02    9.18       0.0  T
   2    -41.1277262 -0.233322E-06  0.289E-02    9.18       1.0  T
   3    -41.1277264 -0.212041E-06  0.276E-03    9.18       8.3  T
   4    -41.1277265 -0.293408E-07  0.890E-04    9.18      25.8  T
   5    -41.1277265 -0.816385E-09  0.414E-04    9.18      55.4  T
speedup  0.97
cpu  time for SCC    0.00 s
wall time for SCC    0.00 s
speedup  1.03
cpu  time for grad    0.01 s
wall time for grad    0.01 s
 E :    -40.92245091  G :  0.001977    pred/act E change: -0.771D-05 -0.305D-05
Maxdispl :   0.0183   ||displ|| :   0.0245   Lambda : -0.337D-05
Largest |displ|/coords:  0.0183 (   1)  0.0082 (   2)  0.0068 (   4)

generating ANC from model Hessian ...
 Shifting diagonal of input Hessian by   4.689297872619504E-003
 Lowest  eigenvalues of input Hessian
   -0.000000   -0.000000   -0.000000   -0.000000   -0.000000    0.000000
    0.005000    0.005445    0.005899    0.006513    0.007118    0.007300
    0.009607    0.010756    0.013685    0.014949    0.016751    0.017090
 Highest eigenvalues
    1.410434    1.410694    1.415757    2.712896    3.281353    3.742071
 
cpu  time for ANC gen    0.01 s
wall time for ANC gen    0.01 s
................................................................................
.............................. CYCLE  113 ......................................
................................................................................
   1    -41.1277771 -0.411278E+02  0.175E-02    9.18       0.0  T
   2    -41.1277771 -0.436863E-07  0.132E-02    9.18       1.7  T
   3    -41.1277771 -0.356670E-07  0.139E-03    9.18      16.5  T
   4    -41.1277771 -0.601332E-08  0.463E-04    9.18      49.5  T
   5    -41.1277771 -0.294605E-09  0.175E-04    9.18     131.3  T
speedup  0.94
cpu  time for SCC    0.00 s
wall time for SCC    0.00 s
speedup  1.01
cpu  time for grad    0.01 s
wall time for grad    0.01 s
 E :    -40.92245370  G :  0.001424    pred/act E change:  0.000D+00 -0.279D-05
Maxdispl :   0.0157   ||displ|| :   0.0253   Lambda : -0.766D-05
Largest |displ|/coords:  0.0157 (   6)  0.0091 (   4)  0.0078 (   2)
................................................................................
.............................. CYCLE  114 ......................................
................................................................................
   1    -41.1277091 -0.411277E+02  0.274E-02    9.18       0.0  T
   2    -41.1277092 -0.729636E-07  0.208E-02    9.18       1.1  T
   3    -41.1277092 -0.838136E-07  0.154E-03    9.18      14.9  T
   4    -41.1277092 -0.517800E-08  0.613E-04    9.18      37.4  T
   5    -41.1277092 -0.276707E-09  0.213E-04    9.18     107.7  T
speedup  0.97
cpu  time for SCC    0.00 s
wall time for SCC    0.00 s
speedup  1.03
cpu  time for grad    0.01 s
wall time for grad    0.01 s
 E :    -40.92245939  G :  0.000612    pred/act E change:  0.000D+00 -0.568D-05
Maxdispl :   0.0242   ||displ|| :   0.0444   Lambda : -0.826D-05
Largest |displ|/coords:  0.0242 (   6)  0.0191 (   3)  0.0166 (  13)
................................................................................
.............................. CYCLE  115 ......................................
................................................................................
   1    -41.1275969 -0.411276E+02  0.467E-02    9.18       0.0  T
   2    -41.1275971 -0.185257E-06  0.353E-02    9.18       1.0  T
   3    -41.1275973 -0.195472E-06  0.265E-03    9.19       8.7  T
   4    -41.1275973 -0.166337E-07  0.104E-03    9.19      22.1  T
   5    -41.1275973 -0.886729E-09  0.377E-04    9.19      60.9  T
   6    -41.1275973 -0.741736E-10  0.172E-04    9.19     133.2  T
speedup  0.81
cpu  time for SCC    0.00 s
wall time for SCC    0.00 s
speedup  0.96
cpu  time for grad    0.01 s
wall time for grad    0.01 s
 E :    -40.92246374  G :  0.001236    pred/act E change: -0.383D-05 -0.435D-05
Maxdispl :   0.0102   ||displ|| :   0.0156   Lambda : -0.200D-05
Largest |displ|/coords:  0.0102 (   3)  0.0074 (   2)  0.0051 (   4)
................................................................................
.............................. CYCLE  116 ......................................
................................................................................
   1    -41.1276435 -0.411276E+02  0.120E-02    9.19       0.0  T
   2    -41.1276435 -0.698156E-08  0.897E-03    9.19       2.6  T
   3    -41.1276435 -0.588949E-08  0.596E-04    9.19      38.5  T
   4    -41.1276435 -0.874948E-09  0.201E-04    9.19     114.3  T
speedup  1.15
cpu  time for SCC    0.00 s
wall time for SCC    0.00 s
speedup  0.98
cpu  time for grad    0.01 s
wall time for grad    0.01 s
 E :    -40.92246535  G :  0.000839    pred/act E change: -0.414D-05 -0.162D-05
Maxdispl :   0.0313   ||displ|| :   0.0406   Lambda : -0.360D-05
Largest |displ|/coords:  0.0313 (   3)  0.0173 (   2)  0.0101 (   6)
................................................................................
.............................. CYCLE  117 ......................................
................................................................................
   1    -41.1277051 -0.411277E+02  0.303E-02    9.19       0.0  T
   2    -41.1277051 -0.540587E-07  0.228E-02    9.19       1.0  T
   3    -41.1277052 -0.584150E-07  0.160E-03    9.19      14.3  T
   4    -41.1277052 -0.464753E-08  0.588E-04    9.19      39.0  T
   5    -41.1277052 -0.278042E-09  0.205E-04    9.19     111.9  T
speedup  1.29
cpu  time for SCC    0.00 s
wall time for SCC    0.00 s
speedup  1.03
cpu  time for grad    0.01 s
wall time for grad    0.01 s
 E :    -40.92246753  G :  0.000271    pred/act E change: -0.998D-06 -0.218D-05
Maxdispl :   0.0170   ||displ|| :   0.0229   Lambda : -0.819D-06
Largest |displ|/coords:  0.0170 (   3)  0.0114 (   2)  0.0060 (   6)
................................................................................
.............................. CYCLE  118 ......................................
................................................................................
   1    -41.1276752 -0.411277E+02  0.169E-02    9.19       0.0  T
   2    -41.1276752 -0.198322E-07  0.128E-02    9.19       1.8  T
   3    -41.1276753 -0.249079E-07  0.901E-04    9.19      25.5  T
   4    -41.1276753 -0.116249E-08  0.345E-04    9.19      66.4  T
speedup  1.11
cpu  time for SCC    0.00 s
wall time for SCC    0.00 s
speedup  0.96
cpu  time for grad    0.01 s
wall time for grad    0.01 s
 E :    -40.92246814  G :  0.000240    pred/act E change: -0.180D-05 -0.604D-06
Maxdispl :   0.0179   ||displ|| :   0.0229   Lambda : -0.728D-06
Largest |displ|/coords:  0.0179 (   3)  0.0101 (   2)  0.0055 (   5)
................................................................................
.............................. CYCLE  119 ......................................
................................................................................
   1    -41.1276574 -0.411277E+02  0.156E-02    9.18       0.0  T
   2    -41.1276574 -0.228707E-07  0.118E-02    9.18       2.0  T
   3    -41.1276575 -0.298080E-07  0.934E-04    9.18      24.6  T
   4    -41.1276575 -0.128247E-08  0.342E-04    9.18      67.1  T
speedup  1.15
cpu  time for SCC    0.00 s
wall time for SCC    0.00 s
speedup  0.94
cpu  time for grad    0.01 s
wall time for grad    0.01 s
 E :    -40.92246865  G :  0.000271    pred/act E change: -0.410D-06 -0.515D-06
Maxdispl :   0.0097   ||displ|| :   0.0144   Lambda : -0.384D-06
Largest |displ|/coords:  0.0097 (   3)  0.0054 (   5)  0.0051 (   2)
................................................................................
.............................. CYCLE  120 ......................................
................................................................................
   1    -41.1276466 -0.411276E+02  0.942E-03    9.18       0.0  T
   2    -41.1276466 -0.113628E-07  0.714E-03    9.18       3.2  T
   3    -41.1276467 -0.141403E-07  0.576E-04    9.18      39.8  T
   4    -41.1276467 -0.809877E-09  0.216E-04    9.18     106.4  T
speedup  1.15
cpu  time for SCC    0.00 s
wall time for SCC    0.00 s
speedup  1.10
cpu  time for grad    0.01 s
wall time for grad    0.01 s
 E :    -40.92246894  G :  0.000219    pred/act E change: -0.364D-06 -0.284D-06
Maxdispl :   0.0054   ||displ|| :   0.0109   Lambda : -0.277D-06
Largest |displ|/coords:  0.0054 (   1)  0.0047 (   3)  0.0046 (  11)
................................................................................
.............................. CYCLE  121 ......................................
................................................................................
   1    -41.1276612 -0.411277E+02  0.720E-03    9.18       0.0  T
   2    -41.1276612 -0.841926E-08  0.546E-03    9.18       4.2  T
   3    -41.1276612 -0.945128E-08  0.520E-04    9.18      44.1  T
   4    -41.1276612 -0.764963E-09  0.171E-04    9.18     134.5  T
speedup  0.80
cpu  time for SCC    0.00 s
wall time for SCC    0.00 s
speedup  0.99
cpu  time for grad    0.01 s
wall time for grad    0.01 s
 E :    -40.92246913  G :  0.000182    pred/act E change: -0.192D-06 -0.188D-06
Maxdispl :   0.0043   ||displ|| :   0.0063   Lambda : -0.138D-06
Largest |displ|/coords:  0.0043 (   1)  0.0027 (  11)  0.0023 (   5)
................................................................................
.............................. CYCLE  122 ......................................
................................................................................
   1    -41.1276867 -0.411277E+02  0.320E-03    9.18       0.0  T
   2    -41.1276867 -0.244226E-08  0.241E-03    9.18       9.5  T
   3    -41.1276867 -0.212338E-08  0.349E-04    9.18      65.7  T
   4    -41.1276867 -0.294719E-09  0.106E-04    9.18     215.8  T
speedup  1.20
cpu  time for SCC    0.00 s
wall time for SCC    0.00 s
speedup  0.99
cpu  time for grad    0.01 s
wall time for grad    0.01 s
 E :    -40.92246922  G :  0.000129    pred/act E change: -0.139D-06 -0.950D-07
Maxdispl :   0.0040   ||displ|| :   0.0049   Lambda : -0.847D-07
Largest |displ|/coords:  0.0040 (   1)  0.0015 (  11)  0.0013 (   6)

   *** GEOMETRY OPTIMIZATION CONVERGED AFTER 122 ITERATIONS ***

------------------------------------------------------------------------
 total energy gain (kcal):     -0.0097
------------------------------------------------------------------------
================
 final structure:
================
$coord
       -0.69591675978061       -0.59781916033276       -1.80348162942371      S 
       -0.93906685637702       -3.16049510461466       -0.89552721593216      O 
       -1.96303844994752        1.18788627749306        0.07443033348374      O 
        1.83567837042009        0.20275868054706       -2.32300103287308      O 
       -2.32252697670514       -0.25972490488055       -4.20272053835509      O 
       -3.98978867171595       -0.95635720327593       -3.71799263450616      H 
       -5.91338050501712       -2.38467777845457       -1.60731317555458      O 
       -6.31407017288886       -1.20597405740169       -0.28428401260486      H 
       -4.48347495029883       -3.36923607201191       -1.01270121256017      H 
        2.78954250161754       -2.59189156101648        2.54051451658904      O 
        1.45811708217336       -3.20588755409683        1.43236815523792      H 
        4.25145173467495       -2.37036968458429        1.48770367015143      H 
        4.24568520573629        3.87141329188576        0.23468462708897      O 
        4.07213129062418        5.44214516582154       -0.65106178682680      H 
        3.63540992926051        2.55648528326220       -0.90598597353117      H 
        1.01818740110449        1.97546993986734        3.56288607044606      O 
       -0.74868068037227        1.62317150872780        1.70468461696664      H 
        1.74338928111872        0.25868490062426        3.67739998677404      H 
        2.32035120747167        2.98441807022245        2.68939725433905      H 
$end
 
 Bond Distances (Angstroems)
 ---------------------------
S1-O2=1.4445         S1-O3=1.5265         S1-O4=1.4317         S1-O5=1.5443         O2-S1=1.4445         O3-S1=1.5265         
O3-H17=1.1001        O4-S1=1.4317         O5-S1=1.5443         O5-H6=0.9900         H6-O5=0.9900         O7-H8=0.9613         
O7-H9=0.9711         H8-O7=0.9613         H9-O7=0.9711         O10-H11=0.9725       O10-H12=0.9605       H11-O10=0.9725       
H12-O10=0.9605       O13-H14=0.9587       O13-H15=0.9761       H14-O13=0.9587       H15-O13=0.9761       O16-H18=0.9881       
O16-H19=0.9867       H17-O3=1.1001        H18-O16=0.9881       H19-O16=0.9867       
 O  H  Rav=0.9865 sigma=0.0394  Rmin=0.9587  Rmax=1.1001    10
 S  O  Rav=1.4867 sigma=0.0493  Rmin=1.4317  Rmax=1.5443     4
 
 selected bond angles (degree)
 --------------------
O3-S1-O2=109.00                O4-S1-O2=115.15                O4-S1-O3=110.66                O5-S1-O2=109.43                
O5-S1-O3=102.63                O5-S1-O4=109.23                H17-O3-S1=112.55               H6-O5-S1=103.92                
H9-O7-H8=106.50                H12-O10-H11=105.93             
 
 selected dihedral angles (degree)
 ---------------------------------
H17-O3-S1-O2= 80.97           H17-O3-S1-O4=313.36           H17-O3-S1-O5=196.92           H6-O5-S1-O2= 49.44            
H6-O5-S1-O3=293.80            H6-O5-S1-O4=176.34            
 
 CMA Distance (Angstroems)
 ---------------------------
R(CMA):  1.7913

========================================================================
 FINAL SINGLEPOINT CALCULATION ON OPTIMIZED GEOMETRY
========================================================================

 Ncao       : 52
 Nao        : 51
 Nshell     : 29
 Nel        : 64
 T(el)      :   300.0
 intcut     :    25.0
 scfconv/Eh :  0.100E-05
   qconv/e  :  0.100E-03
 intneglect :  0.100E-07
 broydamp   :      0.250
 iter      E             dE          RMSdq      gap      omega  full diag
   1    -41.1276867 -0.411277E+02  0.494E-05    9.18       0.0  T
   2    -41.1276867 -0.149925E-11  0.302E-05    9.18     760.2  T
   3    -41.1276867 -0.703437E-12  0.573E-06    9.18    4000.8  T
speedup  1.05
cpu  time for SCC    0.00 s
wall time for SCC    0.00 s

   *** convergence criteria satisfied after 3 iterations ***

          eigenvalues
 #    :          20         21         22         23         24         25         26         27
 occ. :        2.000      2.000      2.000      2.000      2.000      2.000      2.000      2.000
 eps  :       -14.529    -14.305    -14.234    -14.022    -13.566    -13.166    -13.061    -12.906
 #    :          28         29         30         31         32         33         34         35
 occ. :        2.000      2.000      2.000      2.000      2.000      0.000      0.000      0.000
 eps  :       -12.873    -12.761    -12.663    -12.466    -12.414     -3.231     -1.066     -0.740
 #    :          36         37         38         39         40         41         42         43
 occ. :        0.000      0.000      0.000      0.000      0.000      0.000      0.000      0.000
 eps  :         0.456      0.710      1.406      2.477      3.639      4.508      5.356      6.461


   #   Z            q   n(s)   n(p)   n(d)      C6AA      α(0)
   1  16 S      1.732  1.580  1.753  0.935    88.047    15.793
   2   8 O     -0.735  1.772  4.963  0.000    29.667     7.303
   3   8 O     -0.670  1.770  4.901  0.000    26.942     7.005
   4   8 O     -0.696  1.750  4.945  0.000    28.589     7.169
   5   8 O     -0.590  1.751  4.839  0.000    24.929     6.740
   6   1 H      0.387  0.613  0.000  0.000     0.502     1.109
   7   8 O     -0.590  1.739  4.851  0.000    24.944     6.741
   8   1 H      0.307  0.693  0.000  0.000     0.701     1.315
   9   1 H      0.320  0.680  0.000  0.000     0.665     1.281
  10   8 O     -0.602  1.737  4.864  0.000    25.226     6.779
  11   1 H      0.314  0.686  0.000  0.000     0.679     1.295
  12   1 H      0.302  0.698  0.000  0.000     0.715     1.328
  13   8 O     -0.602  1.739  4.863  0.000    25.245     6.781
  14   1 H      0.291  0.709  0.000  0.000     0.748     1.358
  15   1 H      0.325  0.675  0.000  0.000     0.650     1.266
  16   8 O     -0.585  1.760  4.826  0.000    24.775     6.721
  17   1 H      0.398  0.602  0.000  0.000     0.481     1.085
  18   1 H      0.345  0.655  0.000  0.000     0.600     1.217
  19   1 H      0.348  0.652  0.000  0.000     0.592     1.209

 Mol. C6AA /au·bohr⁶  :       3367.559574
 Mol. C8AA /au·bohr⁸  :      76118.421458
 Mol. α(0) /au        :         83.493989

 
 Wiberg/Mayer (AO) data. WBOs > 0.1 written file <wbo>
 largest (>0.05) Wiberg bond orders for each atom
           total WBO             WBO to atom ...
     1  S   4.805    O    4 1.407    O    2 1.325    O    3 1.039    O    5 0.992
     2  O   1.730    S    1 1.325    O    4 0.117    O    3 0.094    O    5 0.087
     3  O   1.908    S    1 1.039    H   17 0.543    O    4 0.098    O    2 0.094    O   16 0.072    O    5 0.057
     4  O   1.764    S    1 1.407    O    2 0.117    O    3 0.098    O    5 0.071
     5  O   2.000    S    1 0.992    H    6 0.746    O    2 0.087    O    4 0.071    O    3 0.057
     6  H   0.850    O    5 0.746    O    7 0.086
     7  O   1.907    H    8 0.903    H    9 0.867    H    6 0.086
     8  H   0.906    O    7 0.903
     9  H   0.898    O    7 0.867
    10  O   1.883    H   12 0.905    H   11 0.856    H   18 0.066
    11  H   0.901    O   10 0.856
    12  H   0.909    O   10 0.905
    13  O   1.875    H   14 0.911    H   15 0.848    H   19 0.063
    14  H   0.915    O   13 0.911
    15  H   0.894    O   13 0.848
    16  O   2.055    H   19 0.813    H   18 0.813    H   17 0.281    O    3 0.072
    17  H   0.842    O    3 0.543    O   16 0.281
    18  H   0.881    O   16 0.813    O   10 0.066
    19  H   0.879    O   16 0.813    O   13 0.063
 MOs/occ written to file <molden.input>
 
molecular dipole:
                 x           y           z       tot (Debye)
 q only:       -0.141       0.630       0.223
   full:       -0.166       0.614      -0.191       1.688
molecular quadrupole (traceless):
                xx          xy          yy          xz          yz          zz
 q only:        2.740       0.204       1.706      -2.077      -1.575      -4.446
  q+dip:        2.595      -0.393       3.834      -5.122      -3.239      -6.429
   full:        2.720      -0.327       3.620      -4.789      -3.031      -6.340

SCC energy    :     -41.1276867
rep           :       0.2051460
ES            :       0.1848822
AES           :      -0.0458833
AXC           :      -0.0107366
disp          :      -0.0135638
XB            :       0.0000000
fix           :       0.0000000
total E       :     -40.9224692
atomizationE  :       3.7166564     2332.24
(atE without considering molecular charge,
 total energy contains solvation terms)
H-L gap (eV)  :          9.1830
optimized geometry written to: xtbopt.xyz


------------------------------------------------------------------------
 * finished run on 2019/09/03 at 08:18:41.172     
------------------------------------------------------------------------
 total:
 * wall-time:     0 d,  0 h,  0 min,  3.004 sec
 *  cpu-time:     0 d,  0 h,  0 min,  1.824 sec
 * ratio c/w:     0.607 speedup
 SCF:
 * wall-time:     0 d,  0 h,  0 min,  0.111 sec
 *  cpu-time:     0 d,  0 h,  0 min,  0.107 sec
 * ratio c/w:     0.966 speedup
 ANC optimizer:
 * wall-time:     0 d,  0 h,  0 min,  1.716 sec
 *  cpu-time:     0 d,  0 h,  0 min,  1.696 sec
 * ratio c/w:     0.988 speedup

