      -----------------------------------------------------------      
     |                   =====================                   |     
     |                           x T B                           |     
     |                   =====================                   |     
     |                         S. Grimme                         |     
     |          Mulliken Center for Theoretical Chemistry        |     
     |                    University of Bonn                     |     
     |                 Version 6.0.1 (SAW181210)                 |     
      -----------------------------------------------------------      

   This program is distributed in the hope that it will be useful,
   but WITHOUT ANY WARRANTY; without even the implied warranty of
   MERCHANTABILITY or FITNESS FOR A PARTICULAR PURPOSE.
   
   FOR NON-COMMERCIAL, ACADEMIA USE ONLY.
   
   Cite this work as:
   S. Grimme, C. Bannwarth, P. Shushkov, J. Comput. Theory Chem., 2017,
   13, 1989-2009.
   C. Bannwarth, S. Ehlert and S. Grimme., ChemRxiv, 2018, preprint.
   http://doi.org/10.26434/chemrxiv.7246238.v1
   
   for sTDA-xTB:
   S. Grimme and C. Bannwarth, J. Chem. Phys., 2016, 145, 054103.
   
   in the mass-spec context:
   V. Asgeirsson, C. Bauer and S. Grimme, Chem. Sci., 2017, 8, 4879.
   
   if GBSA is used:
   P. Shushkov, F. März and S. Grimme, unpublished.
   
   for ANC optimizer:
   S. Grimme, unpublished.
   Rational Function algorithm used in ANCopt:
   F. Eckert, P. Pulay, H.-J. Werner, J. Comput. Chem., 1997, 18, 1473.
   
   with help from (in alphabetical order)
   C. Bannwarth, F. Bohle, G. Brandenburg, E. Caldeweyher, M. Checinski,
   S. Dohm, S. Ehlert, S. Ehrlich, F. März, H. Neugebauer, J. Pisarek,
   P. Pracht, P. Shushkov, and S. Spicher.
   
 * started run on 2019/09/03 at 08:37:41.278     
========================================================================
 # omp threads = 1
========================================================================
number of atoms            : 19
number of electrons        : 64
charge                     : 0
spin                       : .0
first test random number   : .9588

########################################################################
# WARNING! Please study the warnings concerning your input carefully
#  - XTBPATH is not set, using XTBHOME instead
#  - the use of '-opt' is discouraged, please use '--opt' next time
#  - the use of '-chrg' is discouraged, please use '--chrg' next time
#  - the use of '-uhf' is discouraged, please use '--uhf' next time
########################################################################

           ------------------------------------------------- 
          |                 G F N 2 - x T B                 |
          | Geometry, Frequencies, Noncovalent interactions |
          |            JCTC 2018 parametrisation            |
           ------------------------------------------------- 
      method parameters     
 k(s)        :  1.8500
 k(p)        :  2.2300
 k(d)        :  2.2300
 k(f)        :  2.0000
 kEN (H0ij)  : -2.0000
 D4 a1       :  0.5200
 D4 a2       :  5.0000
 D4 s6       :  1.0000
 D4 s8       :  2.7000
 D4 s9       :  5.0000
 alphaj      :  2.0000


            Z     q(EN)     CN     RAES       Cart. coordinates
     1  S   6.0    0.64    4.31    4.25    -3.47990    -0.54223    -1.01141
     2  O   6.0   -0.32    1.23    1.80    -1.04066    -1.67078    -0.17201
     3  O   6.0   -0.29    1.15    1.80    -5.18517    -0.23549     1.20807
     4  O   6.0   -0.29    1.16    1.80    -2.99729     1.97407    -2.17906
     5  O   6.0   -0.24    2.08    1.84    -4.67982    -2.21353    -2.87674
     6  H   1.0    0.15    1.21    1.47    -4.99113    -3.83507    -2.12520
     7  O   6.0   -0.28    1.99    1.83     5.90956    -1.64688    -3.45836
     8  H   1.0    0.15    0.97    1.43     7.38889    -2.05515    -4.43790
     9  H   1.0    0.15    0.97    1.43     4.82904    -0.71067    -4.58556
    10  O   6.0   -0.26    1.96    1.82     3.84322    -2.46805     1.12492
    11  H   1.0    0.17    1.03    1.43     4.80160    -2.25546    -0.40835
    12  H   1.0    0.17    1.03    1.43     2.10478    -2.57598     0.59500
    13  O   6.0   -0.28    2.04    1.83     1.16848     1.60787     3.33087
    14  H   1.0    0.17    1.03    1.43     0.64861     0.23619     2.25253
    15  H   1.0    0.16    0.97    1.43     2.86941     1.20317     3.83849
    16  O   6.0   -0.21    2.92    2.59    -2.88023     4.15703     2.39342
    17  H   1.0    0.14    1.01    1.43    -2.81469     4.42280     0.54547
    18  H   1.0    0.14    1.00    1.43    -4.26300     3.00156     2.88621
    19  H   1.0    0.14    1.05    1.44    -1.23169     3.60662     3.07960

  Z AO/shell   Hii/eV     exponent
  1     Wed Apr 25 08:07:45 CEST 2018   EN: 2.200 GM2: 0.406  GM3: 0.0800  RAES: 1.40
     1s    -10.707211    1.230000
  8     Wed Apr 25 08:07:45 CEST 2018   EN: 3.440 GM2: 0.452  GM3:-0.0517  RAES: 1.80
     2s    -20.229985    2.439742
     2p    -15.503117    2.137023
 16     Tue Apr 24 11:44:34 CEST 2018   EN: 2.580 GM2: 0.340  GM3:-0.0502  RAES: 3.10
     3s    -20.029654    1.981333
     3p    -11.377694    2.025643
     3d     -0.420282    1.702555
 no old-style atom pair restraining (fixing) potential

molecular fragmentation (1/2 indicates fragments):
1111112222222222222
# atoms in fragment 1/2:     6    13
 fragment masses (1/2) :       97.07       73.07
CMA distance (Bohr)    :   5.831
constraining FC (au)   :  0.0500
           ------------------------------------------------- 
          |        Self-Consistent Charge Iterations        |
           ------------------------------------------------- 

 Ncao       : 52
 Nao        : 51
 Nshell     : 29
 Nel        : 64
 T(el)      :   300.0
 intcut     :    25.0
 scfconv/Eh :  0.100E-05
   qconv/e  :  0.100E-03
 intneglect :  0.100E-07
 broydamp   :      0.250
 iter      E             dE          RMSdq      gap      omega  full diag
   1    -40.9863538 -0.409864E+02  0.771E+00   10.52       0.0  T
   2    -41.0287052 -0.423514E-01  0.556E+00   10.01       1.0  T
   3    -41.0613809 -0.326757E-01  0.147E+00    7.86       1.0  T
   4    -41.0657367 -0.435587E-02  0.615E-01    8.18       1.0  T
   5    -41.0663796 -0.642911E-03  0.326E-01    8.18       1.0  T
   6    -41.0667143 -0.334712E-03  0.147E-01    8.27       1.0  T
   7    -41.0668007 -0.863358E-04  0.528E-02    8.28       1.0  T
   8    -41.0668105 -0.979578E-05  0.315E-02    8.28       1.0  T
   9    -41.0668151 -0.462517E-05  0.885E-03    8.30       2.6  T
  10    -41.0668154 -0.294523E-06  0.233E-03    8.30       9.9  T
  11    -41.0668154 -0.151082E-07  0.102E-03    8.29      22.5  T
  12    -41.0668154 -0.347042E-08  0.467E-04    8.30      49.1  T
  13    -41.0668154 -0.797407E-09  0.115E-04    8.30     199.0  T
speedup  1.06
cpu  time for SCC    0.01 s
wall time for SCC    0.01 s

   *** convergence criteria satisfied after 13 iterations ***

          eigenvalues
 #    :          20         21         22         23         24         25         26         27
 occ. :        2.000      2.000      2.000      2.000      2.000      2.000      2.000      2.000
 eps  :       -13.397    -12.935    -12.690    -12.467    -12.138    -11.997    -11.806    -11.516
 #    :          28         29         30         31         32         33         34         35
 occ. :        2.000      2.000      2.000      2.000      2.000      0.000      0.000      0.000
 eps  :       -11.438    -10.986    -10.910    -10.699    -10.455     -2.160     -1.053     -0.019
 #    :          36         37         38         39         40         41         42         43
 occ. :        0.000      0.000      0.000      0.000      0.000      0.000      0.000      0.000
 eps  :         1.170      1.324      1.606      2.670      3.930      4.914      5.843      6.290


   #   Z            q   n(s)   n(p)   n(d)      C6AA      α(0)
   1  16 S      1.558  1.588  1.864  0.990    92.071    16.150
   2   8 O     -0.764  1.778  4.986  0.000    30.511     7.406
   3   8 O     -0.770  1.778  4.992  0.000    30.694     7.428
   4   8 O     -0.740  1.770  4.970  0.000    29.834     7.323
   5   8 O     -0.535  1.715  4.821  0.000    23.662     6.567
   6   1 H      0.360  0.640  0.000  0.000     0.556     1.167
   7   8 O     -0.565  1.738  4.827  0.000    24.355     6.661
   8   1 H      0.288  0.712  0.000  0.000     0.757     1.367
   9   1 H      0.296  0.704  0.000  0.000     0.732     1.344
  10   8 O     -0.636  1.746  4.890  0.000    26.073     6.892
  11   1 H      0.303  0.697  0.000  0.000     0.712     1.326
  12   1 H      0.304  0.696  0.000  0.000     0.710     1.323
  13   8 O     -0.634  1.724  4.910  0.000    26.012     6.884
  14   1 H      0.339  0.661  0.000  0.000     0.616     1.232
  15   1 H      0.316  0.684  0.000  0.000     0.674     1.289
  16   8 O     -0.387  1.625  4.762  0.000    20.536     6.120
  17   1 H      0.418  0.582  0.000  0.000     0.452     1.057
  18   1 H      0.418  0.582  0.000  0.000     0.453     1.057
  19   1 H      0.431  0.569  0.000  0.000     0.432     1.033

 Mol. C6AA /au·bohr⁶  :       3379.628516
 Mol. C8AA /au·bohr⁸  :      76762.504241
 Mol. α(0) /au        :         83.625316

 
 Wiberg/Mayer (AO) data. WBOs > 0.1 written file <wbo>
 largest (>0.05) Wiberg bond orders for each atom
           total WBO             WBO to atom ...
     1  S   4.951    O    4 1.334    O    3 1.300    O    2 1.284    O    5 1.003
     2  O   1.671    S    1 1.284    O    4 0.112    O    3 0.112    O    5 0.073
     3  O   1.657    S    1 1.300    O    4 0.116    O    2 0.112    O    5 0.073
     4  O   1.692    S    1 1.334    O    3 0.116    O    2 0.112    O    5 0.054
     5  O   2.055    S    1 1.003    H    6 0.846    O    3 0.073    O    2 0.073    O    4 0.054
     6  H   0.870    O    5 0.846
     7  O   1.863    H    8 0.909    H    9 0.909
     8  H   0.917    O    7 0.909
     9  H   0.912    O    7 0.909
    10  O   1.808    H   11 0.873    H   12 0.872
    11  H   0.908    O   10 0.873
    12  H   0.908    O   10 0.872
    13  O   1.854    H   15 0.882    H   14 0.838    H   19 0.081
    14  H   0.885    O   13 0.838
    15  H   0.900    O   13 0.882
    16  O   2.358    H   18 0.785    H   17 0.778    H   19 0.727
    17  H   0.825    O   16 0.778
    18  H   0.825    O   16 0.785
    19  H   0.815    O   16 0.727    O   13 0.081
 MOs/occ written to file <molden.input>
 
molecular dipole:
                 x           y           z       tot (Debye)
 q only:        0.177       1.679       0.370
   full:        0.057       0.960      -0.546       2.811
molecular quadrupole (traceless):
                xx          xy          yy          xz          yz          zz
 q only:       -5.347      -0.421       5.553     -13.107      14.010      -0.206
  q+dip:       -2.865       4.006       2.419     -14.232      13.842       0.446
   full:       -2.633       4.114       2.185     -14.028      13.963       0.448

SCC energy    :     -41.0668154
rep           :       0.2164268
ES            :       0.2542757
AES           :      -0.0513234
AXC           :      -0.0106279
disp          :      -0.0115475
XB            :       0.0000000
fix           :       0.0000000
total E       :     -40.8502855
atomizationE  :       3.6444727     2286.94
(atE without considering molecular charge,
 total energy contains solvation terms)
H-L gap (eV)  :          8.2955
           ------------------------------------------------- 
          |                 ===============                 |
          |                   A N C O P T                   |
          |                 ===============                 |
          |          Approximate Normal Coordinate          |
          |           Rational Function Optimizer           |
           ------------------------------------------------- 
dumping coords to <xtbopt.coord> and <xtbopt.log>
 optlevel               2
 Maxcycle             380
 Maxmicro              25
 Econv         1.000000000000000E-007
 Gconv         2.000000000000000E-004
 Maxdispl       1.00000000000000     
 Hlow          5.000000000000000E-003
 S6             20.0000000000000     
 Nvar               51

generating ANC from model Hessian ...
 Shifting diagonal of input Hessian by   7.943074380950316E-003
 Lowest  eigenvalues of input Hessian
    0.005000    0.007771    0.007879   -0.000000   -0.000000   -0.000000
   -0.000000    0.000000    0.000000    0.008013    0.008166    0.008398
    0.008776    0.009096    0.010040    0.010712    0.010976    0.012471
 Highest eigenvalues
    1.453646    1.545261    1.556373    3.138468    3.209641    3.311060
 
cpu  time for ANC gen    0.00 s
wall time for ANC gen    0.00 s
................................................................................
.............................. CYCLE    1 ......................................
................................................................................
   1    -41.0668154 -0.410668E+02  0.825E-05    8.30       0.0  T
   2    -41.0668154 -0.942180E-11  0.638E-05    8.30     359.7  T
   3    -41.0668154 -0.113261E-10  0.269E-05    8.30     851.9  T
speedup  1.00
cpu  time for SCC    0.00 s
wall time for SCC    0.00 s
speedup  0.97
cpu  time for grad    0.01 s
wall time for grad    0.01 s
 E :    -40.85028546  G :  0.155241    pred/act E change:  0.000D+00  0.310D-07
Maxdispl :   0.2762   ||displ|| :   0.4720   Lambda : -0.231D-01
Largest |displ|/coords:  0.2762 (  17)  0.2219 (  20)  0.1728 (  18)
................................................................................
.............................. CYCLE    2 ......................................
................................................................................
   1    -41.0819184 -0.410819E+02  0.378E-01    8.49       0.0  T
   2    -41.0820255 -0.107035E-03  0.283E-01    8.52       1.0  T
   3    -41.0820719 -0.464316E-04  0.924E-02    8.57       1.0  T
   4    -41.0820824 -0.105289E-04  0.184E-02    8.55       1.2  T
   5    -41.0820832 -0.763783E-06  0.698E-03    8.55       3.3  T
   6    -41.0820833 -0.797802E-07  0.417E-03    8.55       5.5  T
   7    -41.0820833 -0.592730E-07  0.216E-03    8.55      10.6  T
speedup  0.91
cpu  time for SCC    0.00 s
wall time for SCC    0.00 s
speedup  0.96
cpu  time for grad    0.01 s
wall time for grad    0.01 s
 E :    -40.87057246  G :  0.102593    pred/act E change:  0.000D+00 -0.203D-01
Maxdispl :   0.3029   ||displ|| :   0.5153   Lambda : -0.171D-01
Largest |displ|/coords:  0.3029 (  17)  0.2450 (  20)  0.2113 (  18)
................................................................................
.............................. CYCLE    3 ......................................
................................................................................
   1    -41.0900167 -0.410900E+02  0.405E-01    8.45       0.0  T
   2    -41.0903108 -0.294116E-03  0.296E-01    8.44       1.0  T
   3    -41.0904435 -0.132644E-03  0.115E-01    8.42       1.0  T
   4    -41.0904587 -0.151840E-04  0.210E-02    8.40       1.1  T
   5    -41.0904595 -0.798781E-06  0.994E-03    8.40       2.3  T
   6    -41.0904596 -0.189800E-06  0.547E-03    8.40       4.2  T
   7    -41.0904598 -0.106663E-06  0.280E-03    8.40       8.2  T
speedup  0.95
cpu  time for SCC    0.00 s
wall time for SCC    0.00 s
speedup  0.99
cpu  time for grad    0.01 s
wall time for grad    0.01 s
 E :    -40.88388675  G :  0.060023    pred/act E change: -0.141D-01 -0.133D-01
Maxdispl :   0.2405   ||displ|| :   0.3818   Lambda : -0.634D-02
Largest |displ|/coords:  0.2405 (  17)  0.1411 (  20)  0.1281 (  18)
................................................................................
.............................. CYCLE    4 ......................................
................................................................................
   1    -41.0900227 -0.410900E+02  0.356E-01    8.27       0.0  T
   2    -41.0903493 -0.326529E-03  0.253E-01    8.25       1.0  T
   3    -41.0904921 -0.142830E-03  0.107E-01    8.21       1.0  T
   4    -41.0905025 -0.104493E-04  0.196E-02    8.19       1.2  T
   5    -41.0905032 -0.642469E-06  0.927E-03    8.19       2.5  T
   6    -41.0905033 -0.152028E-06  0.480E-03    8.19       4.8  T
   7    -41.0905034 -0.777238E-07  0.250E-03    8.19       9.2  T
speedup  0.93
cpu  time for SCC    0.00 s
wall time for SCC    0.00 s
speedup  0.98
cpu  time for grad    0.01 s
wall time for grad    0.01 s
 E :    -40.88739099  G :  0.037652    pred/act E change: -0.108D-01 -0.350D-02
Maxdispl :   0.1642   ||displ|| :   0.2669   Lambda : -0.235D-02
Largest |displ|/coords:  0.1642 (  11)  0.0797 (  10)  0.0618 (   9)
................................................................................
.............................. CYCLE    5 ......................................
................................................................................
   1    -41.0906979 -0.410907E+02  0.196E-01    8.17       0.0  T
   2    -41.0907373 -0.394288E-04  0.145E-01    8.18       1.0  T
   3    -41.0907495 -0.122302E-04  0.468E-02    8.22       1.0  T
   4    -41.0907529 -0.337886E-05  0.123E-02    8.21       1.9  T
   5    -41.0907532 -0.256034E-06  0.300E-03    8.21       7.6  T
   6    -41.0907532 -0.984063E-08  0.133E-03    8.21      17.2  T
speedup  0.81
cpu  time for SCC    0.00 s
wall time for SCC    0.00 s
speedup  0.93
cpu  time for grad    0.01 s
wall time for grad    0.01 s
 E :    -40.88868427  G :  0.023923    pred/act E change: -0.363D-02 -0.129D-02
Maxdispl :   0.2722   ||displ|| :   0.3836   Lambda : -0.192D-02
Largest |displ|/coords:  0.2722 (  11)  0.1374 (  12)  0.1141 (  10)
................................................................................
.............................. CYCLE    6 ......................................
................................................................................
   1    -41.0921046 -0.410921E+02  0.268E-01    8.11       0.0  T
   2    -41.0921446 -0.400118E-04  0.201E-01    8.13       1.0  T
   3    -41.0921585 -0.138822E-04  0.552E-02    8.17       1.0  T
   4    -41.0921639 -0.545898E-05  0.123E-02    8.17       1.9  T
   5    -41.0921641 -0.209940E-06  0.404E-03    8.17       5.7  T
   6    -41.0921641 -0.130484E-07  0.172E-03    8.17      13.3  T
speedup  1.08
cpu  time for SCC    0.00 s
wall time for SCC    0.00 s
speedup  1.05
cpu  time for grad    0.01 s
wall time for grad    0.01 s
 E :    -40.88975098  G :  0.016707    pred/act E change: -0.126D-02 -0.107D-02
Maxdispl :   0.1245   ||displ|| :   0.2848   Lambda : -0.862D-03
Largest |displ|/coords:  0.1245 (  10)  0.1216 (   1)  0.1066 (  11)
................................................................................
.............................. CYCLE    7 ......................................
................................................................................
   1    -41.0941468 -0.410941E+02  0.253E-01    8.11       0.0  T
   2    -41.0941604 -0.136050E-04  0.191E-01    8.13       1.0  T
   3    -41.0941681 -0.765263E-05  0.242E-02    8.16       1.0  T
   4    -41.0941705 -0.238182E-05  0.100E-02    8.15       2.3  T
   5    -41.0941706 -0.127991E-06  0.256E-03    8.15       9.0  T
   6    -41.0941706 -0.320621E-08  0.137E-03    8.15      16.7  T
speedup  1.05
cpu  time for SCC    0.00 s
wall time for SCC    0.00 s
speedup  1.03
cpu  time for grad    0.01 s
wall time for grad    0.01 s
 E :    -40.89007371  G :  0.019231    pred/act E change: -0.110D-02 -0.323D-03
Maxdispl :   0.1273   ||displ|| :   0.2991   Lambda : -0.100D-02
Largest |displ|/coords:  0.1273 (   8)  0.1230 (  11)  0.1179 (  15)
................................................................................
.............................. CYCLE    8 ......................................
................................................................................
   1    -41.0923683 -0.410924E+02  0.317E-01    8.20       0.0  T
   2    -41.0923869 -0.185285E-04  0.241E-01    8.20       1.0  T
   3    -41.0924032 -0.162805E-04  0.282E-02    8.21       1.0  T
   4    -41.0924053 -0.211836E-05  0.118E-02    8.21       1.9  T
   5    -41.0924054 -0.137892E-06  0.274E-03    8.21       8.4  T
   6    -41.0924054 -0.424582E-08  0.167E-03    8.21      13.8  T
speedup  1.08
cpu  time for SCC    0.00 s
wall time for SCC    0.00 s
speedup  0.93
cpu  time for grad    0.01 s
wall time for grad    0.01 s
 E :    -40.89032203  G :  0.023799    pred/act E change: -0.466D-03 -0.248D-03
Maxdispl :   0.1882   ||displ|| :   0.2624   Lambda : -0.118D-02
Largest |displ|/coords:  0.1882 (   1)  0.1004 (  10)  0.0950 (   3)
................................................................................
.............................. CYCLE    9 ......................................
................................................................................
   1    -41.0963975 -0.410964E+02  0.211E-01    8.29       0.0  T
   2    -41.0964200 -0.224977E-04  0.158E-01    8.29       1.0  T
   3    -41.0964330 -0.130074E-04  0.330E-02    8.29       1.0  T
   4    -41.0964358 -0.283187E-05  0.960E-03    8.29       2.4  T
   5    -41.0964360 -0.205259E-06  0.319E-03    8.29       7.2  T
   6    -41.0964360 -0.357225E-08  0.180E-03    8.29      12.8  T
speedup  1.11
cpu  time for SCC    0.00 s
wall time for SCC    0.00 s
speedup  1.06
cpu  time for grad    0.01 s
wall time for grad    0.01 s
 E :    -40.89071065  G :  0.016539    pred/act E change: -0.547D-03 -0.389D-03
Maxdispl :   0.0796   ||displ|| :   0.2018   Lambda : -0.829D-03
Largest |displ|/coords:  0.0796 (   8)  0.0695 (  10)  0.0663 (   3)
................................................................................
.............................. CYCLE   10 ......................................
................................................................................
   1    -41.0950477 -0.410950E+02  0.187E-01    8.28       0.0  T
   2    -41.0950534 -0.574285E-05  0.141E-01    8.28       1.0  T
   3    -41.0950580 -0.462803E-05  0.163E-02    8.30       1.4  T
   4    -41.0950588 -0.755170E-06  0.523E-03    8.30       4.4  T
   5    -41.0950588 -0.283481E-07  0.192E-03    8.30      12.0  T
   6    -41.0950588 -0.197488E-08  0.105E-03    8.30      21.9  T
speedup  1.08
cpu  time for SCC    0.00 s
wall time for SCC    0.00 s
speedup  1.05
cpu  time for grad    0.01 s
wall time for grad    0.01 s
 E :    -40.89116704  G :  0.013130    pred/act E change: -0.630D-03 -0.456D-03
Maxdispl :   0.1372   ||displ|| :   0.3427   Lambda : -0.792D-03
Largest |displ|/coords:  0.1372 (   3)  0.1190 (   2)  0.1188 (   1)
................................................................................
.............................. CYCLE   11 ......................................
................................................................................
   1    -41.0912780 -0.410913E+02  0.276E-01    8.30       0.0  T
   2    -41.0912933 -0.153331E-04  0.208E-01    8.30       1.0  T
   3    -41.0913044 -0.111124E-04  0.274E-02    8.30       1.0  T
   4    -41.0913067 -0.223940E-05  0.904E-03    8.31       2.5  T
   5    -41.0913068 -0.116425E-06  0.324E-03    8.31       7.1  T
   6    -41.0913068 -0.468557E-08  0.181E-03    8.31      12.7  T
   7    -41.0913068 -0.482636E-08  0.399E-04    8.31      57.5  T
speedup  0.93
cpu  time for SCC    0.00 s
wall time for SCC    0.00 s
speedup  0.98
cpu  time for grad    0.01 s
wall time for grad    0.01 s
 E :    -40.89153938  G :  0.017322    pred/act E change: -0.431D-03 -0.372D-03
Maxdispl :   0.2054   ||displ|| :   0.4055   Lambda : -0.101D-02
Largest |displ|/coords:  0.2054 (   3)  0.1453 (   7)  0.1391 (   2)
................................................................................
.............................. CYCLE   12 ......................................
................................................................................
   1    -41.0954951 -0.410955E+02  0.302E-01    8.38       0.0  T
   2    -41.0955223 -0.271379E-04  0.228E-01    8.38       1.0  T
   3    -41.0955379 -0.156865E-04  0.368E-02    8.37       1.0  T
   4    -41.0955422 -0.429669E-05  0.122E-02    8.38       1.9  T
   5    -41.0955425 -0.265254E-06  0.340E-03    8.38       6.7  T
   6    -41.0955425 -0.296897E-08  0.197E-03    8.38      11.6  T
   7    -41.0955425 -0.342242E-08  0.472E-04    8.38      48.6  T
speedup  0.93
cpu  time for SCC    0.00 s
wall time for SCC    0.00 s
speedup  0.96
cpu  time for grad    0.01 s
wall time for grad    0.01 s
 E :    -40.89195634  G :  0.019661    pred/act E change: -0.443D-03 -0.417D-03
Maxdispl :   0.2157   ||displ|| :   0.4597   Lambda : -0.139D-02
Largest |displ|/coords:  0.2157 (   3)  0.1882 (  14)  0.1658 (   2)
................................................................................
.............................. CYCLE   13 ......................................
................................................................................
   1    -41.0912723 -0.410913E+02  0.409E-01    8.44       0.0  T
   2    -41.0913156 -0.433392E-04  0.312E-01    8.47       1.0  T
   3    -41.0913437 -0.281363E-04  0.407E-02    8.55       1.0  T
   4    -41.0913508 -0.702862E-05  0.145E-02    8.53       1.6  T
   5    -41.0913512 -0.404429E-06  0.405E-03    8.52       5.7  T
   6    -41.0913512 -0.711152E-08  0.249E-03    8.52       9.2  T
   7    -41.0913512 -0.559680E-08  0.492E-04    8.52      46.6  T
speedup  0.93
cpu  time for SCC    0.00 s
wall time for SCC    0.00 s
speedup  0.97
cpu  time for grad    0.01 s
wall time for grad    0.01 s
 E :    -40.89224859  G :  0.028857    pred/act E change: -0.585D-03 -0.292D-03
Maxdispl :   0.1006   ||displ|| :   0.2002   Lambda : -0.166D-02
Largest |displ|/coords:  0.1006 (  12)  0.0737 (  21)  0.0604 (   4)
................................................................................
.............................. CYCLE   14 ......................................
................................................................................
   1    -41.1004548 -0.411005E+02  0.232E-01    8.79       0.0  T
   2    -41.1004755 -0.206981E-04  0.173E-01    8.77       1.0  T
   3    -41.1004881 -0.126567E-04  0.337E-02    8.72       1.0  T
   4    -41.1004908 -0.261686E-05  0.986E-03    8.73       2.3  T
   5    -41.1004909 -0.127112E-06  0.324E-03    8.74       7.1  T
   6    -41.1004909 -0.716756E-08  0.177E-03    8.74      12.9  T
speedup  1.05
cpu  time for SCC    0.00 s
wall time for SCC    0.00 s
speedup  1.03
cpu  time for grad    0.01 s
wall time for grad    0.01 s
 E :    -40.89285535  G :  0.017344    pred/act E change: -0.839D-03 -0.607D-03
Maxdispl :   0.1821   ||displ|| :   0.4389   Lambda : -0.175D-02
Largest |displ|/coords:  0.1821 (  10)  0.1654 (   8)  0.1425 (  13)
................................................................................
.............................. CYCLE   15 ......................................
................................................................................
   1    -41.0937807 -0.410938E+02  0.418E-01    8.48       0.0  T
   2    -41.0938234 -0.427277E-04  0.311E-01    8.48       1.0  T
   3    -41.0938454 -0.219628E-04  0.498E-02    8.48       1.0  T
   4    -41.0938521 -0.670565E-05  0.104E-02    8.48       2.2  T
   5    -41.0938522 -0.117830E-06  0.496E-03    8.48       4.6  T
   6    -41.0938522 -0.224058E-07  0.227E-03    8.48      10.1  T
   7    -41.0938522 -0.606450E-08  0.806E-04    8.48      28.5  T
speedup  0.93
cpu  time for SCC    0.00 s
wall time for SCC    0.00 s
speedup  0.97
cpu  time for grad    0.01 s
wall time for grad    0.01 s
 E :    -40.89276913  G :  0.033153    pred/act E change: -0.863D-03  0.862D-04
Maxdispl :   0.1201   ||displ|| :   0.2360   Lambda : -0.226D-02
Largest |displ|/coords:  0.1201 (   3)  0.1031 (  14)  0.1029 (   2)
................................................................................
.............................. CYCLE   16 ......................................
................................................................................
   1    -41.0975096 -0.410975E+02  0.225E-01    8.54       0.0  T
   2    -41.0975267 -0.171162E-04  0.170E-01    8.54       1.0  T
   3    -41.0975358 -0.911367E-05  0.329E-02    8.54       1.0  T
   4    -41.0975384 -0.257325E-05  0.965E-03    8.54       2.4  T
   5    -41.0975385 -0.130621E-06  0.255E-03    8.54       9.0  T
   6    -41.0975385 -0.290371E-08  0.147E-03    8.54      15.6  T
speedup  0.83
cpu  time for SCC    0.00 s
wall time for SCC    0.00 s
speedup  0.93
cpu  time for grad    0.01 s
wall time for grad    0.01 s
 E :    -40.89401857  G :  0.017298    pred/act E change: -0.104D-02 -0.125D-02
Maxdispl :   0.2145   ||displ|| :   0.4421   Lambda : -0.119D-02
Largest |displ|/coords:  0.2145 (   3)  0.1773 (   8)  0.1452 (   4)
................................................................................
.............................. CYCLE   17 ......................................
................................................................................
   1    -41.0993534 -0.410994E+02  0.299E-01    8.71       0.0  T
   2    -41.0994497 -0.963054E-04  0.227E-01    8.70       1.0  T
   3    -41.0994859 -0.362821E-04  0.638E-02    8.69       1.0  T
   4    -41.0994987 -0.127703E-04  0.222E-02    8.69       1.0  T
   5    -41.0994996 -0.872225E-06  0.562E-03    8.69       4.1  T
   6    -41.0994996 -0.254457E-07  0.299E-03    8.69       7.7  T
   7    -41.0994996 -0.849415E-08  0.895E-04    8.69      25.6  T
speedup  0.89
cpu  time for SCC    0.00 s
wall time for SCC    0.00 s
speedup  0.95
cpu  time for grad    0.01 s
wall time for grad    0.01 s
 E :    -40.89488804  G :  0.021152    pred/act E change: -0.119D-02 -0.869D-03
Maxdispl :   0.3037   ||displ|| :   0.6275   Lambda : -0.200D-02
Largest |displ|/coords:  0.3037 (   3)  0.2432 (  20)  0.2422 (   4)
................................................................................
.............................. CYCLE   18 ......................................
................................................................................
   1    -41.1075660 -0.411076E+02  0.476E-01    8.72       0.0  T
   2    -41.1079297 -0.363716E-03  0.355E-01    8.68       1.0  T
   3    -41.1080803 -0.150663E-03  0.121E-01    8.60       1.0  T
   4    -41.1081120 -0.316311E-04  0.390E-02    8.60       1.0  T
   5    -41.1081140 -0.197240E-05  0.105E-02    8.60       2.2  T
   6    -41.1081140 -0.811355E-07  0.550E-03    8.60       4.2  T
   7    -41.1081141 -0.312284E-07  0.148E-03    8.60      15.5  T
speedup  1.16
cpu  time for SCC    0.01 s
wall time for SCC    0.00 s
speedup  1.08
cpu  time for grad    0.01 s
wall time for grad    0.01 s
 E :    -40.89642082  G :  0.023457    pred/act E change: -0.709D-03 -0.153D-02
Maxdispl :   0.3081   ||displ|| :   0.6660   Lambda : -0.291D-02
Largest |displ|/coords:  0.3081 (   4)  0.2959 (   3)  0.2820 (  20)
................................................................................
.............................. CYCLE   19 ......................................
................................................................................
   1    -41.1128879 -0.411129E+02  0.524E-01    8.38       0.0  T
   2    -41.1131247 -0.236724E-03  0.388E-01    8.33       1.0  T
   3    -41.1132300 -0.105370E-03  0.103E-01    8.23       1.0  T
   4    -41.1132563 -0.262956E-04  0.293E-02    8.24       1.0  T
   5    -41.1132574 -0.109705E-05  0.891E-03    8.24       2.6  T
   6    -41.1132575 -0.581761E-07  0.495E-03    8.24       4.6  T
   7    -41.1132575 -0.256770E-07  0.139E-03    8.24      16.5  T
speedup  1.16
cpu  time for SCC    0.01 s
wall time for SCC    0.00 s
speedup  1.08
cpu  time for grad    0.01 s
wall time for grad    0.01 s
 E :    -40.89863255  G :  0.023999    pred/act E change: -0.139D-02 -0.221D-02
Maxdispl :   0.2295   ||displ|| :   0.5120   Lambda : -0.421D-02
Largest |displ|/coords:  0.2295 (  17)  0.2082 (   1)  0.2021 (   4)
................................................................................
.............................. CYCLE   20 ......................................
................................................................................
   1    -41.1183639 -0.411184E+02  0.430E-01    8.16       0.0  T
   2    -41.1185637 -0.199810E-03  0.307E-01    8.15       1.0  T
   3    -41.1186448 -0.810166E-04  0.108E-01    8.14       1.0  T
   4    -41.1186575 -0.127424E-04  0.362E-02    8.15       1.0  T
   5    -41.1186588 -0.127802E-05  0.775E-03    8.16       3.0  T
   6    -41.1186589 -0.870755E-07  0.472E-03    8.16       4.9  T
   7    -41.1186589 -0.393648E-07  0.168E-03    8.15      13.6  T
speedup  1.16
cpu  time for SCC    0.00 s
wall time for SCC    0.00 s
speedup  1.07
cpu  time for grad    0.01 s
wall time for grad    0.01 s
 E :    -40.89682063  G :  0.060995    pred/act E change: -0.210D-02  0.181D-02
Maxdispl :   0.2035   ||displ|| :   0.4301   Lambda : -0.129D-01
Largest |displ|/coords:  0.2035 (  17)  0.1853 (  18)  0.1520 (  14)
................................................................................
.............................. CYCLE   21 ......................................
................................................................................
   1    -41.0967812 -0.410968E+02  0.500E-01    7.63       0.0  T
   2    -41.0972371 -0.455878E-03  0.372E-01    7.62       1.0  T
   3    -41.0974560 -0.218837E-03  0.156E-01    7.59       1.0  T
   4    -41.0974837 -0.277316E-04  0.526E-02    7.58       1.0  T
   5    -41.0974876 -0.389598E-05  0.143E-02    7.57       1.6  T
   6    -41.0974877 -0.167373E-06  0.720E-03    7.57       3.2  T
   7    -41.0974878 -0.657183E-07  0.239E-03    7.57       9.6  T
   8    -41.0974878 -0.119641E-07  0.105E-03    7.57      21.9  T
speedup  1.02
cpu  time for SCC    0.00 s
wall time for SCC    0.00 s
speedup  1.01
cpu  time for grad    0.01 s
wall time for grad    0.01 s
 E :    -40.89600153  G :  0.077270    pred/act E change: -0.265D-02  0.819D-03
Maxdispl :   0.1510   ||displ|| :   0.3867   Lambda : -0.178D-01
Largest |displ|/coords:  0.1510 (   9)  0.1402 (  17)  0.1203 (   6)
................................................................................
.............................. CYCLE   22 ......................................
................................................................................
   1    -41.1248101 -0.411248E+02  0.562E-01    8.25       0.0  T
   2    -41.1252238 -0.413678E-03  0.415E-01    8.26       1.0  T
   3    -41.1254458 -0.222040E-03  0.134E-01    8.28       1.0  T
   4    -41.1254777 -0.318565E-04  0.445E-02    8.29       1.0  T
   5    -41.1254807 -0.297957E-05  0.127E-02    8.29       1.8  T
   6    -41.1254808 -0.125993E-06  0.741E-03    8.29       3.1  T
   7    -41.1254809 -0.584743E-07  0.189E-03    8.29      12.1  T
   8    -41.1254809 -0.927448E-08  0.721E-04    8.29      31.8  T
speedup  0.96
cpu  time for SCC    0.00 s
wall time for SCC    0.01 s
speedup  0.98
cpu  time for grad    0.01 s
wall time for grad    0.01 s
 E :    -40.89744501  G :  0.065688    pred/act E change: -0.765D-02 -0.144D-02
Maxdispl :   0.1228   ||displ|| :   0.3072   Lambda : -0.869D-02
Largest |displ|/coords:  0.1228 (   6)  0.1182 (  11)  0.1068 (   4)
................................................................................
.............................. CYCLE   23 ......................................
................................................................................
   1    -41.1082574 -0.411083E+02  0.377E-01    8.02       0.0  T
   2    -41.1084242 -0.166766E-03  0.277E-01    8.01       1.0  T
   3    -41.1085187 -0.944844E-04  0.855E-02    8.00       1.0  T
   4    -41.1085323 -0.136137E-04  0.273E-02    8.00       1.0  T
   5    -41.1085334 -0.111815E-05  0.870E-03    8.00       2.6  T
   6    -41.1085335 -0.755578E-07  0.475E-03    8.00       4.8  T
   7    -41.1085335 -0.227961E-07  0.132E-03    8.00      17.4  T
speedup  0.93
cpu  time for SCC    0.00 s
wall time for SCC    0.00 s
speedup  0.97
cpu  time for grad    0.01 s
wall time for grad    0.01 s
 E :    -40.90021586  G :  0.032268    pred/act E change: -0.102D-01 -0.277D-02
Maxdispl :   0.1188   ||displ|| :   0.2475   Lambda : -0.201D-02
Largest |displ|/coords:  0.1188 (   3)  0.1173 (  11)  0.0888 (   6)
................................................................................
.............................. CYCLE   24 ......................................
................................................................................
   1    -41.1156386 -0.411156E+02  0.219E-01    7.88       0.0  T
   2    -41.1156729 -0.343026E-04  0.161E-01    7.87       1.0  T
   3    -41.1156905 -0.176471E-04  0.408E-02    7.84       1.0  T
   4    -41.1156939 -0.340627E-05  0.128E-02    7.84       1.8  T
   5    -41.1156942 -0.304418E-06  0.357E-03    7.84       6.4  T
   6    -41.1156942 -0.687856E-08  0.200E-03    7.84      11.5  T
speedup  1.05
cpu  time for SCC    0.00 s
wall time for SCC    0.00 s
speedup  1.02
cpu  time for grad    0.01 s
wall time for grad    0.01 s
 E :    -40.90114334  G :  0.017597    pred/act E change: -0.475D-02 -0.927D-03
Maxdispl :   0.1476   ||displ|| :   0.2488   Lambda : -0.103D-02
Largest |displ|/coords:  0.1476 (   3)  0.1400 (   4)  0.0558 (   1)
................................................................................
.............................. CYCLE   25 ......................................
................................................................................
   1    -41.1210599 -0.411211E+02  0.133E-01    7.98       0.0  T
   2    -41.1210730 -0.130681E-04  0.976E-02    7.97       1.0  T
   3    -41.1210776 -0.460296E-05  0.327E-02    7.96       1.0  T
   4    -41.1210788 -0.122932E-05  0.798E-03    7.96       2.9  T
   5    -41.1210789 -0.637647E-07  0.199E-03    7.97      11.6  T
   6    -41.1210789 -0.469536E-08  0.105E-03    7.97      21.9  T
speedup  0.81
cpu  time for SCC    0.00 s
wall time for SCC    0.00 s
speedup  1.03
cpu  time for grad    0.01 s
wall time for grad    0.01 s
 E :    -40.90156114  G :  0.024920    pred/act E change: -0.107D-02 -0.418D-03
Maxdispl :   0.1997   ||displ|| :   0.2986   Lambda : -0.819D-03
Largest |displ|/coords:  0.1997 (   3)  0.1745 (   4)  0.0644 (  15)

generating ANC from model Hessian ...
 Shifting diagonal of input Hessian by   5.167770344293736E-003
 Lowest  eigenvalues of input Hessian
    0.005000   -0.000000   -0.000000   -0.000000    0.000000    0.000000
    0.000000    0.005344    0.005559    0.005618    0.005647    0.006402
    0.006442    0.006676    0.007739    0.008469    0.009319    0.010961
 Highest eigenvalues
    1.413593    1.425205    1.455196    2.447156    3.247573    3.870202
 
cpu  time for ANC gen    0.01 s
wall time for ANC gen    0.00 s
................................................................................
.............................. CYCLE   26 ......................................
................................................................................
   1    -41.1189815 -0.411190E+02  0.163E-01    7.86       0.0  T
   2    -41.1189877 -0.618018E-05  0.121E-01    7.86       1.0  T
   3    -41.1189933 -0.562097E-05  0.206E-02    7.86       1.1  T
   4    -41.1189939 -0.572631E-06  0.579E-03    7.86       4.0  T
   5    -41.1189939 -0.457771E-07  0.211E-03    7.86      10.9  T
   6    -41.1189939 -0.419413E-08  0.130E-03    7.86      17.7  T
   7    -41.1189939 -0.155197E-08  0.302E-04    7.86      76.0  T
   8    -41.1189939 -0.205780E-09  0.815E-05    7.86     281.4  T
speedup  1.00
cpu  time for SCC    0.00 s
wall time for SCC    0.00 s
speedup  0.96
cpu  time for grad    0.01 s
wall time for grad    0.01 s
 E :    -40.90221329  G :  0.018077    pred/act E change:  0.000D+00 -0.652D-03
Maxdispl :   0.2155   ||displ|| :   0.3650   Lambda : -0.146D-02
Largest |displ|/coords:  0.2155 (   3)  0.1407 (   1)  0.1374 (   6)
................................................................................
.............................. CYCLE   27 ......................................
................................................................................
   1    -41.1198758 -0.411199E+02  0.284E-01    7.87       0.0  T
   2    -41.1198890 -0.132237E-04  0.216E-01    7.87       1.0  T
   3    -41.1199033 -0.142308E-04  0.229E-02    7.88       1.0  T
   4    -41.1199046 -0.130883E-05  0.838E-03    7.88       2.7  T
   5    -41.1199047 -0.816468E-07  0.316E-03    7.88       7.3  T
   6    -41.1199047 -0.731912E-08  0.160E-03    7.88      14.4  T
   7    -41.1199047 -0.562711E-08  0.411E-04    7.88      55.8  T
speedup  0.93
cpu  time for SCC    0.00 s
wall time for SCC    0.00 s
speedup  0.96
cpu  time for grad    0.01 s
wall time for grad    0.01 s
 E :    -40.90336265  G :  0.012114    pred/act E change:  0.000D+00 -0.115D-02
Maxdispl :   0.4642   ||displ|| :   0.6768   Lambda : -0.190D-02
Largest |displ|/coords:  0.4642 (   3)  0.2817 (   1)  0.2069 (   6)
................................................................................
.............................. CYCLE   28 ......................................
................................................................................
   1    -41.1183331 -0.411183E+02  0.396E-01    7.75       0.0  T
   2    -41.1183604 -0.273473E-04  0.300E-01    7.76       1.0  T
   3    -41.1183850 -0.246277E-04  0.346E-02    7.78       1.0  T
   4    -41.1183887 -0.363304E-05  0.120E-02    7.77       1.9  T
   5    -41.1183888 -0.174733E-06  0.425E-03    7.77       5.4  T
   6    -41.1183888 -0.142266E-07  0.217E-03    7.77      10.6  T
   7    -41.1183889 -0.122085E-07  0.668E-04    7.77      34.3  T
speedup  0.93
cpu  time for SCC    0.00 s
wall time for SCC    0.00 s
speedup  0.96
cpu  time for grad    0.01 s
wall time for grad    0.01 s
 E :    -40.90492550  G :  0.015554    pred/act E change: -0.828D-03 -0.156D-02
Maxdispl :   0.5756   ||displ|| :   0.7716   Lambda : -0.196D-02
Largest |displ|/coords:  0.5756 (   3)  0.2608 (   1)  0.2505 (   5)
................................................................................
.............................. CYCLE   29 ......................................
................................................................................
   1    -41.1169873 -0.411170E+02  0.361E-01    7.62       0.0  T
   2    -41.1170103 -0.229875E-04  0.273E-01    7.62       1.0  T
   3    -41.1170327 -0.224403E-04  0.312E-02    7.62       1.0  T
   4    -41.1170355 -0.278341E-05  0.121E-02    7.62       1.9  T
   5    -41.1170356 -0.145398E-06  0.374E-03    7.62       6.1  T
   6    -41.1170357 -0.146026E-07  0.202E-03    7.62      11.4  T
   7    -41.1170357 -0.865031E-08  0.667E-04    7.62      34.4  T
speedup  1.14
cpu  time for SCC    0.00 s
wall time for SCC    0.00 s
speedup  1.05
cpu  time for grad    0.01 s
wall time for grad    0.01 s
 E :    -40.90662244  G :  0.024085    pred/act E change: -0.138D-02 -0.170D-02
Maxdispl :   0.5535   ||displ|| :   0.7580   Lambda : -0.241D-02
Largest |displ|/coords:  0.5535 (   3)  0.3126 (   5)  0.2640 (   1)
................................................................................
.............................. CYCLE   30 ......................................
................................................................................
   1    -41.1221778 -0.411222E+02  0.268E-01    7.68       0.0  T
   2    -41.1222096 -0.318567E-04  0.197E-01    7.67       1.0  T
   3    -41.1222236 -0.140182E-04  0.449E-02    7.65       1.0  T
   4    -41.1222277 -0.402077E-05  0.154E-02    7.65       1.5  T
   5    -41.1222280 -0.375563E-06  0.400E-03    7.65       5.7  T
   6    -41.1222280 -0.136655E-07  0.241E-03    7.65       9.5  T
speedup  0.79
cpu  time for SCC    0.00 s
wall time for SCC    0.00 s
speedup  0.89
cpu  time for grad    0.01 s
wall time for grad    0.01 s
 E :    -40.90844372  G :  0.019931    pred/act E change: -0.156D-02 -0.182D-02
Maxdispl :   0.3843   ||displ|| :   0.6103   Lambda : -0.202D-02
Largest |displ|/coords:  0.3843 (   3)  0.3080 (   4)  0.1305 (   7)
................................................................................
.............................. CYCLE   31 ......................................
................................................................................
   1    -41.1234993 -0.411235E+02  0.414E-01    8.03       0.0  T
   2    -41.1235274 -0.281174E-04  0.310E-01    8.03       1.0  T
   3    -41.1235530 -0.256039E-04  0.465E-02    8.02       1.0  T
   4    -41.1235560 -0.297076E-05  0.170E-02    8.02       1.3  T
   5    -41.1235562 -0.214830E-06  0.434E-03    8.02       5.3  T
   6    -41.1235562 -0.103515E-07  0.264E-03    8.02       8.7  T
   7    -41.1235562 -0.549478E-08  0.651E-04    8.02      35.3  T
speedup  1.11
cpu  time for SCC    0.01 s
wall time for SCC    0.00 s
speedup  1.03
cpu  time for grad    0.01 s
wall time for grad    0.01 s
 E :    -40.90895208  G :  0.034639    pred/act E change: -0.190D-02 -0.508D-03
Maxdispl :   0.0902   ||displ|| :   0.1999   Lambda : -0.190D-02
Largest |displ|/coords:  0.0902 (   6)  0.0788 (   1)  0.0623 (  18)
................................................................................
.............................. CYCLE   32 ......................................
................................................................................
   1    -41.1334864 -0.411335E+02  0.238E-01    8.16       0.0  T
   2    -41.1335116 -0.251364E-04  0.178E-01    8.15       1.0  T
   3    -41.1335281 -0.165909E-04  0.348E-02    8.12       1.0  T
   4    -41.1335312 -0.302114E-05  0.580E-03    8.13       4.0  T
   5    -41.1335312 -0.310025E-07  0.322E-03    8.13       7.1  T
speedup  0.94
cpu  time for SCC    0.00 s
wall time for SCC    0.00 s
speedup  1.07
cpu  time for grad    0.01 s
wall time for grad    0.01 s
 E :    -40.90944758  G :  0.020331    pred/act E change: -0.139D-02 -0.496D-03
Maxdispl :   0.1805   ||displ|| :   0.3448   Lambda : -0.137D-02
Largest |displ|/coords:  0.1805 (   1)  0.1728 (  10)  0.1506 (   3)
................................................................................
.............................. CYCLE   33 ......................................
................................................................................
   1    -41.1167034 -0.411167E+02  0.354E-01    7.64       0.0  T
   2    -41.1167288 -0.253253E-04  0.264E-01    7.66       1.0  T
   3    -41.1167510 -0.222202E-04  0.441E-02    7.69       1.0  T
   4    -41.1167536 -0.265539E-05  0.134E-02    7.68       1.7  T
   5    -41.1167538 -0.190363E-06  0.370E-03    7.68       6.2  T
   6    -41.1167538 -0.130968E-07  0.236E-03    7.68       9.7  T
speedup  1.08
cpu  time for SCC    0.00 s
wall time for SCC    0.00 s
speedup  1.00
cpu  time for grad    0.01 s
wall time for grad    0.01 s
 E :    -40.90924154  G :  0.024864    pred/act E change: -0.986D-03  0.206D-03
Maxdispl :   0.1879   ||displ|| :   0.3013   Lambda : -0.196D-02
Largest |displ|/coords:  0.1879 (   3)  0.1326 (   5)  0.1108 (   4)
................................................................................
.............................. CYCLE   34 ......................................
................................................................................
   1    -41.1248373 -0.411248E+02  0.342E-01    7.84       0.0  T
   2    -41.1248532 -0.159722E-04  0.259E-01    7.84       1.0  T
   3    -41.1248707 -0.174167E-04  0.283E-02    7.85       1.0  T
   4    -41.1248718 -0.116705E-05  0.855E-03    7.85       2.7  T
   5    -41.1248719 -0.753083E-07  0.292E-03    7.85       7.9  T
   6    -41.1248719 -0.427211E-08  0.153E-03    7.85      15.0  T
speedup  1.05
cpu  time for SCC    0.00 s
wall time for SCC    0.00 s
speedup  1.00
cpu  time for grad    0.01 s
wall time for grad    0.01 s
 E :    -40.91007243  G :  0.012365    pred/act E change: -0.769D-03 -0.831D-03
Maxdispl :   0.1681   ||displ|| :   0.3102   Lambda : -0.769D-03
Largest |displ|/coords:  0.1681 (   1)  0.1494 (   3)  0.1054 (   7)
................................................................................
.............................. CYCLE   35 ......................................
................................................................................
   1    -41.1282359 -0.411282E+02  0.225E-01    8.09       0.0  T
   2    -41.1282501 -0.142526E-04  0.166E-01    8.09       1.0  T
   3    -41.1282597 -0.955134E-05  0.285E-02    8.09       1.0  T
   4    -41.1282613 -0.161652E-05  0.536E-03    8.10       4.3  T
   5    -41.1282613 -0.251231E-07  0.296E-03    8.10       7.8  T
   6    -41.1282613 -0.892949E-08  0.115E-03    8.10      20.0  T
speedup  1.08
cpu  time for SCC    0.00 s
wall time for SCC    0.00 s
speedup  1.00
cpu  time for grad    0.01 s
wall time for grad    0.01 s
 E :    -40.90975590  G :  0.029463    pred/act E change: -0.107D-02  0.317D-03
Maxdispl :   0.0950   ||displ|| :   0.2137   Lambda : -0.148D-02
Largest |displ|/coords:  0.0950 (   3)  0.0867 (   6)  0.0668 (   5)
................................................................................
.............................. CYCLE   36 ......................................
................................................................................
   1    -41.1304207 -0.411304E+02  0.195E-01    8.17       0.0  T
   2    -41.1304403 -0.196030E-04  0.146E-01    8.16       1.0  T
   3    -41.1304529 -0.125853E-04  0.299E-02    8.15       1.0  T
   4    -41.1304553 -0.240449E-05  0.106E-02    8.15       2.2  T
   5    -41.1304555 -0.190674E-06  0.349E-03    8.15       6.6  T
   6    -41.1304555 -0.824468E-08  0.186E-03    8.15      12.3  T
speedup  1.05
cpu  time for SCC    0.00 s
wall time for SCC    0.00 s
speedup  1.00
cpu  time for grad    0.01 s
wall time for grad    0.01 s
 E :    -40.91018316  G :  0.020584    pred/act E change: -0.421D-03 -0.427D-03
Maxdispl :   0.1196   ||displ|| :   0.2659   Lambda : -0.112D-02
Largest |displ|/coords:  0.1196 (   7)  0.0953 (   3)  0.0869 (  11)
................................................................................
.............................. CYCLE   37 ......................................
................................................................................
   1    -41.1222920 -0.411223E+02  0.324E-01    7.76       0.0  T
   2    -41.1223202 -0.281515E-04  0.243E-01    7.78       1.0  T
   3    -41.1223414 -0.211780E-04  0.407E-02    7.83       1.0  T
   4    -41.1223448 -0.343045E-05  0.107E-02    7.81       2.1  T
   5    -41.1223449 -0.108889E-06  0.371E-03    7.80       6.2  T
   6    -41.1223449 -0.114417E-07  0.203E-03    7.80      11.3  T
speedup  1.08
cpu  time for SCC    0.00 s
wall time for SCC    0.00 s
speedup  1.01
cpu  time for grad    0.01 s
wall time for grad    0.01 s
 E :    -40.90988767  G :  0.026585    pred/act E change: -0.776D-03  0.295D-03
Maxdispl :   0.1011   ||displ|| :   0.1831   Lambda : -0.153D-02
Largest |displ|/coords:  0.1011 (   1)  0.0688 (  17)  0.0621 (   7)
................................................................................
.............................. CYCLE   38 ......................................
................................................................................
   1    -41.1257716 -0.411258E+02  0.235E-01    7.91       0.0  T
   2    -41.1257876 -0.159977E-04  0.177E-01    7.89       1.0  T
   3    -41.1258011 -0.135583E-04  0.255E-02    7.87       1.0  T
   4    -41.1258031 -0.197887E-05  0.759E-03    7.89       3.0  T
   5    -41.1258032 -0.730298E-07  0.331E-03    7.89       6.9  T
   6    -41.1258032 -0.547048E-08  0.153E-03    7.89      15.0  T
speedup  1.08
cpu  time for SCC    0.00 s
wall time for SCC    0.00 s
speedup  1.01
cpu  time for grad    0.01 s
wall time for grad    0.01 s
 E :    -40.91045665  G :  0.011231    pred/act E change: -0.601D-03 -0.569D-03
Maxdispl :   0.0898   ||displ|| :   0.2359   Lambda : -0.521D-03
Largest |displ|/coords:  0.0898 (   3)  0.0835 (   7)  0.0712 (  10)
................................................................................
.............................. CYCLE   39 ......................................
................................................................................
   1    -41.1276420 -0.411276E+02  0.202E-01    8.14       0.0  T
   2    -41.1276518 -0.977289E-05  0.150E-01    8.14       1.0  T
   3    -41.1276588 -0.696896E-05  0.258E-02    8.14       1.0  T
   4    -41.1276600 -0.119933E-05  0.985E-03    8.14       2.3  T
   5    -41.1276600 -0.886087E-07  0.234E-03    8.14       9.8  T
   6    -41.1276600 -0.464910E-08  0.145E-03    8.14      15.9  T
speedup  1.05
cpu  time for SCC    0.00 s
wall time for SCC    0.00 s
speedup  0.99
cpu  time for grad    0.01 s
wall time for grad    0.01 s
 E :    -40.91048390  G :  0.014369    pred/act E change: -0.793D-03 -0.272D-04
Maxdispl :   0.0761   ||displ|| :   0.1387   Lambda : -0.368D-03
Largest |displ|/coords:  0.0761 (   4)  0.0590 (   7)  0.0543 (   1)
................................................................................
.............................. CYCLE   40 ......................................
................................................................................
   1    -41.1279592 -0.411280E+02  0.103E-01    8.05       0.0  T
   2    -41.1279614 -0.221125E-05  0.777E-02    8.05       1.0  T
   3    -41.1279634 -0.199674E-05  0.114E-02    8.04       2.0  T
   4    -41.1279636 -0.246183E-06  0.259E-03    8.04       8.9  T
   5    -41.1279636 -0.684769E-08  0.124E-03    8.04      18.6  T
speedup  0.94
cpu  time for SCC    0.00 s
wall time for SCC    0.00 s
speedup  0.95
cpu  time for grad    0.01 s
wall time for grad    0.01 s
 E :    -40.91066663  G :  0.006576    pred/act E change: -0.275D-03 -0.183D-03
Maxdispl :   0.1023   ||displ|| :   0.1468   Lambda : -0.164D-03
Largest |displ|/coords:  0.1023 (   3)  0.0656 (   5)  0.0531 (   1)
................................................................................
.............................. CYCLE   41 ......................................
................................................................................
   1    -41.1252314 -0.411252E+02  0.777E-02    7.92       0.0  T
   2    -41.1252336 -0.218821E-05  0.561E-02    7.93       1.0  T
   3    -41.1252348 -0.119942E-05  0.125E-02    7.94       1.8  T
   4    -41.1252350 -0.200436E-06  0.459E-03    7.94       5.0  T
   5    -41.1252351 -0.173922E-07  0.886E-04    7.94      25.9  T
   6    -41.1252351 -0.917687E-09  0.500E-04    7.94      45.9  T
speedup  1.08
cpu  time for SCC    0.00 s
wall time for SCC    0.00 s
speedup  1.00
cpu  time for grad    0.01 s
wall time for grad    0.01 s
 E :    -40.91070185  G :  0.005640    pred/act E change: -0.188D-03 -0.352D-04
Maxdispl :   0.0652   ||displ|| :   0.1302   Lambda : -0.108D-03
Largest |displ|/coords:  0.0652 (   4)  0.0645 (   3)  0.0626 (   1)
................................................................................
.............................. CYCLE   42 ......................................
................................................................................
   1    -41.1254883 -0.411255E+02  0.749E-02    7.97       0.0  T
   2    -41.1254894 -0.102881E-05  0.571E-02    7.96       1.0  T
   3    -41.1254904 -0.103657E-05  0.598E-03    7.96       3.8  T
   4    -41.1254905 -0.104493E-06  0.262E-03    7.96       8.8  T
   5    -41.1254905 -0.655275E-08  0.735E-04    7.96      31.2  T
speedup  0.94
cpu  time for SCC    0.00 s
wall time for SCC    0.00 s
speedup  1.06
cpu  time for grad    0.01 s
wall time for grad    0.01 s
 E :    -40.91077731  G :  0.003845    pred/act E change: -0.839D-04 -0.755D-04
Maxdispl :   0.1334   ||displ|| :   0.2255   Lambda : -0.130D-03
Largest |displ|/coords:  0.1334 (   1)  0.0770 (   5)  0.0734 (   3)
................................................................................
.............................. CYCLE   43 ......................................
................................................................................
   1    -41.1272075 -0.411272E+02  0.129E-01    8.03       0.0  T
   2    -41.1272101 -0.259421E-05  0.978E-02    8.03       1.0  T
   3    -41.1272128 -0.274179E-05  0.109E-02    8.03       2.1  T
   4    -41.1272131 -0.237741E-06  0.482E-03    8.03       4.8  T
   5    -41.1272131 -0.196068E-07  0.129E-03    8.03      17.8  T
   6    -41.1272131 -0.139163E-08  0.788E-04    8.03      29.1  T
   7    -41.1272131 -0.649564E-09  0.204E-04    8.03     112.3  T
speedup  0.91
cpu  time for SCC    0.00 s
wall time for SCC    0.00 s
speedup  1.00
cpu  time for grad    0.01 s
wall time for grad    0.01 s
 E :    -40.91082778  G :  0.006717    pred/act E change: -0.550D-04 -0.505D-04
Maxdispl :   0.0860   ||displ|| :   0.1449   Lambda : -0.955D-04
Largest |displ|/coords:  0.0860 (   1)  0.0801 (   4)  0.0375 (  13)
................................................................................
.............................. CYCLE   44 ......................................
................................................................................
   1    -41.1267184 -0.411267E+02  0.826E-02    8.00       0.0  T
   2    -41.1267195 -0.110571E-05  0.628E-02    8.00       1.0  T
   3    -41.1267208 -0.137058E-05  0.643E-03    7.99       3.6  T
   4    -41.1267209 -0.651523E-07  0.224E-03    8.00      10.3  T
   5    -41.1267209 -0.455196E-08  0.828E-04    8.00      27.7  T
speedup  0.94
cpu  time for SCC    0.00 s
wall time for SCC    0.00 s
speedup  0.95
cpu  time for grad    0.01 s
wall time for grad    0.01 s
 E :    -40.91088074  G :  0.005287    pred/act E change: -0.683D-04 -0.530D-04
Maxdispl :   0.1299   ||displ|| :   0.1829   Lambda : -0.103D-03
Largest |displ|/coords:  0.1299 (   5)  0.0732 (   1)  0.0526 (   4)
................................................................................
.............................. CYCLE   45 ......................................
................................................................................
   1    -41.1229570 -0.411230E+02  0.191E-01    7.94       0.0  T
   2    -41.1229657 -0.870407E-05  0.144E-01    7.94       1.0  T
   3    -41.1229718 -0.607713E-05  0.194E-02    7.95       1.2  T
   4    -41.1229731 -0.126277E-05  0.422E-03    7.94       5.4  T
   5    -41.1229731 -0.270488E-07  0.178E-03    7.94      12.9  T
   6    -41.1229731 -0.143930E-08  0.968E-04    7.94      23.7  T
speedup  1.08
cpu  time for SCC    0.00 s
wall time for SCC    0.00 s
speedup  1.00
cpu  time for grad    0.01 s
wall time for grad    0.01 s
 E :    -40.91082519  G :  0.011668    pred/act E change: -0.488D-04  0.556D-04
Maxdispl :   0.0475   ||displ|| :   0.0984   Lambda : -0.260D-03
Largest |displ|/coords:  0.0475 (   3)  0.0469 (   1)  0.0410 (   2)
................................................................................
.............................. CYCLE   46 ......................................
................................................................................
   1    -41.1261317 -0.411261E+02  0.106E-01    7.95       0.0  T
   2    -41.1261360 -0.431036E-05  0.796E-02    7.95       1.0  T
   3    -41.1261390 -0.298277E-05  0.142E-02    7.94       1.6  T
   4    -41.1261396 -0.583434E-06  0.236E-03    7.94       9.7  T
   5    -41.1261396 -0.430521E-08  0.130E-03    7.94      17.6  T
speedup  0.94
cpu  time for SCC    0.00 s
wall time for SCC    0.00 s
speedup  1.06
cpu  time for grad    0.01 s
wall time for grad    0.01 s
 E :    -40.91095232  G :  0.003935    pred/act E change: -0.531D-04 -0.127D-03
Maxdispl :   0.0269   ||displ|| :   0.0655   Lambda : -0.489D-04
Largest |displ|/coords:  0.0269 (   5)  0.0267 (  13)  0.0214 (  12)
................................................................................
.............................. CYCLE   47 ......................................
................................................................................
   1    -41.1263682 -0.411264E+02  0.635E-02    7.96       0.0  T
   2    -41.1263688 -0.522066E-06  0.473E-02    7.95       1.0  T
   3    -41.1263693 -0.568564E-06  0.724E-03    7.95       3.2  T
   4    -41.1263694 -0.353959E-07  0.192E-03    7.95      11.9  T
   5    -41.1263694 -0.492790E-08  0.521E-04    7.95      44.1  T
   6    -41.1263694 -0.189537E-09  0.343E-04    7.95      66.9  T
speedup  1.08
cpu  time for SCC    0.00 s
wall time for SCC    0.00 s
speedup  0.97
cpu  time for grad    0.01 s
wall time for grad    0.01 s
 E :    -40.91099242  G :  0.004305    pred/act E change: -0.131D-03 -0.401D-04
Maxdispl :   0.1453   ||displ|| :   0.2762   Lambda : -0.172D-03
Largest |displ|/coords:  0.1453 (   5)  0.1191 (  13)  0.0800 (  10)
................................................................................
.............................. CYCLE   48 ......................................
................................................................................
   1    -41.1259487 -0.411259E+02  0.293E-01    7.93       0.0  T
   2    -41.1259591 -0.104544E-04  0.219E-01    7.93       1.0  T
   3    -41.1259693 -0.101587E-04  0.307E-02    7.91       1.0  T
   4    -41.1259702 -0.897130E-06  0.905E-03    7.91       2.5  T
   5    -41.1259703 -0.806550E-07  0.235E-03    7.91       9.8  T
   6    -41.1259703 -0.503309E-08  0.142E-03    7.91      16.1  T
speedup  1.05
cpu  time for SCC    0.00 s
wall time for SCC    0.00 s
speedup  1.00
cpu  time for grad    0.01 s
wall time for grad    0.01 s
 E :    -40.91108139  G :  0.008782    pred/act E change: -0.246D-04 -0.890D-04
Maxdispl :   0.0154   ||displ|| :   0.0355   Lambda : -0.607D-04
Largest |displ|/coords:  0.0154 (   4)  0.0115 (   3)  0.0103 (   5)
................................................................................
.............................. CYCLE   49 ......................................
................................................................................
   1    -41.1265850 -0.411266E+02  0.416E-02    7.92       0.0  T
   2    -41.1265854 -0.429544E-06  0.306E-02    7.92       1.0  T
   3    -41.1265859 -0.441750E-06  0.602E-03    7.92       3.8  T
   4    -41.1265859 -0.357120E-07  0.171E-03    7.92      13.4  T
   5    -41.1265859 -0.420848E-08  0.591E-04    7.92      38.8  T
speedup  0.91
cpu  time for SCC    0.00 s
wall time for SCC    0.00 s
speedup  1.06
cpu  time for grad    0.01 s
wall time for grad    0.01 s
 E :    -40.91112559  G :  0.006139    pred/act E change: -0.927D-04 -0.442D-04
Maxdispl :   0.0728   ||displ|| :   0.1568   Lambda : -0.976D-04
Largest |displ|/coords:  0.0728 (  13)  0.0465 (  10)  0.0463 (   5)
................................................................................
.............................. CYCLE   50 ......................................
................................................................................
   1    -41.1265774 -0.411266E+02  0.160E-01    7.92       0.0  T
   2    -41.1265805 -0.304425E-05  0.119E-01    7.92       1.0  T
   3    -41.1265840 -0.350633E-05  0.183E-02    7.92       1.3  T
   4    -41.1265842 -0.179306E-06  0.284E-03    7.91       8.1  T
   5    -41.1265842 -0.130188E-07  0.135E-03    7.91      17.0  T
speedup  0.97
cpu  time for SCC    0.00 s
wall time for SCC    0.00 s
speedup  0.93
cpu  time for grad    0.01 s
wall time for grad    0.01 s
 E :    -40.91119496  G :  0.005889    pred/act E change: -0.304D-04 -0.694D-04
Maxdispl :   0.0669   ||displ|| :   0.1337   Lambda : -0.954D-04
Largest |displ|/coords:  0.0669 (  13)  0.0422 (  10)  0.0413 (   5)
................................................................................
.............................. CYCLE   51 ......................................
................................................................................
   1    -41.1273164 -0.411273E+02  0.158E-01    7.91       0.0  T
   2    -41.1273197 -0.326200E-05  0.117E-01    7.91       1.0  T
   3    -41.1273226 -0.293527E-05  0.193E-02    7.91       1.2  T
   4    -41.1273228 -0.259621E-06  0.523E-03    7.91       4.4  T
   5    -41.1273229 -0.344086E-07  0.118E-03    7.91      19.4  T
   6    -41.1273229 -0.130076E-08  0.746E-04    7.91      30.7  T
speedup  1.03
cpu  time for SCC    0.00 s
wall time for SCC    0.00 s
speedup  0.98
cpu  time for grad    0.01 s
wall time for grad    0.01 s
 E :    -40.91125765  G :  0.003492    pred/act E change: -0.500D-04 -0.627D-04
Maxdispl :   0.0733   ||displ|| :   0.1581   Lambda : -0.627D-04
Largest |displ|/coords:  0.0733 (  13)  0.0583 (   5)  0.0499 (   1)
................................................................................
.............................. CYCLE   52 ......................................
................................................................................
   1    -41.1261258 -0.411261E+02  0.156E-01    7.88       0.0  T
   2    -41.1261283 -0.251583E-05  0.116E-01    7.88       1.0  T
   3    -41.1261311 -0.286546E-05  0.168E-02    7.88       1.4  T
   4    -41.1261313 -0.134094E-06  0.322E-03    7.88       7.1  T
   5    -41.1261313 -0.169390E-07  0.115E-03    7.88      19.9  T
   6    -41.1261313 -0.125124E-08  0.698E-04    7.88      32.9  T
   7    -41.1261313 -0.288523E-09  0.134E-04    7.88     170.9  T
speedup  1.14
cpu  time for SCC    0.01 s
wall time for SCC    0.00 s
speedup  1.00
cpu  time for grad    0.01 s
wall time for grad    0.01 s
 E :    -40.91128939  G :  0.006400    pred/act E change: -0.485D-04 -0.317D-04
Maxdispl :   0.0373   ||displ|| :   0.0600   Lambda : -0.787D-04
Largest |displ|/coords:  0.0373 (   2)  0.0174 (  12)  0.0149 (   3)

generating ANC from model Hessian ...
 Shifting diagonal of input Hessian by   4.937564177598947E-003
 Lowest  eigenvalues of input Hessian
   -0.000000   -0.000000   -0.000000    0.000000    0.000000    0.000000
    0.005000    0.005296    0.006007    0.006487    0.007020    0.007616
    0.008177    0.008706    0.010242    0.010518    0.012439    0.013473
 Highest eigenvalues
    1.394351    1.429327    1.434988    2.489339    3.295746    3.905295
 
cpu  time for ANC gen    0.01 s
wall time for ANC gen    0.01 s
................................................................................
.............................. CYCLE   53 ......................................
................................................................................
   1    -41.1284416 -0.411284E+02  0.720E-02    7.90       0.0  T
   2    -41.1284434 -0.178507E-05  0.513E-02    7.90       1.0  T
   3    -41.1284442 -0.813883E-06  0.113E-02    7.91       2.0  T
   4    -41.1284444 -0.161079E-06  0.479E-03    7.91       4.8  T
   5    -41.1284444 -0.138536E-07  0.755E-04    7.91      30.4  T
   6    -41.1284444 -0.667562E-09  0.451E-04    7.91      50.8  T
speedup  1.03
cpu  time for SCC    0.00 s
wall time for SCC    0.00 s
speedup  1.06
cpu  time for grad    0.01 s
wall time for grad    0.01 s
 E :    -40.91132164  G :  0.006652    pred/act E change:  0.000D+00 -0.322D-04
Maxdispl :   0.0747   ||displ|| :   0.1232   Lambda : -0.190D-03
Largest |displ|/coords:  0.0747 (   6)  0.0418 (   9)  0.0349 (   7)
................................................................................
.............................. CYCLE   54 ......................................
................................................................................
   1    -41.1275589 -0.411276E+02  0.173E-01    7.92       0.0  T
   2    -41.1275623 -0.336148E-05  0.131E-01    7.92       1.0  T
   3    -41.1275663 -0.398453E-05  0.109E-02    7.92       2.1  T
   4    -41.1275665 -0.193835E-06  0.413E-03    7.92       5.6  T
   5    -41.1275665 -0.825292E-08  0.123E-03    7.92      18.6  T
   6    -41.1275665 -0.713456E-09  0.621E-04    7.92      36.9  T
speedup  1.03
cpu  time for SCC    0.00 s
wall time for SCC    0.00 s
speedup  0.97
cpu  time for grad    0.01 s
wall time for grad    0.01 s
 E :    -40.91144328  G :  0.005597    pred/act E change:  0.000D+00 -0.122D-03
Maxdispl :   0.1021   ||displ|| :   0.1912   Lambda : -0.178D-03
Largest |displ|/coords:  0.1021 (   1)  0.0719 (   6)  0.0610 (   2)
................................................................................
.............................. CYCLE   55 ......................................
................................................................................
   1    -41.1257474 -0.411257E+02  0.216E-01    7.91       0.0  T
   2    -41.1257505 -0.308498E-05  0.162E-01    7.92       1.0  T
   3    -41.1257537 -0.312441E-05  0.151E-02    7.93       1.5  T
   4    -41.1257539 -0.266509E-06  0.560E-03    7.93       4.1  T
   5    -41.1257539 -0.217247E-07  0.163E-03    7.93      14.1  T
   6    -41.1257539 -0.149551E-08  0.974E-04    7.93      23.6  T
speedup  1.05
cpu  time for SCC    0.00 s
wall time for SCC    0.00 s
speedup  1.00
cpu  time for grad    0.01 s
wall time for grad    0.01 s
 E :    -40.91152353  G :  0.012523    pred/act E change: -0.962D-04 -0.802D-04
Maxdispl :   0.0352   ||displ|| :   0.0667   Lambda : -0.147D-03
Largest |displ|/coords:  0.0352 (   1)  0.0293 (   8)  0.0274 (   2)
................................................................................
.............................. CYCLE   56 ......................................
................................................................................
   1    -41.1268907 -0.411269E+02  0.580E-02    7.90       0.0  T
   2    -41.1268920 -0.128000E-05  0.429E-02    7.90       1.0  T
   3    -41.1268929 -0.884532E-06  0.841E-03    7.90       2.7  T
   4    -41.1268930 -0.139830E-06  0.212E-03    7.90      10.8  T
   5    -41.1268930 -0.501356E-08  0.798E-04    7.90      28.7  T
speedup  0.94
cpu  time for SCC    0.00 s
wall time for SCC    0.00 s
speedup  0.95
cpu  time for grad    0.01 s
wall time for grad    0.01 s
 E :    -40.91160500  G :  0.005526    pred/act E change: -0.925D-04 -0.815D-04
Maxdispl :   0.0593   ||displ|| :   0.1153   Lambda : -0.101D-03
Largest |displ|/coords:  0.0593 (   5)  0.0450 (   8)  0.0442 (   1)
................................................................................
.............................. CYCLE   57 ......................................
................................................................................
   1    -41.1273864 -0.411274E+02  0.128E-01    7.88       0.0  T
   2    -41.1273882 -0.179811E-05  0.956E-02    7.88       1.0  T
   3    -41.1273898 -0.162395E-05  0.128E-02    7.89       1.8  T
   4    -41.1273900 -0.184309E-06  0.454E-03    7.89       5.1  T
   5    -41.1273900 -0.139717E-07  0.101E-03    7.89      22.7  T
   6    -41.1273900 -0.788106E-09  0.641E-04    7.89      35.8  T
speedup  1.05
cpu  time for SCC    0.00 s
wall time for SCC    0.00 s
speedup  0.99
cpu  time for grad    0.01 s
wall time for grad    0.01 s
 E :    -40.91168376  G :  0.004796    pred/act E change: -0.738D-04 -0.788D-04
Maxdispl :   0.1215   ||displ|| :   0.2666   Lambda : -0.183D-03
Largest |displ|/coords:  0.1215 (   2)  0.0913 (   1)  0.0897 (   5)
................................................................................
.............................. CYCLE   58 ......................................
................................................................................
   1    -41.1263307 -0.411263E+02  0.313E-01    7.84       0.0  T
   2    -41.1263409 -0.101280E-04  0.235E-01    7.85       1.0  T
   3    -41.1263507 -0.986759E-05  0.283E-02    7.86       1.0  T
   4    -41.1263517 -0.977113E-06  0.106E-02    7.86       2.2  T
   5    -41.1263518 -0.663462E-07  0.258E-03    7.86       8.9  T
   6    -41.1263518 -0.510859E-08  0.159E-03    7.86      14.5  T
speedup  1.05
cpu  time for SCC    0.00 s
wall time for SCC    0.00 s
speedup  0.99
cpu  time for grad    0.01 s
wall time for grad    0.01 s
 E :    -40.91173921  G :  0.013918    pred/act E change: -0.510D-04 -0.554D-04
Maxdispl :   0.0343   ||displ|| :   0.0687   Lambda : -0.204D-03
Largest |displ|/coords:  0.0343 (   1)  0.0343 (   6)  0.0281 (   7)
................................................................................
.............................. CYCLE   59 ......................................
................................................................................
   1    -41.1289784 -0.411290E+02  0.733E-02    7.87       0.0  T
   2    -41.1289808 -0.231654E-05  0.546E-02    7.86       1.0  T
   3    -41.1289820 -0.124629E-05  0.105E-02    7.86       2.2  T
   4    -41.1289823 -0.289618E-06  0.374E-03    7.86       6.1  T
   5    -41.1289823 -0.237055E-07  0.107E-03    7.86      21.5  T
   6    -41.1289823 -0.102520E-08  0.562E-04    7.86      40.8  T
speedup  1.08
cpu  time for SCC    0.00 s
wall time for SCC    0.00 s
speedup  0.99
cpu  time for grad    0.01 s
wall time for grad    0.01 s
 E :    -40.91182758  G :  0.004618    pred/act E change: -0.979D-04 -0.884D-04
Maxdispl :   0.0603   ||displ|| :   0.1135   Lambda : -0.734D-04
Largest |displ|/coords:  0.0603 (   2)  0.0469 (   1)  0.0411 (  11)
................................................................................
.............................. CYCLE   60 ......................................
................................................................................
   1    -41.1286149 -0.411286E+02  0.118E-01    7.84       0.0  T
   2    -41.1286165 -0.166555E-05  0.887E-02    7.85       1.0  T
   3    -41.1286181 -0.153978E-05  0.106E-02    7.85       2.2  T
   4    -41.1286183 -0.183902E-06  0.442E-03    7.85       5.2  T
   5    -41.1286183 -0.103529E-07  0.923E-04    7.85      24.9  T
   6    -41.1286183 -0.610925E-09  0.613E-04    7.85      37.4  T
speedup  1.05
cpu  time for SCC    0.00 s
wall time for SCC    0.00 s
speedup  0.99
cpu  time for grad    0.01 s
wall time for grad    0.01 s
 E :    -40.91188808  G :  0.003537    pred/act E change: -0.102D-03 -0.605D-04
Maxdispl :   0.1635   ||displ|| :   0.3131   Lambda : -0.157D-03
Largest |displ|/coords:  0.1635 (   2)  0.1169 (  11)  0.1160 (   9)
................................................................................
.............................. CYCLE   61 ......................................
................................................................................
   1    -41.1266569 -0.411267E+02  0.333E-01    7.80       0.0  T
   2    -41.1266716 -0.147118E-04  0.250E-01    7.81       1.0  T
   3    -41.1266837 -0.120548E-04  0.325E-02    7.84       1.0  T
   4    -41.1266855 -0.184690E-05  0.129E-02    7.83       1.8  T
   5    -41.1266856 -0.910160E-07  0.270E-03    7.83       8.5  T
   6    -41.1266856 -0.550291E-08  0.175E-03    7.83      13.1  T
   7    -41.1266856 -0.295960E-08  0.347E-04    7.83      66.1  T
   8    -41.1266856 -0.292808E-09  0.128E-04    7.83     179.3  T
speedup  1.00
cpu  time for SCC    0.00 s
wall time for SCC    0.00 s
speedup  1.04
cpu  time for grad    0.01 s
wall time for grad    0.01 s
 E :    -40.91187843  G :  0.013453    pred/act E change: -0.372D-04  0.965D-05
Maxdispl :   0.0676   ||displ|| :   0.1379   Lambda : -0.240D-03
Largest |displ|/coords:  0.0676 (   2)  0.0516 (  11)  0.0445 (   5)
................................................................................
.............................. CYCLE   62 ......................................
................................................................................
   1    -41.1288595 -0.411289E+02  0.166E-01    7.86       0.0  T
   2    -41.1288649 -0.534830E-05  0.124E-01    7.85       1.0  T
   3    -41.1288686 -0.374263E-05  0.186E-02    7.84       1.2  T
   4    -41.1288694 -0.735951E-06  0.629E-03    7.85       3.6  T
   5    -41.1288694 -0.359061E-07  0.177E-03    7.85      13.0  T
   6    -41.1288694 -0.282417E-08  0.103E-03    7.85      22.2  T
speedup  1.05
cpu  time for SCC    0.00 s
wall time for SCC    0.00 s
speedup  0.98
cpu  time for grad    0.01 s
wall time for grad    0.01 s
 E :    -40.91196528  G :  0.002601    pred/act E change: -0.863D-04 -0.869D-04
Maxdispl :   0.0204   ||displ|| :   0.0464   Lambda : -0.242D-04
Largest |displ|/coords:  0.0204 (   9)  0.0183 (   2)  0.0161 (   3)
................................................................................
.............................. CYCLE   63 ......................................
................................................................................
   1    -41.1290394 -0.411290E+02  0.524E-02    7.84       0.0  T
   2    -41.1290398 -0.419678E-06  0.394E-02    7.84       1.0  T
   3    -41.1290401 -0.322913E-06  0.538E-03    7.85       4.3  T
   4    -41.1290402 -0.556368E-07  0.226E-03    7.85      10.2  T
   5    -41.1290402 -0.235956E-08  0.381E-04    7.85      60.2  T
   6    -41.1290402 -0.997531E-10  0.259E-04    7.85      88.7  T
speedup  1.05
cpu  time for SCC    0.00 s
wall time for SCC    0.00 s
speedup  1.05
cpu  time for grad    0.01 s
wall time for grad    0.01 s
 E :    -40.91198482  G :  0.002279    pred/act E change: -0.122D-03 -0.195D-04
Maxdispl :   0.0585   ||displ|| :   0.1339   Lambda : -0.453D-04
Largest |displ|/coords:  0.0585 (   2)  0.0550 (   9)  0.0426 (   3)
................................................................................
.............................. CYCLE   64 ......................................
................................................................................
   1    -41.1288868 -0.411289E+02  0.140E-01    7.83       0.0  T
   2    -41.1288893 -0.255163E-05  0.105E-01    7.83       1.0  T
   3    -41.1288913 -0.196535E-05  0.133E-02    7.84       1.7  T
   4    -41.1288916 -0.335314E-06  0.619E-03    7.84       3.7  T
   5    -41.1288916 -0.165541E-07  0.106E-03    7.84      21.7  T
   6    -41.1288916 -0.827626E-09  0.715E-04    7.84      32.1  T
   7    -41.1288916 -0.494587E-09  0.207E-04    7.84     111.0  T
speedup  0.91
cpu  time for SCC    0.00 s
wall time for SCC    0.00 s
speedup  1.00
cpu  time for grad    0.01 s
wall time for grad    0.01 s
 E :    -40.91200494  G :  0.003579    pred/act E change: -0.121D-04 -0.201D-04
Maxdispl :   0.0137   ||displ|| :   0.0254   Lambda : -0.123D-04
Largest |displ|/coords:  0.0137 (  11)  0.0127 (   2)  0.0091 (   8)
................................................................................
.............................. CYCLE   65 ......................................
................................................................................
   1    -41.1294765 -0.411295E+02  0.279E-02    7.84       0.0  T
   2    -41.1294766 -0.150817E-06  0.207E-02    7.84       1.1  T
   3    -41.1294767 -0.120534E-06  0.344E-03    7.84       6.7  T
   4    -41.1294768 -0.174268E-07  0.101E-03    7.84      22.8  T
   5    -41.1294768 -0.102261E-08  0.281E-04    7.84      81.7  T
   6    -41.1294768 -0.620233E-10  0.178E-04    7.84     128.7  T
speedup  1.08
cpu  time for SCC    0.00 s
wall time for SCC    0.00 s
speedup  0.97
cpu  time for grad    0.01 s
wall time for grad    0.01 s
 E :    -40.91201274  G :  0.001865    pred/act E change: -0.231D-04 -0.780D-05
Maxdispl :   0.0136   ||displ|| :   0.0244   Lambda : -0.749D-05
Largest |displ|/coords:  0.0136 (   3)  0.0125 (   1)  0.0091 (  13)
................................................................................
.............................. CYCLE   66 ......................................
................................................................................
   1    -41.1295204 -0.411295E+02  0.189E-02    7.84       0.0  T
   2    -41.1295205 -0.966953E-07  0.137E-02    7.83       1.7  T
   3    -41.1295206 -0.685281E-07  0.265E-03    7.83       8.7  T
[...]
   1    -41.1291007 -0.411291E+02  0.384E-02    7.83       0.0  T
   2    -41.1291009 -0.159976E-06  0.289E-02    7.83       1.0  T
   3    -41.1291010 -0.137961E-06  0.299E-03    7.83       7.7  T
   4    -41.1291011 -0.191758E-07  0.114E-03    7.83      20.1  T
   5    -41.1291011 -0.101488E-08  0.333E-04    7.83      68.9  T
   6    -41.1291011 -0.616183E-10  0.185E-04    7.83     124.3  T
speedup  1.05
cpu  time for SCC    0.00 s
wall time for SCC    0.00 s
speedup  0.96
cpu  time for grad    0.01 s
wall time for grad    0.01 s
 E :    -40.91202707  G :  0.001196    pred/act E change: -0.170D-05 -0.398D-05
Maxdispl :   0.0133   ||displ|| :   0.0238   Lambda : -0.226D-05
Largest |displ|/coords:  0.0133 (   2)  0.0097 (  12)  0.0092 (   7)
................................................................................
.............................. CYCLE   70 ......................................
................................................................................
   1    -41.1290222 -0.411290E+02  0.185E-02    7.83       0.0  T
   2    -41.1290222 -0.319655E-07  0.140E-02    7.83       1.6  T
   3    -41.1290222 -0.363367E-07  0.124E-03    7.83      18.5  T
   4    -41.1290222 -0.234363E-08  0.398E-04    7.83      57.6  T
   5    -41.1290222 -0.150543E-09  0.149E-04    7.83     153.9  T
speedup  1.25
cpu  time for SCC    0.00 s
wall time for SCC    0.00 s
speedup  1.02
cpu  time for grad    0.01 s
wall time for grad    0.01 s
 E :    -40.91202890  G :  0.001133    pred/act E change: -0.318D-05 -0.183D-05
Maxdispl :   0.0235   ||displ|| :   0.0408   Lambda : -0.427D-05
Largest |displ|/coords:  0.0235 (   2)  0.0166 (  12)  0.0153 (   7)
................................................................................
.............................. CYCLE   71 ......................................
................................................................................
   1    -41.1290279 -0.411290E+02  0.343E-02    7.83       0.0  T
   2    -41.1290280 -0.109737E-06  0.258E-02    7.83       1.0  T
   3    -41.1290281 -0.122120E-06  0.285E-03    7.83       8.0  T
   4    -41.1290281 -0.841410E-08  0.779E-04    7.83      29.4  T
   5    -41.1290281 -0.583370E-09  0.304E-04    7.83      75.5  T
speedup  0.97
cpu  time for SCC    0.00 s
wall time for SCC    0.00 s
speedup  1.03
cpu  time for grad    0.01 s
wall time for grad    0.01 s
 E :    -40.91203173  G :  0.000889    pred/act E change: -0.113D-05 -0.283D-05
Maxdispl :   0.0087   ||displ|| :   0.0176   Lambda : -0.182D-05
Largest |displ|/coords:  0.0087 (   2)  0.0067 (  12)  0.0062 (   7)
................................................................................
.............................. CYCLE   72 ......................................
................................................................................
   1    -41.1291272 -0.411291E+02  0.182E-02    7.83       0.0  T
   2    -41.1291272 -0.390688E-07  0.135E-02    7.83       1.7  T
   3    -41.1291272 -0.311060E-07  0.211E-03    7.83      10.9  T
   4    -41.1291272 -0.473247E-08  0.668E-04    7.83      34.4  T
   5    -41.1291272 -0.318622E-09  0.149E-04    7.83     154.3  T
speedup  0.94
cpu  time for SCC    0.00 s
wall time for SCC    0.00 s
speedup  1.02
cpu  time for grad    0.01 s
wall time for grad    0.01 s
 E :    -40.91203305  G :  0.000629    pred/act E change: -0.214D-05 -0.132D-05
Maxdispl :   0.0047   ||displ|| :   0.0119   Lambda : -0.131D-05
Largest |displ|/coords:  0.0047 (   5)  0.0045 (   7)  0.0035 (   6)
................................................................................
.............................. CYCLE   73 ......................................
................................................................................
   1    -41.1292209 -0.411292E+02  0.152E-02    7.83       0.0  T
   2    -41.1292209 -0.285526E-07  0.112E-02    7.83       2.0  T
   3    -41.1292209 -0.179358E-07  0.194E-03    7.83      11.9  T
   4    -41.1292209 -0.378117E-08  0.631E-04    7.83      36.3  T
   5    -41.1292209 -0.227224E-09  0.112E-04    7.83     204.6  T
speedup  0.97
cpu  time for SCC    0.00 s
wall time for SCC    0.00 s
speedup  1.03
cpu  time for grad    0.01 s
wall time for grad    0.01 s
 E :    -40.91203393  G :  0.000437    pred/act E change: -0.911D-06 -0.877D-06
Maxdispl :   0.0028   ||displ|| :   0.0071   Lambda : -0.614D-06
Largest |displ|/coords:  0.0028 (   6)  0.0026 (   5)  0.0024 (   7)
................................................................................
.............................. CYCLE   74 ......................................
................................................................................
   1    -41.1292305 -0.411292E+02  0.957E-03    7.83       0.0  T
   2    -41.1292305 -0.887580E-08  0.706E-03    7.83       3.2  T
   3    -41.1292305 -0.631623E-08  0.113E-03    7.83      20.3  T
   4    -41.1292305 -0.103123E-08  0.368E-04    7.83      62.4  T
   5    -41.1292305 -0.836025E-10  0.605E-05    7.83     379.0  T
speedup  0.97
cpu  time for SCC    0.00 s
wall time for SCC    0.00 s
speedup  1.03
cpu  time for grad    0.01 s
wall time for grad    0.01 s
 E :    -40.91203437  G :  0.000395    pred/act E change: -0.653D-06 -0.445D-06
Maxdispl :   0.0038   ||displ|| :   0.0080   Lambda : -0.535D-06
Largest |displ|/coords:  0.0038 (   2)  0.0035 (   6)  0.0027 (  21)
................................................................................
.............................. CYCLE   75 ......................................
................................................................................
   1    -41.1291951 -0.411292E+02  0.907E-03    7.83       0.0  T
   2    -41.1291951 -0.683938E-08  0.673E-03    7.83       3.4  T
   3    -41.1291951 -0.576318E-08  0.961E-04    7.83      23.9  T
   4    -41.1291951 -0.642153E-09  0.290E-04    7.83      79.1  T
speedup  0.77
cpu  time for SCC    0.00 s
wall time for SCC    0.00 s
speedup  0.98
cpu  time for grad    0.01 s
wall time for grad    0.01 s
 E :    -40.91203475  G :  0.000362    pred/act E change: -0.307D-06 -0.380D-06
Maxdispl :   0.0042   ||displ|| :   0.0078   Lambda : -0.373D-06
Largest |displ|/coords:  0.0042 (   2)  0.0036 (   6)  0.0024 (  21)
................................................................................
.............................. CYCLE   76 ......................................
................................................................................
   1    -41.1291431 -0.411291E+02  0.692E-03    7.83       0.0  T
   2    -41.1291431 -0.531361E-08  0.518E-03    7.83       4.4  T
   3    -41.1291431 -0.405747E-08  0.664E-04    7.84      34.5  T
   4    -41.1291431 -0.681212E-09  0.240E-04    7.84      95.5  T
speedup  1.20
cpu  time for SCC    0.00 s
wall time for SCC    0.00 s
speedup  0.99
cpu  time for grad    0.01 s
wall time for grad    0.01 s
 E :    -40.91203502  G :  0.000303    pred/act E change: -0.268D-06 -0.271D-06
Maxdispl :   0.0047   ||displ|| :   0.0086   Lambda : -0.330D-06
Largest |displ|/coords:  0.0047 (   6)  0.0042 (   2)  0.0031 (   5)
................................................................................
.............................. CYCLE   77 ......................................
................................................................................
   1    -41.1290962 -0.411291E+02  0.716E-03    7.84       0.0  T
   2    -41.1290962 -0.614875E-08  0.539E-03    7.84       4.3  T
   3    -41.1290962 -0.443607E-08  0.602E-04    7.84      38.1  T
   4    -41.1290962 -0.934193E-09  0.243E-04    7.84      94.3  T
speedup  1.15
cpu  time for SCC    0.00 s
wall time for SCC    0.00 s
speedup  0.98
cpu  time for grad    0.01 s
wall time for grad    0.01 s
 E :    -40.91203526  G :  0.000268    pred/act E change: -0.187D-06 -0.237D-06
Maxdispl :   0.0040   ||displ|| :   0.0070   Lambda : -0.233D-06
Largest |displ|/coords:  0.0040 (   6)  0.0033 (   5)  0.0026 (   2)
................................................................................
.............................. CYCLE   78 ......................................
................................................................................
   1    -41.1290936 -0.411291E+02  0.522E-03    7.84       0.0  T
   2    -41.1290936 -0.415946E-08  0.389E-03    7.84       5.9  T
   3    -41.1290936 -0.232028E-08  0.546E-04    7.84      42.0  T
   4    -41.1290936 -0.667974E-09  0.206E-04    7.84     111.6  T
speedup  1.20
cpu  time for SCC    0.00 s
wall time for SCC    0.00 s
speedup  1.08
cpu  time for grad    0.01 s
wall time for grad    0.01 s
 E :    -40.91203543  G :  0.000244    pred/act E change: -0.165D-06 -0.170D-06
Maxdispl :   0.0046   ||displ|| :   0.0075   Lambda : -0.187D-06
Largest |displ|/coords:  0.0046 (   6)  0.0044 (   5)  0.0023 (   2)
................................................................................
.............................. CYCLE   79 ......................................
................................................................................
   1    -41.1291161 -0.411291E+02  0.606E-03    7.84       0.0  T
   2    -41.1291161 -0.331327E-08  0.451E-03    7.84       5.1  T
   3    -41.1291161 -0.308939E-08  0.560E-04    7.84      41.0  T
   4    -41.1291161 -0.348322E-09  0.174E-04    7.84     131.5  T
speedup  0.80
cpu  time for SCC    0.00 s
wall time for SCC    0.00 s
speedup  0.98
cpu  time for grad    0.01 s
wall time for grad    0.01 s
 E :    -40.91203555  G :  0.000215    pred/act E change: -0.118D-06 -0.124D-06
Maxdispl :   0.0022   ||displ|| :   0.0039   Lambda : -0.844D-07
Largest |displ|/coords:  0.0022 (   5)  0.0022 (   6)  0.0010 (  10)
................................................................................
.............................. CYCLE   80 ......................................
................................................................................
   1    -41.1291544 -0.411292E+02  0.307E-03    7.84       0.0  T
   2    -41.1291544 -0.111215E-08  0.228E-03    7.84      10.1  T
   3    -41.1291544 -0.919449E-09  0.323E-04    7.84      71.0  T
   4    -41.1291544 -0.127429E-09  0.104E-04    7.84     220.1  T
speedup  1.15
cpu  time for SCC    0.00 s
wall time for SCC    0.00 s
speedup  0.98
cpu  time for grad    0.01 s
wall time for grad    0.01 s
 E :    -40.91203561  G :  0.000139    pred/act E change: -0.937D-07 -0.559D-07
Maxdispl :   0.0017   ||displ|| :   0.0029   Lambda : -0.386D-07
Largest |displ|/coords:  0.0017 (   5)  0.0013 (   6)  0.0012 (   1)

   *** GEOMETRY OPTIMIZATION CONVERGED AFTER 80 ITERATIONS ***

------------------------------------------------------------------------
 total energy gain (kcal):     -0.4480
------------------------------------------------------------------------
================
 final structure:
================
$coord
       -2.19060640038982       -0.97885422338190       -0.77245480639814      S 
       -1.04098968754207       -3.17223906156939        0.29356476820145      O 
       -4.07349088460528        0.27600371046563        1.03678049937574      O 
       -0.63965917873953        0.84743586006469       -2.02091406531875      O 
       -4.04854586379437       -1.98816703763353       -2.90419046625880      O 
       -4.87431458592178       -3.47819518245906       -2.30370824800931      H 
        4.33085946758190       -0.07304395986845       -3.06664868538552      O 
        4.35242048036810       -0.84585392904883       -4.70453330750136      H 
        2.60127215317745        0.46687191789385       -2.76479503187347      H 
        4.01060299804474       -2.32848572211816        1.59650016927352      O 
        4.61458360185290       -1.58568576010933        0.02707315337315      H 
        2.53346313949175       -3.30340334973344        1.14334052345228      H 
        0.55332127473499        0.92214985925793        3.16134472155798      O 
       -0.20889925677938       -0.00399200995807        4.51924815330878      H 
        2.07906281234954       -0.05644183536661        2.69992169491908      H 
       -2.14916008314225        4.65845141995796        1.13850442468867      O 
       -1.44355862265374        4.48866187945739       -0.53547053415768      H 
       -3.56770380329067        2.13871122734930        1.19805504437965      H 
       -0.83865757966343        4.01607617785577        2.25838199233926      H 
$end
 
 Bond Distances (Angstroems)
 ---------------------------
S1-O2=1.4267         S1-O3=1.5331         S1-O4=1.4297         S1-O5=1.5888         O2-S1=1.4267         O3-S1=1.5331         
O3-H18=1.0250        O4-S1=1.4297         O5-S1=1.5888         O5-H6=0.9558         H6-O5=0.9558         O7-H8=0.9584         
O7-H9=0.9720         H8-O7=0.9584         H9-O7=0.9720         O10-H11=0.9728       O10-H12=0.9668       H11-O10=0.9728       
H12-O10=0.9668       O13-H14=0.9588       O13-H15=0.9898       H14-O13=0.9588       H15-O13=0.9898       O16-H17=0.9655       
O16-H19=0.9735       H17-O16=0.9655       H18-O3=1.0250        H19-O16=0.9735       
 O  H  Rav=0.9738 sigma=0.0194  Rmin=0.9558  Rmax=1.0250    10
 S  O  Rav=1.4946 sigma=0.0693  Rmin=1.4267  Rmax=1.5888     4
 
 selected bond angles (degree)
 --------------------
O3-S1-O2=112.49                O4-S1-O2=119.20                O4-S1-O3=111.65                O5-S1-O2=105.73                
O5-S1-O3=100.77                O5-S1-O4=104.74                H18-O3-S1=107.39               H6-O5-S1=108.92                
H9-O7-H8=106.57                H12-O10-H11=105.63             
 
 selected dihedral angles (degree)
 ---------------------------------
H18-O3-S1-O2=126.45           H18-O3-S1-O4=349.36           H18-O3-S1-O5=238.62           H6-O5-S1-O2= 40.20            
H6-O5-S1-O3=282.93            H6-O5-S1-O4=166.94            
 
 CMA Distance (Angstroems)
 ---------------------------
R(CMA):  2.4626

========================================================================
 FINAL SINGLEPOINT CALCULATION ON OPTIMIZED GEOMETRY
========================================================================

 Ncao       : 52
 Nao        : 51
 Nshell     : 29
 Nel        : 64
 T(el)      :   300.0
 intcut     :    25.0
 scfconv/Eh :  0.100E-05
   qconv/e  :  0.100E-03
 intneglect :  0.100E-07
 broydamp   :      0.250
 iter      E             dE          RMSdq      gap      omega  full diag
   1    -41.1291544 -0.411292E+02  0.443E-05    7.84       0.0  T
   2    -41.1291544 -0.122924E-11  0.298E-05    7.84     769.0  T
   3    -41.1291544 -0.130740E-11  0.106E-05    7.84    2164.5  T
speedup  1.05
cpu  time for SCC    0.00 s
wall time for SCC    0.00 s

   *** convergence criteria satisfied after 3 iterations ***

          eigenvalues
 #    :          20         21         22         23         24         25         26         27
 occ. :        2.000      2.000      2.000      2.000      2.000      2.000      2.000      2.000
 eps  :       -14.274    -13.925    -13.890    -13.647    -13.631    -13.285    -13.122    -12.988
 #    :          28         29         30         31         32         33         34         35
 occ. :        2.000      2.000      2.000      2.000      2.000      0.000      0.000      0.000
 eps  :       -12.828    -12.765    -12.088    -11.959    -11.662     -3.823     -1.400     -0.685
 #    :          36         37         38         39         40         41         42         43
 occ. :        0.000      0.000      0.000      0.000      0.000      0.000      0.000      0.000
 eps  :         0.360      0.978      2.035      3.244      3.434      4.877      5.277      6.198


   #   Z            q   n(s)   n(p)   n(d)      C6AA      α(0)
   1  16 S      1.730  1.585  1.750  0.935    88.084    15.796
   2   8 O     -0.681  1.754  4.927  0.000    28.203     7.120
   3   8 O     -0.614  1.757  4.857  0.000    25.487     6.815
   4   8 O     -0.686  1.752  4.934  0.000    28.318     7.135
   5   8 O     -0.589  1.748  4.842  0.000    24.902     6.737
   6   1 H      0.355  0.645  0.000  0.000     0.573     1.187
   7   8 O     -0.601  1.739  4.862  0.000    25.216     6.777
   8   1 H      0.284  0.716  0.000  0.000     0.772     1.380
   9   1 H      0.317  0.683  0.000  0.000     0.673     1.289
  10   8 O     -0.608  1.748  4.860  0.000    25.387     6.800
  11   1 H      0.321  0.679  0.000  0.000     0.660     1.276
  12   1 H      0.305  0.695  0.000  0.000     0.706     1.320
  13   8 O     -0.647  1.755  4.892  0.000    26.329     6.925
  14   1 H      0.291  0.709  0.000  0.000     0.750     1.360
  15   1 H      0.339  0.661  0.000  0.000     0.616     1.233
  16   8 O     -0.577  1.745  4.832  0.000    24.632     6.699
  17   1 H      0.319  0.681  0.000  0.000     0.665     1.281
  18   1 H      0.401  0.599  0.000  0.000     0.479     1.085
  19   1 H      0.341  0.659  0.000  0.000     0.610     1.227

 Mol. C6AA /au·bohr⁶  :       3360.555329
 Mol. C8AA /au·bohr⁸  :      75911.750760
 Mol. α(0) /au        :         83.442539

 
 Wiberg/Mayer (AO) data. WBOs > 0.1 written file <wbo>
 largest (>0.05) Wiberg bond orders for each atom
           total WBO             WBO to atom ...
     1  S   4.799    O    2 1.420    O    4 1.398    O    3 1.013    O    5 0.904
     2  O   1.765    S    1 1.420    O    4 0.128    O    3 0.091    O    5 0.087
     3  O   1.975    S    1 1.013    H   18 0.662    O    4 0.095    O    2 0.091    O    5 0.057    O   16 0.051
     4  O   1.770    S    1 1.398    O    2 0.128    O    3 0.095    O    5 0.066
     5  O   1.976    S    1 0.904    H    6 0.857    O    2 0.087    O    4 0.066    O    3 0.057
     6  H   0.874    O    5 0.857
     7  O   1.852    H    8 0.915    H    9 0.859
     8  H   0.919    O    7 0.915
     9  H   0.900    O    7 0.859
    10  O   1.894    H   12 0.884    H   11 0.858    H   15 0.080
    11  H   0.897    O   10 0.858
    12  H   0.907    O   10 0.884
    13  O   1.835    H   14 0.912    H   15 0.798
    14  H   0.916    O   13 0.912
    15  H   0.885    O   13 0.798    O   10 0.080
    16  O   1.976    H   17 0.885    H   19 0.851    H   18 0.158    O    3 0.051
    17  H   0.898    O   16 0.885
    18  H   0.839    O    3 0.662    O   16 0.158
    19  H   0.884    O   16 0.851
 MOs/occ written to file <molden.input>
 
molecular dipole:
                 x           y           z       tot (Debye)
 q only:       -0.869      -0.139      -0.268
   full:       -1.184      -0.520      -0.547       3.568
molecular quadrupole (traceless):
                xx          xy          yy          xz          yz          zz
 q only:       -3.217       4.850       0.195      -2.068       3.623       3.021
  q+dip:       -5.186       7.448      -0.279      -2.894       3.417       5.466
   full:       -5.113       7.608      -0.496      -3.048       3.684       5.609

SCC energy    :     -41.1291544
rep           :       0.2170036
ES            :       0.1822745
AES           :      -0.0384709
AXC           :      -0.0098260
disp          :      -0.0135388
XB            :       0.0000000
fix           :       0.0000000
total E       :     -40.9120356
atomizationE  :       3.7062228     2325.69
(atE without considering molecular charge,
 total energy contains solvation terms)
H-L gap (eV)  :          7.8394
optimized geometry written to: xtbopt.xyz


------------------------------------------------------------------------
 * finished run on 2019/09/03 at 08:37:42.567     
------------------------------------------------------------------------
 total:
 * wall-time:     0 d,  0 h,  0 min,  1.286 sec
 *  cpu-time:     0 d,  0 h,  0 min,  1.266 sec
 * ratio c/w:     0.984 speedup
 SCF:
 * wall-time:     0 d,  0 h,  0 min,  0.114 sec
 *  cpu-time:     0 d,  0 h,  0 min,  0.110 sec
 * ratio c/w:     0.963 speedup
 ANC optimizer:
 * wall-time:     0 d,  0 h,  0 min,  1.143 sec
 *  cpu-time:     0 d,  0 h,  0 min,  1.132 sec
 * ratio c/w:     0.991 speedup

