      -----------------------------------------------------------      
     |                   =====================                   |     
     |                           x T B                           |     
     |                   =====================                   |     
     |                         S. Grimme                         |     
     |          Mulliken Center for Theoretical Chemistry        |     
     |                    University of Bonn                     |     
     |                 Version 6.0.1 (SAW181210)                 |     
      -----------------------------------------------------------      

   This program is distributed in the hope that it will be useful,
   but WITHOUT ANY WARRANTY; without even the implied warranty of
   MERCHANTABILITY or FITNESS FOR A PARTICULAR PURPOSE.
   
   FOR NON-COMMERCIAL, ACADEMIA USE ONLY.
   
   Cite this work as:
   S. Grimme, C. Bannwarth, P. Shushkov, J. Comput. Theory Chem., 2017,
   13, 1989-2009.
   C. Bannwarth, S. Ehlert and S. Grimme., ChemRxiv, 2018, preprint.
   http://doi.org/10.26434/chemrxiv.7246238.v1
   
   for sTDA-xTB:
   S. Grimme and C. Bannwarth, J. Chem. Phys., 2016, 145, 054103.
   
   in the mass-spec context:
   V. Asgeirsson, C. Bauer and S. Grimme, Chem. Sci., 2017, 8, 4879.
   
   if GBSA is used:
   P. Shushkov, F. März and S. Grimme, unpublished.
   
   for ANC optimizer:
   S. Grimme, unpublished.
   Rational Function algorithm used in ANCopt:
   F. Eckert, P. Pulay, H.-J. Werner, J. Comput. Chem., 1997, 18, 1473.
   
   with help from (in alphabetical order)
   C. Bannwarth, F. Bohle, G. Brandenburg, E. Caldeweyher, M. Checinski,
   S. Dohm, S. Ehlert, S. Ehrlich, F. März, H. Neugebauer, J. Pisarek,
   P. Pracht, P. Shushkov, and S. Spicher.
   
 * started run on 2019/09/03 at 08:43:18.535     
========================================================================
 # omp threads = 1
========================================================================
number of atoms            : 19
number of electrons        : 64
charge                     : 0
spin                       : .0
first test random number   : .4917

########################################################################
# WARNING! Please study the warnings concerning your input carefully
#  - XTBPATH is not set, using XTBHOME instead
#  - the use of '-opt' is discouraged, please use '--opt' next time
#  - the use of '-chrg' is discouraged, please use '--chrg' next time
#  - the use of '-uhf' is discouraged, please use '--uhf' next time
########################################################################

           ------------------------------------------------- 
          |                 G F N 2 - x T B                 |
          | Geometry, Frequencies, Noncovalent interactions |
          |            JCTC 2018 parametrisation            |
           ------------------------------------------------- 
      method parameters     
 k(s)        :  1.8500
 k(p)        :  2.2300
 k(d)        :  2.2300
 k(f)        :  2.0000
 kEN (H0ij)  : -2.0000
 D4 a1       :  0.5200
 D4 a2       :  5.0000
 D4 s6       :  1.0000
 D4 s8       :  2.7000
 D4 s9       :  5.0000
 alphaj      :  2.0000


            Z     q(EN)     CN     RAES       Cart. coordinates
     1  S   6.0    0.64    4.30    4.24    -2.08680    -0.81497    -2.89931
     2  O   6.0   -0.31    1.17    1.80    -2.08309     1.83429    -1.94562
     3  O   6.0   -0.30    1.20    1.80     0.54407    -1.81827    -2.89350
     4  O   6.0   -0.28    1.16    1.80    -3.70312    -2.40965    -1.23420
     5  O   6.0   -0.24    2.08    1.84    -3.09111    -0.86554    -5.48800
     6  H   1.0    0.15    1.21    1.47    -2.05025     0.16170    -6.56154
     7  O   6.0   -0.29    2.02    1.83     0.36583    -0.98764     5.33008
     8  H   1.0    0.15    0.97    1.43     1.11645    -1.90518     6.71185
     9  H   1.0    0.16    1.02    1.43     1.66235    -0.89097     4.05560
    10  O   6.0   -0.29    1.99    1.83     3.46980    -0.95314     1.15697
    11  H   1.0    0.18    1.06    1.44     2.35652    -1.16979    -0.26721
    12  H   1.0    0.15    0.97    1.43     5.00390    -1.82345     0.70562
    13  O   6.0   -0.25    1.92    1.82     4.12567     3.26850    -3.01622
    14  H   1.0    0.15    0.97    1.43     5.14425     3.69757    -1.56949
    15  H   1.0    0.16    0.97    1.43     2.45338     2.97682    -2.35820
    16  O   6.0   -0.21    2.90    2.55    -3.61314     0.61044     2.75881
    17  H   1.0    0.14    1.02    1.43    -3.00155     1.78946     1.44514
    18  H   1.0    0.15    1.00    1.43    -4.30737    -0.95978     2.02229
    19  H   1.0    0.14    1.03    1.43    -2.30579     0.25960     4.04693

  Z AO/shell   Hii/eV     exponent
  1     Wed Apr 25 08:07:45 CEST 2018   EN: 2.200 GM2: 0.406  GM3: 0.0800  RAES: 1.40
     1s    -10.707211    1.230000
  8     Wed Apr 25 08:07:45 CEST 2018   EN: 3.440 GM2: 0.452  GM3:-0.0517  RAES: 1.80
     2s    -20.229985    2.439742
     2p    -15.503117    2.137023
 16     Tue Apr 24 11:44:34 CEST 2018   EN: 2.580 GM2: 0.340  GM3:-0.0502  RAES: 3.10
     3s    -20.029654    1.981333
     3p    -11.377694    2.025643
     3d     -0.420282    1.702555
 no old-style atom pair restraining (fixing) potential

molecular fragmentation (1/2 indicates fragments):
1111112222222222222
# atoms in fragment 1/2:     6    13
 fragment masses (1/2) :       97.07       73.07
CMA distance (Bohr)    :   5.633
constraining FC (au)   :  0.0500
           ------------------------------------------------- 
          |        Self-Consistent Charge Iterations        |
           ------------------------------------------------- 

 Ncao       : 52
 Nao        : 51
 Nshell     : 29
 Nel        : 64
 T(el)      :   300.0
 intcut     :    25.0
 scfconv/Eh :  0.100E-05
   qconv/e  :  0.100E-03
 intneglect :  0.100E-07
 broydamp   :      0.250
 iter      E             dE          RMSdq      gap      omega  full diag
   1    -40.9957085 -0.409957E+02  0.771E+00   10.64       0.0  T
   2    -41.0372214 -0.415129E-01  0.558E+00   10.08       1.0  T
   3    -41.0692344 -0.320130E-01  0.149E+00    8.49       1.0  T
   4    -41.0735242 -0.428976E-02  0.628E-01    8.48       1.0  T
   5    -41.0741565 -0.632386E-03  0.346E-01    8.39       1.0  T
   6    -41.0745295 -0.372927E-03  0.147E-01    8.40       1.0  T
   7    -41.0746159 -0.863873E-04  0.539E-02    8.46       1.0  T
   8    -41.0746270 -0.110958E-04  0.294E-02    8.46       1.0  T
   9    -41.0746303 -0.330647E-05  0.134E-02    8.46       1.7  T
  10    -41.0746311 -0.829557E-06  0.258E-03    8.45       8.9  T
  11    -41.0746311 -0.168512E-07  0.107E-03    8.45      21.5  T
  12    -41.0746311 -0.396390E-08  0.459E-04    8.45      50.0  T
  13    -41.0746311 -0.768374E-09  0.109E-04    8.45     209.6  T
speedup  0.98
cpu  time for SCC    0.01 s
wall time for SCC    0.01 s

   *** convergence criteria satisfied after 13 iterations ***

          eigenvalues
 #    :          20         21         22         23         24         25         26         27
 occ. :        2.000      2.000      2.000      2.000      2.000      2.000      2.000      2.000
 eps  :       -13.604    -13.148    -13.007    -12.859    -12.713    -11.892    -11.762    -11.572
 #    :          28         29         30         31         32         33         34         35
 occ. :        2.000      2.000      2.000      2.000      2.000      0.000      0.000      0.000
 eps  :       -11.385    -11.296    -11.081    -10.857    -10.666     -2.212     -1.037      0.054
 #    :          36         37         38         39         40         41         42         43
 occ. :        0.000      0.000      0.000      0.000      0.000      0.000      0.000      0.000
 eps  :         1.234      1.494      1.653      2.930      3.745      4.025      5.274      7.171


   #   Z            q   n(s)   n(p)   n(d)      C6AA      α(0)
   1  16 S      1.562  1.587  1.864  0.986    91.967    16.141
   2   8 O     -0.778  1.775  5.003  0.000    30.919     7.455
   3   8 O     -0.745  1.781  4.963  0.000    29.952     7.338
   4   8 O     -0.739  1.768  4.971  0.000    29.785     7.317
   5   8 O     -0.537  1.716  4.820  0.000    23.694     6.571
   6   1 H      0.363  0.637  0.000  0.000     0.551     1.161
   7   8 O     -0.617  1.727  4.891  0.000    25.607     6.830
   8   1 H      0.296  0.704  0.000  0.000     0.732     1.344
   9   1 H      0.338  0.662  0.000  0.000     0.616     1.233
  10   8 O     -0.628  1.736  4.892  0.000    25.866     6.864
  11   1 H      0.331  0.669  0.000  0.000     0.635     1.252
  12   1 H      0.286  0.714  0.000  0.000     0.764     1.373
  13   8 O     -0.579  1.742  4.837  0.000    24.684     6.706
  14   1 H      0.278  0.722  0.000  0.000     0.791     1.397
  15   1 H      0.296  0.704  0.000  0.000     0.732     1.344
  16   8 O     -0.389  1.629  4.760  0.000    20.589     6.128
  17   1 H      0.417  0.583  0.000  0.000     0.454     1.059
  18   1 H      0.420  0.580  0.000  0.000     0.450     1.054
  19   1 H      0.424  0.576  0.000  0.000     0.444     1.046

 Mol. C6AA /au·bohr⁶  :       3377.892143
 Mol. C8AA /au·bohr⁸  :      76693.918341
 Mol. α(0) /au        :         83.613531

 
 Wiberg/Mayer (AO) data. WBOs > 0.1 written file <wbo>
 largest (>0.05) Wiberg bond orders for each atom
           total WBO             WBO to atom ...
     1  S   4.947    O    4 1.334    O    3 1.308    O    2 1.275    O    5 1.003
     2  O   1.662    S    1 1.275    O    4 0.114    O    3 0.114    O    5 0.072    H   17 0.058
     3  O   1.692    S    1 1.308    O    4 0.114    O    2 0.114    O    5 0.075    H   11 0.055
     4  O   1.695    S    1 1.334    O    3 0.114    O    2 0.114    O    5 0.055
     5  O   2.054    S    1 1.003    H    6 0.844    O    3 0.075    O    2 0.072    O    4 0.055
     6  H   0.868    O    5 0.844
     7  O   1.854    H    8 0.902    H    9 0.841    H   19 0.067
     8  H   0.912    O    7 0.902
     9  H   0.886    O    7 0.841
    10  O   1.834    H   12 0.912    H   11 0.831
    11  H   0.891    O   10 0.831    O    3 0.055
    12  H   0.918    O   10 0.912
    13  O   1.832    H   14 0.922    H   15 0.905
    14  H   0.923    O   13 0.922
    15  H   0.912    O   13 0.905
    16  O   2.356    H   18 0.773    H   17 0.762    H   19 0.748
    17  H   0.826    O   16 0.762    O    2 0.058
    18  H   0.824    O   16 0.773
    19  H   0.821    O   16 0.748    O    7 0.067
 MOs/occ written to file <molden.input>
 
molecular dipole:
                 x           y           z       tot (Debye)
 q only:       -0.555       0.625       2.774
   full:       -0.312       0.390       2.180       5.684
molecular quadrupole (traceless):
                xx          xy          yy          xz          yz          zz
 q only:       -0.515      -6.587      -8.672      -1.270      -2.775       9.188
  q+dip:       -1.999      -7.557      -9.229       4.650      -2.966      11.229
   full:       -1.893      -7.501      -9.905       4.862      -3.093      11.798

SCC energy    :     -41.0746311
rep           :       0.2162856
ES            :       0.2512765
AES           :      -0.0508981
AXC           :      -0.0110183
disp          :      -0.0119571
XB            :       0.0000000
fix           :       0.0000000
total E       :     -40.8582227
atomizationE  :       3.6524099     2291.92
(atE without considering molecular charge,
 total energy contains solvation terms)
H-L gap (eV)  :          8.4534
           ------------------------------------------------- 
          |                 ===============                 |
          |                   A N C O P T                   |
          |                 ===============                 |
          |          Approximate Normal Coordinate          |
          |           Rational Function Optimizer           |
           ------------------------------------------------- 
dumping coords to <xtbopt.coord> and <xtbopt.log>
 optlevel               2
 Maxcycle             380
 Maxmicro              25
 Econv         1.000000000000000E-007
 Gconv         2.000000000000000E-004
 Maxdispl       1.00000000000000     
 Hlow          5.000000000000000E-003
 S6             20.0000000000000     
 Nvar               51

generating ANC from model Hessian ...
 Shifting diagonal of input Hessian by   5.118049308736689E-003
 Lowest  eigenvalues of input Hessian
    0.005000    0.005074   -0.000000   -0.000000    0.000000    0.000000
    0.000000    0.000000    0.005456    0.005601    0.005704    0.005821
    0.006123    0.006225    0.006576    0.006978    0.008271    0.008914
 Highest eigenvalues
    1.451076    1.544850    1.554555    3.133935    3.206988    3.308814
 
cpu  time for ANC gen    0.00 s
wall time for ANC gen    0.01 s
................................................................................
.............................. CYCLE    1 ......................................
................................................................................
   1    -41.0746311 -0.410746E+02  0.836E-05    8.45       0.0  T
   2    -41.0746311 -0.934364E-11  0.659E-05    8.45     348.2  T
   3    -41.0746311 -0.128395E-10  0.281E-05    8.45     816.4  T
speedup  1.00
cpu  time for SCC    0.00 s
wall time for SCC    0.00 s
speedup  0.96
cpu  time for grad    0.01 s
wall time for grad    0.01 s
 E :    -40.85822263  G :  0.155866    pred/act E change:  0.000D+00  0.326D-07
Maxdispl :   0.2913   ||displ|| :   0.5214   Lambda : -0.238D-01
Largest |displ|/coords:  0.2913 (  19)  0.2892 (  20)  0.1522 (   6)
................................................................................
.............................. CYCLE    2 ......................................
................................................................................
   1    -41.0872170 -0.410872E+02  0.463E-01    8.88       0.0  T
   2    -41.0873551 -0.138031E-03  0.351E-01    8.94       1.0  T
   3    -41.0874234 -0.683104E-04  0.104E-01    9.06       1.0  T
   4    -41.0874391 -0.157052E-04  0.236E-02    9.05       1.0  T
   5    -41.0874403 -0.127176E-05  0.793E-03    9.04       2.9  T
   6    -41.0874404 -0.906859E-07  0.453E-03    9.04       5.1  T
   7    -41.0874405 -0.628555E-07  0.224E-03    9.04      10.2  T
speedup  0.91
cpu  time for SCC    0.00 s
wall time for SCC    0.00 s
speedup  0.96
cpu  time for grad    0.01 s
wall time for grad    0.01 s
 E :    -40.87875918  G :  0.104540    pred/act E change:  0.000D+00 -0.205D-01
Maxdispl :   0.3400   ||displ|| :   0.5192   Lambda : -0.165D-01
Largest |displ|/coords:  0.3400 (  19)  0.2660 (  20)  0.1455 (  17)
................................................................................
.............................. CYCLE    3 ......................................
................................................................................
   1    -41.0960122 -0.410960E+02  0.342E-01    9.17       0.0  T
   2    -41.0963088 -0.296627E-03  0.247E-01    9.16       1.0  T
   3    -41.0964488 -0.139975E-03  0.115E-01    9.12       1.0  T
   4    -41.0964564 -0.765069E-05  0.253E-02    9.10       1.0  T
   5    -41.0964578 -0.135837E-05  0.935E-03    9.10       2.5  T
   6    -41.0964579 -0.154693E-06  0.520E-03    9.10       4.4  T
   7    -41.0964580 -0.933994E-07  0.257E-03    9.10       8.9  T
speedup  0.87
cpu  time for SCC    0.00 s
wall time for SCC    0.00 s
speedup  0.94
cpu  time for grad    0.01 s
wall time for grad    0.01 s
 E :    -40.89161312  G :  0.066380    pred/act E change: -0.151D-01 -0.129D-01
Maxdispl :   0.1674   ||displ|| :   0.4046   Lambda : -0.685D-02
Largest |displ|/coords:  0.1674 (  19)  0.1508 (  11)  0.1255 (   5)
................................................................................
.............................. CYCLE    4 ......................................
................................................................................
   1    -41.0973729 -0.410974E+02  0.298E-01    8.95       0.0  T
   2    -41.0975470 -0.174101E-03  0.218E-01    8.92       1.0  T
   3    -41.0976230 -0.760398E-04  0.956E-02    8.88       1.0  T
   4    -41.0976292 -0.616054E-05  0.210E-02    8.87       1.1  T
   5    -41.0976302 -0.104099E-05  0.654E-03    8.87       3.5  T
   6    -41.0976303 -0.622325E-07  0.356E-03    8.87       6.4  T
   7    -41.0976303 -0.377945E-07  0.176E-03    8.87      13.1  T
speedup  0.93
cpu  time for SCC    0.00 s
wall time for SCC    0.00 s
speedup  0.96
cpu  time for grad    0.01 s
wall time for grad    0.01 s
 E :    -40.89665162  G :  0.039335    pred/act E change: -0.105D-01 -0.504D-02
Maxdispl :   0.2463   ||displ|| :   0.5335   Lambda : -0.497D-02
Largest |displ|/coords:  0.2463 (  11)  0.2257 (   5)  0.2118 (   9)
................................................................................
.............................. CYCLE    5 ......................................
................................................................................
   1    -41.0972948 -0.410973E+02  0.369E-01    8.64       0.0  T
   2    -41.0974079 -0.113066E-03  0.277E-01    8.61       1.0  T
   3    -41.0974489 -0.410333E-04  0.985E-02    8.54       1.0  T
   4    -41.0974587 -0.975034E-05  0.232E-02    8.54       1.0  T
   5    -41.0974595 -0.785449E-06  0.556E-03    8.55       4.1  T
   6    -41.0974595 -0.369998E-07  0.257E-03    8.55       8.9  T
speedup  1.08
cpu  time for SCC    0.00 s
wall time for SCC    0.00 s
speedup  1.01
cpu  time for grad    0.01 s
wall time for grad    0.01 s
 E :    -40.89938616  G :  0.025464    pred/act E change: -0.399D-02 -0.273D-02
Maxdispl :   0.2545   ||displ|| :   0.5158   Lambda : -0.275D-02
Largest |displ|/coords:  0.2545 (   5)  0.2145 (   6)  0.1677 (   9)
................................................................................
.............................. CYCLE    6 ......................................
................................................................................
   1    -41.0944252 -0.410944E+02  0.330E-01    8.34       0.0  T
   2    -41.0944706 -0.453463E-04  0.250E-01    8.34       1.0  T
   3    -41.0944884 -0.178056E-04  0.625E-02    8.35       1.0  T
   4    -41.0944953 -0.690018E-05  0.136E-02    8.34       1.7  T
   5    -41.0944955 -0.247018E-06  0.392E-03    8.33       5.9  T
   6    -41.0944955 -0.932383E-08  0.167E-03    8.33      13.7  T
speedup  0.87
cpu  time for SCC    0.00 s
wall time for SCC    0.00 s
speedup  0.92
cpu  time for grad    0.01 s
wall time for grad    0.01 s
 E :    -40.90049307  G :  0.034733    pred/act E change: -0.320D-02 -0.111D-02
Maxdispl :   0.3239   ||displ|| :   0.5485   Lambda : -0.389D-02
Largest |displ|/coords:  0.3239 (   5)  0.2489 (   7)  0.1846 (   9)
................................................................................
.............................. CYCLE    7 ......................................
................................................................................
   1    -41.1056032 -0.411056E+02  0.602E-01    8.38       0.0  T
   2    -41.1057756 -0.172352E-03  0.454E-01    8.31       1.0  T
   3    -41.1058704 -0.948751E-04  0.989E-02    8.14       1.0  T
   4    -41.1058920 -0.215294E-04  0.251E-02    8.19       1.0  T
   5    -41.1058940 -0.202708E-05  0.676E-03    8.22       3.4  T
   6    -41.1058940 -0.263181E-07  0.380E-03    8.22       6.0  T
   7    -41.1058940 -0.116120E-07  0.939E-04    8.22      24.4  T
speedup  0.91
cpu  time for SCC    0.00 s
wall time for SCC    0.00 s
speedup  0.94
cpu  time for grad    0.01 s
wall time for grad    0.01 s
 E :    -40.90030986  G :  0.042439    pred/act E change: -0.174D-02  0.183D-03
Maxdispl :   0.2085   ||displ|| :   0.3249   Lambda : -0.410D-02
Largest |displ|/coords:  0.2085 (  16)  0.1422 (  13)  0.1084 (   6)
................................................................................
.............................. CYCLE    8 ......................................
................................................................................
   1    -41.1070555 -0.411071E+02  0.334E-01    8.31       0.0  T
   2    -41.1070992 -0.437688E-04  0.249E-01    8.30       1.0  T
   3    -41.1071192 -0.199528E-04  0.669E-02    8.29       1.0  T
   4    -41.1071247 -0.556676E-05  0.112E-02    8.28       2.0  T
   5    -41.1071250 -0.205144E-06  0.400E-03    8.28       5.7  T
   6    -41.1071250 -0.980685E-08  0.175E-03    8.28      13.1  T
speedup  1.05
cpu  time for SCC    0.00 s
wall time for SCC    0.00 s
speedup  1.00
cpu  time for grad    0.01 s
wall time for grad    0.01 s
 E :    -40.90166298  G :  0.026909    pred/act E change: -0.253D-02 -0.135D-02
Maxdispl :   0.1176   ||displ|| :   0.2550   Lambda : -0.300D-02
Largest |displ|/coords:  0.1176 (  19)  0.1056 (  16)  0.1008 (  20)
................................................................................
.............................. CYCLE    9 ......................................
................................................................................
   1    -41.1034486 -0.411034E+02  0.267E-01    8.47       0.0  T
   2    -41.1035384 -0.898523E-04  0.191E-01    8.51       1.0  T
   3    -41.1035752 -0.367303E-04  0.570E-02    8.59       1.0  T
   4    -41.1035818 -0.664677E-05  0.101E-02    8.58       2.3  T
   5    -41.1035820 -0.155271E-06  0.404E-03    8.58       5.7  T
   6    -41.1035820 -0.284700E-07  0.233E-03    8.57       9.9  T
speedup  1.05
cpu  time for SCC    0.00 s
wall time for SCC    0.00 s
speedup  1.00
cpu  time for grad    0.01 s
wall time for grad    0.01 s
 E :    -40.90240142  G :  0.020822    pred/act E change: -0.227D-02 -0.738D-03
Maxdispl :   0.1228   ||displ|| :   0.2795   Lambda : -0.152D-02
Largest |displ|/coords:  0.1228 (   9)  0.1194 (   5)  0.1138 (  13)
................................................................................
.............................. CYCLE   10 ......................................
................................................................................
   1    -41.1076705 -0.411077E+02  0.408E-01    8.46       0.0  T
   2    -41.1077277 -0.571753E-04  0.308E-01    8.45       1.0  T
   3    -41.1077624 -0.346589E-04  0.537E-02    8.41       1.0  T
   4    -41.1077707 -0.830569E-05  0.138E-02    8.42       1.7  T
   5    -41.1077711 -0.442734E-06  0.448E-03    8.42       5.1  T
   6    -41.1077711 -0.603529E-08  0.246E-03    8.42       9.3  T
speedup  1.05
cpu  time for SCC    0.00 s
wall time for SCC    0.00 s
speedup  0.99
cpu  time for grad    0.01 s
wall time for grad    0.01 s
 E :    -40.90205959  G :  0.038824    pred/act E change: -0.160D-02  0.342D-03
Maxdispl :   0.1396   ||displ|| :   0.3226   Lambda : -0.271D-02
Largest |displ|/coords:  0.1396 (  15)  0.1328 (  17)  0.1281 (   4)
................................................................................
.............................. CYCLE   11 ......................................
................................................................................
   1    -41.0995010 -0.410995E+02  0.469E-01    8.25       0.0  T
   2    -41.0996204 -0.119404E-03  0.349E-01    8.22       1.0  T
   3    -41.0996794 -0.589925E-04  0.715E-02    8.16       1.0  T
   4    -41.0996966 -0.171856E-04  0.124E-02    8.17       1.9  T
   5    -41.0996967 -0.136510E-06  0.588E-03    8.17       3.9  T
   6    -41.0996967 -0.315056E-07  0.254E-03    8.17       9.0  T
speedup  1.05
cpu  time for SCC    0.00 s
wall time for SCC    0.00 s
speedup  1.00
cpu  time for grad    0.01 s
wall time for grad    0.01 s
 E :    -40.90229983  G :  0.029317    pred/act E change: -0.818D-03 -0.240D-03
Maxdispl :   0.1374   ||displ|| :   0.2553   Lambda : -0.228D-02
Largest |displ|/coords:  0.1374 (  17)  0.1070 (  15)  0.0683 (   8)
................................................................................
.............................. CYCLE   12 ......................................
................................................................................
   1    -41.1077981 -0.411078E+02  0.321E-01    8.45       0.0  T
   2    -41.1078458 -0.477273E-04  0.241E-01    8.48       1.0  T
   3    -41.1078701 -0.242936E-04  0.469E-02    8.53       1.0  T
   4    -41.1078776 -0.750777E-05  0.107E-02    8.53       2.1  T
   5    -41.1078778 -0.157107E-06  0.359E-03    8.53       6.4  T
   6    -41.1078778 -0.936456E-08  0.201E-03    8.53      11.4  T
speedup  1.05
cpu  time for SCC    0.00 s
wall time for SCC    0.00 s
speedup  0.98
cpu  time for grad    0.01 s
wall time for grad    0.01 s
 E :    -40.90317407  G :  0.009162    pred/act E change: -0.150D-02 -0.874D-03
Maxdispl :   0.1014   ||displ|| :   0.2033   Lambda : -0.570D-03
Largest |displ|/coords:  0.1014 (   5)  0.0733 (   3)  0.0701 (   6)
................................................................................
.............................. CYCLE   13 ......................................
................................................................................
   1    -41.1033107 -0.411033E+02  0.230E-01    8.42       0.0  T
   2    -41.1033234 -0.127864E-04  0.174E-01    8.41       1.0  T
   3    -41.1033310 -0.753805E-05  0.232E-02    8.39       1.0  T
   4    -41.1033331 -0.212770E-05  0.663E-03    8.39       3.5  T
   5    -41.1033332 -0.693627E-07  0.202E-03    8.39      11.3  T
   6    -41.1033332 -0.218255E-08  0.110E-03    8.39      20.9  T
speedup  1.08
cpu  time for SCC    0.00 s
wall time for SCC    0.00 s
speedup  1.00
cpu  time for grad    0.01 s
wall time for grad    0.01 s
 E :    -40.90318633  G :  0.020119    pred/act E change: -0.121D-02 -0.123D-04
Maxdispl :   0.0654   ||displ|| :   0.1282   Lambda : -0.574D-03
Largest |displ|/coords:  0.0654 (   1)  0.0510 (   3)  0.0464 (   4)
................................................................................
.............................. CYCLE   14 ......................................
................................................................................
   1    -41.1050870 -0.411051E+02  0.119E-01    8.44       0.0  T
   2    -41.1050922 -0.515678E-05  0.887E-02    8.44       1.0  T
   3    -41.1050957 -0.346355E-05  0.162E-02    8.44       1.4  T
   4    -41.1050963 -0.626760E-06  0.596E-03    8.44       3.8  T
   5    -41.1050963 -0.409186E-07  0.172E-03    8.45      13.4  T
speedup  0.94
cpu  time for SCC    0.00 s
wall time for SCC    0.00 s
speedup  0.95
cpu  time for grad    0.01 s
wall time for grad    0.01 s
 E :    -40.90343908  G :  0.010226    pred/act E change: -0.297D-03 -0.253D-03
Maxdispl :   0.1148   ||displ|| :   0.1948   Lambda : -0.397D-03
Largest |displ|/coords:  0.1148 (   3)  0.0660 (   1)  0.0515 (   5)
................................................................................
.............................. CYCLE   15 ......................................
................................................................................
   1    -41.1059075 -0.411059E+02  0.187E-01    8.49       0.0  T
   2    -41.1059205 -0.129922E-04  0.139E-01    8.49       1.0  T
   3    -41.1059252 -0.476240E-05  0.266E-02    8.50       1.0  T
   4    -41.1059273 -0.208868E-05  0.727E-03    8.50       3.2  T
   5    -41.1059274 -0.967069E-07  0.219E-03    8.50      10.5  T
   6    -41.1059274 -0.224552E-08  0.123E-03    8.50      18.7  T
speedup  1.05
cpu  time for SCC    0.00 s
wall time for SCC    0.00 s
speedup  1.00
cpu  time for grad    0.01 s
wall time for grad    0.01 s
 E :    -40.90349525  G :  0.013299    pred/act E change: -0.292D-03 -0.562D-04
Maxdispl :   0.0714   ||displ|| :   0.1221   Lambda : -0.320D-03
Largest |displ|/coords:  0.0714 (   5)  0.0442 (   1)  0.0405 (   2)
................................................................................
.............................. CYCLE   16 ......................................
................................................................................
   1    -41.1063072 -0.411063E+02  0.105E-01    8.49       0.0  T
   2    -41.1063104 -0.319233E-05  0.797E-02    8.49       1.0  T
   3    -41.1063128 -0.237441E-05  0.115E-02    8.47       2.0  T
   4    -41.1063133 -0.510655E-06  0.264E-03    8.48       8.7  T
   5    -41.1063133 -0.590028E-08  0.127E-03    8.48      18.0  T
speedup  0.94
cpu  time for SCC    0.00 s
wall time for SCC    0.00 s
speedup  0.95
cpu  time for grad    0.01 s
wall time for grad    0.01 s
 E :    -40.90372034  G :  0.006023    pred/act E change: -0.206D-03 -0.225D-03
Maxdispl :   0.1759   ||displ|| :   0.3547   Lambda : -0.409D-03
Largest |displ|/coords:  0.1759 (   4)  0.1731 (   5)  0.1627 (   1)
................................................................................
.............................. CYCLE   17 ......................................
................................................................................
   1    -41.1029562 -0.411030E+02  0.268E-01    8.49       0.0  T
   2    -41.1029652 -0.906502E-05  0.203E-01    8.49       1.0  T
   3    -41.1029729 -0.767900E-05  0.187E-02    8.49       1.2  T
   4    -41.1029742 -0.126311E-05  0.544E-03    8.49       4.2  T
   5    -41.1029742 -0.193884E-07  0.287E-03    8.49       8.0  T
   6    -41.1029742 -0.966783E-08  0.107E-03    8.49      21.5  T
speedup  1.05
cpu  time for SCC    0.00 s
wall time for SCC    0.00 s
speedup  1.00
cpu  time for grad    0.01 s
wall time for grad    0.01 s
 E :    -40.90386811  G :  0.017742    pred/act E change: -0.162D-03 -0.148D-03
Maxdispl :   0.1818   ||displ|| :   0.2720   Lambda : -0.421D-03
Largest |displ|/coords:  0.1818 (   1)  0.1400 (   5)  0.0952 (   3)
................................................................................
.............................. CYCLE   18 ......................................
................................................................................
   1    -41.1042907 -0.411043E+02  0.117E-01    8.50       0.0  T
   2    -41.1042942 -0.349476E-05  0.884E-02    8.49       1.0  T
   3    -41.1042980 -0.381018E-05  0.136E-02    8.49       1.7  T
   4    -41.1042983 -0.345342E-06  0.548E-03    8.49       4.2  T
   5    -41.1042983 -0.316938E-07  0.147E-03    8.49      15.6  T
   6    -41.1042983 -0.188462E-08  0.857E-04    8.49      26.8  T
speedup  1.08
cpu  time for SCC    0.00 s
wall time for SCC    0.00 s
speedup  1.00
cpu  time for grad    0.01 s
wall time for grad    0.01 s
 E :    -40.90413069  G :  0.009764    pred/act E change: -0.230D-03 -0.263D-03
Maxdispl :   0.2533   ||displ|| :   0.4068   Lambda : -0.438D-03
Largest |displ|/coords:  0.2533 (   1)  0.2375 (   5)  0.1449 (   3)
................................................................................
.............................. CYCLE   19 ......................................
................................................................................
   1    -41.1050074 -0.411050E+02  0.204E-01    8.55       0.0  T
   2    -41.1050167 -0.926180E-05  0.154E-01    8.54       1.0  T
   3    -41.1050241 -0.744103E-05  0.211E-02    8.52       1.1  T
   4    -41.1050255 -0.139797E-05  0.772E-03    8.53       3.0  T
   5    -41.1050256 -0.898908E-07  0.280E-03    8.53       8.2  T
   6    -41.1050256 -0.755681E-08  0.143E-03    8.53      16.0  T
speedup  1.08
cpu  time for SCC    0.00 s
wall time for SCC    0.00 s
speedup  1.00
cpu  time for grad    0.01 s
wall time for grad    0.01 s
 E :    -40.90444690  G :  0.011548    pred/act E change: -0.226D-03 -0.316D-03
Maxdispl :   0.4303   ||displ|| :   0.6412   Lambda : -0.678D-03
Largest |displ|/coords:  0.4303 (   1)  0.3462 (   5)  0.2343 (   3)
................................................................................
.............................. CYCLE   20 ......................................
................................................................................
   1    -41.1033851 -0.411034E+02  0.334E-01    8.66       0.0  T
   2    -41.1034003 -0.152088E-04  0.251E-01    8.68       1.0  T
   3    -41.1034145 -0.142529E-04  0.238E-02    8.71       1.0  T
   4    -41.1034165 -0.193295E-05  0.986E-03    8.70       2.3  T
   5    -41.1034166 -0.101168E-06  0.392E-03    8.70       5.9  T
   6    -41.1034166 -0.167100E-07  0.199E-03    8.70      11.5  T
   7    -41.1034166 -0.775254E-08  0.558E-04    8.70      41.1  T
speedup  0.91
cpu  time for SCC    0.00 s
wall time for SCC    0.00 s
speedup  1.03
cpu  time for grad    0.01 s
wall time for grad    0.01 s
 E :    -40.90495442  G :  0.017906    pred/act E change: -0.255D-03 -0.508D-03
Maxdispl :   0.3920   ||displ|| :   0.5639   Lambda : -0.117D-02
Largest |displ|/coords:  0.3920 (   1)  0.3226 (   5)  0.1145 (   4)
................................................................................
.............................. CYCLE   21 ......................................
................................................................................
   1    -41.1094649 -0.411095E+02  0.282E-01    8.97       0.0  T
   2    -41.1094893 -0.243085E-04  0.209E-01    8.96       1.0  T
   3    -41.1095057 -0.164374E-04  0.349E-02    8.95       1.0  T
   4    -41.1095087 -0.297367E-05  0.106E-02    8.97       2.2  T
   5    -41.1095088 -0.134729E-06  0.391E-03    8.97       5.9  T
   6    -41.1095088 -0.827686E-08  0.212E-03    8.97      10.8  T
   7    -41.1095088 -0.621331E-08  0.478E-04    8.97      48.0  T
speedup  0.93
cpu  time for SCC    0.00 s
wall time for SCC    0.00 s
speedup  0.94
cpu  time for grad    0.01 s
wall time for grad    0.01 s
 E :    -40.90471997  G :  0.037269    pred/act E change: -0.479D-03  0.234D-03
Maxdispl :   0.1972   ||displ|| :   0.3141   Lambda : -0.233D-02
Largest |displ|/coords:  0.1972 (   3)  0.1797 (   5)  0.1113 (   1)
................................................................................
.............................. CYCLE   22 ......................................
................................................................................
   1    -41.1042384 -0.411042E+02  0.233E-01    8.86       0.0  T
   2    -41.1042616 -0.231709E-04  0.173E-01    8.88       1.0  T
   3    -41.1042767 -0.151359E-04  0.339E-02    8.90       1.0  T
   4    -41.1042796 -0.288968E-05  0.991E-03    8.88       2.3  T
   5    -41.1042797 -0.114304E-06  0.374E-03    8.88       6.1  T
   6    -41.1042797 -0.109387E-07  0.200E-03    8.88      11.5  T
speedup  1.00
cpu  time for SCC    0.00 s
wall time for SCC    0.00 s
speedup  0.98
cpu  time for grad    0.01 s
wall time for grad    0.01 s
 E :    -40.90600491  G :  0.021465    pred/act E change: -0.773D-03 -0.128D-02
Maxdispl :   0.2458   ||displ|| :   0.3728   Lambda : -0.197D-02
Largest |displ|/coords:  0.2458 (   5)  0.1409 (  14)  0.1164 (   1)
................................................................................
.............................. CYCLE   23 ......................................
................................................................................
   1    -41.1030393 -0.411030E+02  0.389E-01    8.86       0.0  T
   2    -41.1031165 -0.771248E-04  0.288E-01    8.86       1.0  T
   3    -41.1031649 -0.484055E-04  0.599E-02    8.86       1.0  T
   4    -41.1031744 -0.948381E-05  0.134E-02    8.87       1.7  T
   5    -41.1031745 -0.197335E-06  0.614E-03    8.87       3.7  T
   6    -41.1031746 -0.376834E-07  0.310E-03    8.87       7.4  T
   7    -41.1031746 -0.126279E-07  0.712E-04    8.87      32.2  T
speedup  1.14
cpu  time for SCC    0.00 s
wall time for SCC    0.00 s
speedup  1.04
cpu  time for grad    0.01 s
wall time for grad    0.01 s
 E :    -40.90481449  G :  0.056683    pred/act E change: -0.128D-02  0.119D-02
Maxdispl :   0.1578   ||displ|| :   0.3848   Lambda : -0.953D-02
Largest |displ|/coords:  0.1578 (  14)  0.1262 (  11)  0.1245 (   8)
................................................................................
.............................. CYCLE   24 ......................................
................................................................................
   1    -41.1016397 -0.411016E+02  0.624E-01    8.99       0.0  T
   2    -41.1018931 -0.253376E-03  0.461E-01    8.99       1.0  T
   3    -41.1020548 -0.161762E-03  0.103E-01    9.00       1.0  T
   4    -41.1020841 -0.292562E-04  0.215E-02    8.99       1.1  T
   5    -41.1020844 -0.357259E-06  0.114E-02    8.99       2.0  T
   6    -41.1020846 -0.136410E-06  0.382E-03    8.99       6.0  T
   7    -41.1020846 -0.198240E-07  0.109E-03    8.99      21.1  T
speedup  0.93
cpu  time for SCC    0.00 s
wall time for SCC    0.00 s
speedup  0.95
cpu  time for grad    0.01 s
wall time for grad    0.01 s
 E :    -40.90337078  G :  0.079936    pred/act E change: -0.112D-02  0.144D-02
Maxdispl :   0.1195   ||displ|| :   0.3503   Lambda : -0.132D-01
Largest |displ|/coords:  0.1195 (  15)  0.1094 (   7)  0.1062 (  12)
................................................................................
.............................. CYCLE   25 ......................................
................................................................................
   1    -41.1144379 -0.411144E+02  0.585E-01    9.01       0.0  T
   2    -41.1147081 -0.270199E-03  0.431E-01    8.99       1.0  T
   3    -41.1148908 -0.182684E-03  0.107E-01    8.97       1.0  T
   4    -41.1149170 -0.261721E-04  0.216E-02    8.99       1.1  T
   5    -41.1149176 -0.638539E-06  0.112E-02    8.99       2.0  T
   6    -41.1149177 -0.449252E-07  0.472E-03    8.99       4.9  T
   7    -41.1149177 -0.489518E-07  0.106E-03    8.99      21.7  T
speedup  1.14
cpu  time for SCC    0.00 s
wall time for SCC    0.00 s
speedup  1.04
cpu  time for grad    0.01 s
wall time for grad    0.01 s
 E :    -40.90367405  G :  0.081170    pred/act E change: -0.547D-02 -0.303D-03
Maxdispl :   0.1418   ||displ|| :   0.3687   Lambda : -0.130D-01
Largest |displ|/coords:  0.1418 (  14)  0.1304 (   6)  0.1177 (   3)

generating ANC from model Hessian ...
 Shifting diagonal of input Hessian by   5.079854323651068E-003
 Lowest  eigenvalues of input Hessian
    0.005000   -0.000000   -0.000000    0.000000    0.000000    0.000000
    0.000000    0.005580    0.005835    0.006131    0.006867    0.008470
    0.008884    0.009587    0.010353    0.014145    0.016973    0.020124
 Highest eigenvalues
    1.345043    1.368383    1.387629    2.706464    3.362722    3.589961
 
cpu  time for ANC gen    0.01 s
wall time for ANC gen    0.01 s
................................................................................
.............................. CYCLE   26 ......................................
................................................................................
   1    -41.0906591 -0.410907E+02  0.578E-01    8.81       0.0  T
   2    -41.0909512 -0.292125E-03  0.421E-01    8.81       1.0  T
   3    -41.0911113 -0.160065E-03  0.111E-01    8.81       1.0  T
   4    -41.0911381 -0.267858E-04  0.220E-02    8.79       1.0  T
   5    -41.0911387 -0.661661E-06  0.957E-03    8.79       2.4  T
   6    -41.0911389 -0.146335E-06  0.550E-03    8.79       4.2  T
   7    -41.0911389 -0.279563E-07  0.111E-03    8.79      20.7  T
   8    -41.0911389 -0.162898E-08  0.311E-04    8.79      73.8  T
   9    -41.0911389 -0.166501E-09  0.110E-04    8.79     208.5  T
speedup  0.91
cpu  time for SCC    0.00 s
wall time for SCC    0.01 s
speedup  1.00
cpu  time for grad    0.01 s
wall time for grad    0.01 s
 E :    -40.90477111  G :  0.057457    pred/act E change:  0.000D+00 -0.110D-02
Maxdispl :   0.1668   ||displ|| :   0.3049   Lambda : -0.452D-02
Largest |displ|/coords:  0.1668 (   2)  0.1542 (   4)  0.1038 (   3)
................................................................................
.............................. CYCLE   27 ......................................
................................................................................
   1    -41.1013569 -0.411014E+02  0.247E-01    8.94       0.0  T
   2    -41.1013816 -0.247634E-04  0.183E-01    8.94       1.0  T
   3    -41.1013949 -0.132325E-04  0.333E-02    8.95       1.0  T
   4    -41.1013981 -0.325478E-05  0.858E-03    8.96       2.7  T
   5    -41.1013982 -0.131671E-06  0.325E-03    8.96       7.1  T
   6    -41.1013982 -0.538817E-08  0.179E-03    8.96      12.8  T
speedup  0.81
cpu  time for SCC    0.00 s
wall time for SCC    0.00 s
speedup  0.89
cpu  time for grad    0.01 s
wall time for grad    0.01 s
 E :    -40.90773356  G :  0.022590    pred/act E change:  0.000D+00 -0.296D-02
Maxdispl :   0.2106   ||displ|| :   0.3555   Lambda : -0.180D-02
Largest |displ|/coords:  0.2106 (   2)  0.1784 (   7)  0.1577 (   1)
................................................................................
.............................. CYCLE   28 ......................................
................................................................................
   1    -41.1102643 -0.411103E+02  0.165E-01    9.13       0.0  T
   2    -41.1102817 -0.173332E-04  0.122E-01    9.13       1.0  T
   3    -41.1102919 -0.101823E-04  0.298E-02    9.15       1.0  T
   4    -41.1102935 -0.162723E-05  0.848E-03    9.16       2.7  T
   5    -41.1102936 -0.129613E-06  0.279E-03    9.16       8.2  T
   6    -41.1102936 -0.353108E-08  0.160E-03    9.16      14.3  T
speedup  1.05
cpu  time for SCC    0.00 s
wall time for SCC    0.00 s
speedup  0.99
cpu  time for grad    0.01 s
wall time for grad    0.01 s
 E :    -40.90872365  G :  0.013893    pred/act E change: -0.247D-02 -0.990D-03
Maxdispl :   0.3589   ||displ|| :   0.5081   Lambda : -0.127D-02
Largest |displ|/coords:  0.3589 (   2)  0.2442 (   3)  0.2053 (   1)
................................................................................
.............................. CYCLE   29 ......................................
................................................................................
   1    -41.1078404 -0.411078E+02  0.294E-01    9.23       0.0  T
   2    -41.1078593 -0.189000E-04  0.220E-01    9.27       1.0  T
   3    -41.1078725 -0.131941E-04  0.307E-02    9.35       1.0  T
   4    -41.1078752 -0.269844E-05  0.811E-03    9.33       2.8  T
   5    -41.1078754 -0.110746E-06  0.390E-03    9.32       5.9  T
   6    -41.1078754 -0.103853E-07  0.203E-03    9.32      11.3  T
   7    -41.1078754 -0.716135E-08  0.409E-04    9.32      56.1  T
speedup  1.16
cpu  time for SCC    0.01 s
wall time for SCC    0.00 s
speedup  1.04
cpu  time for grad    0.01 s
wall time for grad    0.01 s
 E :    -40.90968992  G :  0.022776    pred/act E change: -0.101D-02 -0.966D-03
Maxdispl :   0.3737   ||displ|| :   0.5630   Lambda : -0.132D-02
Largest |displ|/coords:  0.3737 (   2)  0.2863 (   1)  0.2271 (   7)
................................................................................
.............................. CYCLE   30 ......................................
................................................................................
   1    -41.1038609 -0.411039E+02  0.265E-01    9.42       0.0  T
   2    -41.1038780 -0.171681E-04  0.199E-01    9.46       1.0  T
   3    -41.1038907 -0.126229E-04  0.267E-02    9.53       1.0  T
   4    -41.1038930 -0.235564E-05  0.921E-03    9.52       2.5  T
   5    -41.1038931 -0.934933E-07  0.342E-03    9.52       6.7  T
   6    -41.1038931 -0.819361E-08  0.203E-03    9.52      11.3  T
speedup  0.79
cpu  time for SCC    0.00 s
wall time for SCC    0.00 s
speedup  1.00
cpu  time for grad    0.01 s
wall time for grad    0.01 s
 E :    -40.91038983  G :  0.020355    pred/act E change: -0.800D-03 -0.700D-03
Maxdispl :   0.1753   ||displ|| :   0.3545   Lambda : -0.129D-02
Largest |displ|/coords:  0.1753 (   5)  0.1751 (   2)  0.1660 (   1)
................................................................................
.............................. CYCLE   31 ......................................
................................................................................
   1    -41.1038996 -0.411039E+02  0.313E-01    9.55       0.0  T
   2    -41.1039182 -0.186000E-04  0.238E-01    9.55       1.0  T
   3    -41.1039361 -0.179665E-04  0.280E-02    9.55       1.0  T
   4    -41.1039382 -0.203299E-05  0.111E-02    9.55       2.1  T
   5    -41.1039383 -0.126416E-06  0.327E-03    9.55       7.0  T
   6    -41.1039383 -0.434297E-08  0.185E-03    9.55      12.4  T
speedup  1.05
cpu  time for SCC    0.00 s
wall time for SCC    0.00 s
speedup  1.00
cpu  time for grad    0.01 s
wall time for grad    0.01 s
 E :    -40.91069088  G :  0.028685    pred/act E change: -0.871D-03 -0.301D-03
Maxdispl :   0.1354   ||displ|| :   0.2449   Lambda : -0.154D-02
Largest |displ|/coords:  0.1354 (   4)  0.1142 (   2)  0.1038 (  10)
................................................................................
.............................. CYCLE   32 ......................................
................................................................................
   1    -41.1089493 -0.411089E+02  0.228E-01    9.55       0.0  T
   2    -41.1089690 -0.196687E-04  0.173E-01    9.55       1.0  T
   3    -41.1089858 -0.168046E-04  0.324E-02    9.55       1.0  T
   4    -41.1089881 -0.227426E-05  0.914E-03    9.55       2.5  T
   5    -41.1089882 -0.125379E-06  0.355E-03    9.55       6.5  T
   6    -41.1089882 -0.746383E-08  0.185E-03    9.55      12.4  T
speedup  0.81
cpu  time for SCC    0.00 s
wall time for SCC    0.00 s
speedup  1.00
cpu  time for grad    0.01 s
wall time for grad    0.01 s
 E :    -40.91118254  G :  0.018591    pred/act E change: -0.725D-03 -0.492D-03
Maxdispl :   0.2822   ||displ|| :   0.4209   Lambda : -0.150D-02
Largest |displ|/coords:  0.2822 (   2)  0.1684 (   3)  0.1597 (   1)
................................................................................
.............................. CYCLE   33 ......................................
................................................................................
   1    -41.1024728 -0.411025E+02  0.315E-01    9.54       0.0  T
   2    -41.1025080 -0.352200E-04  0.236E-01    9.55       1.0  T
   3    -41.1025271 -0.190770E-04  0.396E-02    9.55       1.0  T
   4    -41.1025325 -0.537182E-05  0.865E-03    9.55       2.7  T
   5    -41.1025325 -0.786287E-07  0.439E-03    9.55       5.2  T
   6    -41.1025326 -0.117895E-07  0.205E-03    9.55      11.2  T
   7    -41.1025326 -0.572862E-08  0.372E-04    9.55      61.7  T
speedup  0.91
cpu  time for SCC    0.00 s
wall time for SCC    0.00 s
speedup  0.94
cpu  time for grad    0.01 s
wall time for grad    0.01 s
 E :    -40.91139237  G :  0.028331    pred/act E change: -0.819D-03 -0.210D-03
Maxdispl :   0.1027   ||displ|| :   0.1885   Lambda : -0.131D-02
Largest |displ|/coords:  0.1027 (   3)  0.0759 (   7)  0.0682 (   2)
................................................................................
.............................. CYCLE   34 ......................................
................................................................................
   1    -41.1050954 -0.411051E+02  0.153E-01    9.54       0.0  T
   2    -41.1051039 -0.852909E-05  0.115E-01    9.55       1.0  T
   3    -41.1051103 -0.639132E-05  0.199E-02    9.55       1.2  T
   4    -41.1051115 -0.113144E-05  0.559E-03    9.55       4.1  T
   5    -41.1051115 -0.313115E-07  0.248E-03    9.55       9.3  T
speedup  0.94
cpu  time for SCC    0.00 s
wall time for SCC    0.00 s
speedup  1.07
cpu  time for grad    0.01 s
wall time for grad    0.01 s
 E :    -40.91208867  G :  0.009173    pred/act E change: -0.881D-03 -0.696D-03
Maxdispl :   0.2428   ||displ|| :   0.3153   Lambda : -0.490D-03
Largest |displ|/coords:  0.2428 (   2)  0.1057 (   5)  0.0803 (   1)
................................................................................
.............................. CYCLE   35 ......................................
................................................................................
   1    -41.1055750 -0.411056E+02  0.173E-01    9.53       0.0  T
   2    -41.1055789 -0.389398E-05  0.130E-01    9.53       1.0  T
   3    -41.1055820 -0.302763E-05  0.153E-02    9.53       1.5  T
   4    -41.1055824 -0.475716E-06  0.408E-03    9.53       5.6  T
   5    -41.1055825 -0.222619E-07  0.139E-03    9.53      16.5  T
   6    -41.1055825 -0.690790E-09  0.791E-04    9.53      29.0  T
speedup  1.08
cpu  time for SCC    0.00 s
wall time for SCC    0.00 s
speedup  1.00
cpu  time for grad    0.01 s
wall time for grad    0.01 s
 E :    -40.91240683  G :  0.011547    pred/act E change: -0.681D-03 -0.318D-03
Maxdispl :   0.3138   ||displ|| :   0.4368   Lambda : -0.556D-03
Largest |displ|/coords:  0.3138 (   2)  0.1650 (   5)  0.1454 (   1)
................................................................................
.............................. CYCLE   36 ......................................
................................................................................
   1    -41.1035400 -0.411035E+02  0.272E-01    9.50       0.0  T
   2    -41.1035467 -0.665350E-05  0.203E-01    9.50       1.0  T
   3    -41.1035527 -0.601536E-05  0.230E-02    9.49       1.0  T
   4    -41.1035534 -0.708025E-06  0.523E-03    9.49       4.4  T
   5    -41.1035535 -0.357850E-07  0.233E-03    9.49       9.8  T
   6    -41.1035535 -0.382062E-08  0.113E-03    9.49      20.2  T
speedup  1.05
cpu  time for SCC    0.00 s
wall time for SCC    0.00 s
speedup  1.00
cpu  time for grad    0.01 s
wall time for grad    0.01 s
 E :    -40.91277291  G :  0.016547    pred/act E change: -0.269D-03 -0.366D-03
Maxdispl :   0.2337   ||displ|| :   0.3468   Lambda : -0.667D-03
Largest |displ|/coords:  0.2337 (   2)  0.1475 (   8)  0.1272 (   5)
................................................................................
.............................. CYCLE   37 ......................................
................................................................................
   1    -41.1076208 -0.411076E+02  0.215E-01    9.53       0.0  T
   2    -41.1076296 -0.875315E-05  0.160E-01    9.54       1.0  T
   3    -41.1076351 -0.546394E-05  0.250E-02    9.54       1.0  T
   4    -41.1076363 -0.124638E-05  0.717E-03    9.54       3.2  T
   5    -41.1076364 -0.684440E-07  0.229E-03    9.54      10.0  T
   6    -41.1076364 -0.292306E-08  0.130E-03    9.54      17.6  T
speedup  1.08
cpu  time for SCC    0.00 s
wall time for SCC    0.00 s
speedup  1.00
cpu  time for grad    0.01 s
wall time for grad    0.01 s
 E :    -40.91308044  G :  0.012645    pred/act E change: -0.331D-03 -0.308D-03
Maxdispl :   0.1454   ||displ|| :   0.2318   Lambda : -0.376D-03
Largest |displ|/coords:  0.1454 (   2)  0.0910 (   8)  0.0799 (   5)
................................................................................
.............................. CYCLE   38 ......................................
................................................................................
   1    -41.1071303 -0.411071E+02  0.166E-01    9.56       0.0  T
   2    -41.1071368 -0.657498E-05  0.125E-01    9.57       1.0  T
   3    -41.1071410 -0.416011E-05  0.185E-02    9.57       1.2  T
   4    -41.1071420 -0.977989E-06  0.618E-03    9.57       3.7  T
   5    -41.1071420 -0.647524E-07  0.192E-03    9.57      11.9  T
   6    -41.1071420 -0.191122E-08  0.110E-03    9.57      20.9  T
speedup  1.08
cpu  time for SCC    0.00 s
wall time for SCC    0.00 s
speedup  1.00
cpu  time for grad    0.01 s
wall time for grad    0.01 s
 E :    -40.91331349  G :  0.009651    pred/act E change: -0.374D-03 -0.233D-03
Maxdispl :   0.1554   ||displ|| :   0.2918   Lambda : -0.351D-03
Largest |displ|/coords:  0.1554 (   5)  0.1554 (   2)  0.1196 (   8)
................................................................................
.............................. CYCLE   39 ......................................
................................................................................
   1    -41.1047009 -0.411047E+02  0.233E-01    9.55       0.0  T
   2    -41.1047069 -0.591518E-05  0.176E-01    9.55       1.0  T
   3    -41.1047121 -0.525671E-05  0.149E-02    9.56       1.5  T
   4    -41.1047128 -0.671963E-06  0.551E-03    9.55       4.2  T
   5    -41.1047128 -0.341765E-07  0.197E-03    9.55      11.6  T
   6    -41.1047128 -0.157796E-08  0.103E-03    9.55      22.3  T
speedup  1.08
cpu  time for SCC    0.00 s
wall time for SCC    0.00 s
speedup  1.00
cpu  time for grad    0.01 s
wall time for grad    0.01 s
 E :    -40.91342533  G :  0.016831    pred/act E change: -0.198D-03 -0.112D-03
Maxdispl :   0.0815   ||displ|| :   0.1434   Lambda : -0.428D-03
Largest |displ|/coords:  0.0815 (   1)  0.0545 (  11)  0.0486 (   8)
................................................................................
.............................. CYCLE   40 ......................................
................................................................................
   1    -41.1094197 -0.411094E+02  0.935E-02    9.60       0.0  T
   2    -41.1094272 -0.746103E-05  0.673E-02    9.60       1.0  T
   3    -41.1094310 -0.378171E-05  0.225E-02    9.61       1.0  T
   4    -41.1094315 -0.535901E-06  0.671E-03    9.61       3.4  T
   5    -41.1094316 -0.726265E-07  0.181E-03    9.61      12.7  T
   6    -41.1094316 -0.211811E-08  0.104E-03    9.61      22.0  T
speedup  0.81
cpu  time for SCC    0.00 s
wall time for SCC    0.00 s
speedup  1.01
cpu  time for grad    0.01 s
wall time for grad    0.01 s
 E :    -40.91363085  G :  0.005287    pred/act E change: -0.191D-03 -0.206D-03
Maxdispl :   0.1466   ||displ|| :   0.2114   Lambda : -0.209D-03
Largest |displ|/coords:  0.1466 (   2)  0.0854 (   8)  0.0585 (   5)
................................................................................
.............................. CYCLE   41 ......................................
................................................................................
   1    -41.1088186 -0.411088E+02  0.124E-01    9.60       0.0  T
   2    -41.1088230 -0.436193E-05  0.931E-02    9.60       1.0  T
   3    -41.1088251 -0.212361E-05  0.145E-02    9.61       1.6  T
   4    -41.1088258 -0.682131E-06  0.520E-03    9.61       4.4  T
   5    -41.1088258 -0.421672E-07  0.127E-03    9.61      18.1  T
   6    -41.1088258 -0.106996E-08  0.794E-04    9.61      28.9  T
speedup  0.79
cpu  time for SCC    0.00 s
wall time for SCC    0.00 s
speedup  1.00
cpu  time for grad    0.01 s
wall time for grad    0.01 s
 E :    -40.91372106  G :  0.006237    pred/act E change: -0.218D-03 -0.902D-04
Maxdispl :   0.0637   ||displ|| :   0.1287   Lambda : -0.110D-03
Largest |displ|/coords:  0.0637 (   8)  0.0577 (   5)  0.0555 (   2)
................................................................................
.............................. CYCLE   42 ......................................
................................................................................
   1    -41.1088869 -0.411089E+02  0.944E-02    9.57       0.0  T
   2    -41.1088882 -0.133185E-05  0.711E-02    9.57       1.0  T
   3    -41.1088895 -0.129116E-05  0.829E-03    9.57       2.8  T
   4    -41.1088897 -0.135610E-06  0.280E-03    9.57       8.2  T
   5    -41.1088897 -0.843256E-08  0.945E-04    9.57      24.3  T
speedup  0.97
cpu  time for SCC    0.00 s
wall time for SCC    0.00 s
speedup  0.96
cpu  time for grad    0.01 s
wall time for grad    0.01 s
 E :    -40.91379196  G :  0.005071    pred/act E change: -0.109D-03 -0.709D-04
Maxdispl :   0.0329   ||displ|| :   0.0814   Lambda : -0.625D-04
Largest |displ|/coords:  0.0329 (   5)  0.0264 (   8)  0.0228 (  11)
................................................................................
.............................. CYCLE   43 ......................................
................................................................................
   1    -41.1100507 -0.411101E+02  0.641E-02    9.58       0.0  T
   2    -41.1100516 -0.958588E-06  0.475E-02    9.58       1.0  T
   3    -41.1100523 -0.642546E-06  0.861E-03    9.59       2.7  T
   4    -41.1100524 -0.117630E-06  0.318E-03    9.59       7.2  T
   5    -41.1100524 -0.962315E-08  0.756E-04    9.59      30.3  T
   6    -41.1100524 -0.552134E-09  0.479E-04    9.59      47.9  T
speedup  1.05
cpu  time for SCC    0.00 s
wall time for SCC    0.00 s
speedup  1.00
cpu  time for grad    0.01 s
wall time for grad    0.01 s
 E :    -40.91382389  G :  0.005383    pred/act E change: -0.557D-04 -0.319D-04
Maxdispl :   0.1013   ||displ|| :   0.1833   Lambda : -0.864D-04
Largest |displ|/coords:  0.1013 (   2)  0.0852 (   5)  0.0567 (   8)
................................................................................
.............................. CYCLE   44 ......................................
................................................................................
   1    -41.1090848 -0.411091E+02  0.129E-01    9.54       0.0  T
   2    -41.1090872 -0.236354E-05  0.971E-02    9.54       1.0  T
   3    -41.1090892 -0.204487E-05  0.112E-02    9.54       2.1  T
   4    -41.1090895 -0.284922E-06  0.454E-03    9.54       5.1  T
   5    -41.1090895 -0.201889E-07  0.118E-03    9.54      19.5  T
   6    -41.1090895 -0.111452E-08  0.756E-04    9.54      30.3  T
speedup  1.08
cpu  time for SCC    0.00 s
wall time for SCC    0.00 s
speedup  1.01
cpu  time for grad    0.01 s
wall time for grad    0.01 s
 E :    -40.91384006  G :  0.006402    pred/act E change: -0.314D-04 -0.162D-04
Maxdispl :   0.0492   ||displ|| :   0.0745   Lambda : -0.676D-04
Largest |displ|/coords:  0.0492 (   2)  0.0257 (   5)  0.0209 (   3)
................................................................................
.............................. CYCLE   45 ......................................
................................................................................
   1    -41.1102725 -0.411103E+02  0.509E-02    9.61       0.0  T
   2    -41.1102730 -0.506144E-06  0.379E-02    9.61       1.0  T
   3    -41.1102734 -0.395888E-06  0.597E-03    9.60       3.8  T
   4    -41.1102735 -0.592533E-07  0.168E-03    9.61      13.6  T
   5    -41.1102735 -0.450392E-08  0.557E-04    9.61      41.2  T
speedup  0.94
cpu  time for SCC    0.00 s
wall time for SCC    0.00 s
speedup  0.95
cpu  time for grad    0.01 s
wall time for grad    0.01 s
 E :    -40.91388187  G :  0.003991    pred/act E change: -0.447D-04 -0.418D-04
Maxdispl :   0.0211   ||displ|| :   0.0457   Lambda : -0.426D-04
Largest |displ|/coords:  0.0211 (   5)  0.0190 (   3)  0.0125 (  13)
................................................................................
.............................. CYCLE   46 ......................................
................................................................................
   1    -41.1099553 -0.411100E+02  0.403E-02    9.63       0.0  T
   2    -41.1099556 -0.282217E-06  0.303E-02    9.62       1.0  T
   3    -41.1099558 -0.194473E-06  0.335E-03    9.62       6.8  T
   4    -41.1099558 -0.411201E-07  0.130E-03    9.62      17.7  T
   5    -41.1099558 -0.253110E-08  0.428E-04    9.62      53.6  T
   6    -41.1099558 -0.125674E-09  0.243E-04    9.62      94.6  T
speedup  1.11
cpu  time for SCC    0.00 s
wall time for SCC    0.00 s
speedup  0.99
cpu  time for grad    0.01 s
wall time for grad    0.01 s
 E :    -40.91390470  G :  0.003386    pred/act E change: -0.340D-04 -0.228D-04
Maxdispl :   0.0336   ||displ|| :   0.0658   Lambda : -0.417D-04
Largest |displ|/coords:  0.0336 (   1)  0.0194 (   5)  0.0192 (   9)
................................................................................
.............................. CYCLE   47 ......................................
................................................................................
   1    -41.1106110 -0.411106E+02  0.557E-02    9.68       0.0  T
   2    -41.1106113 -0.289691E-06  0.418E-02    9.68       1.0  T
   3    -41.1106116 -0.288224E-06  0.456E-03    9.68       5.0  T
   4    -41.1106116 -0.243429E-07  0.158E-03    9.68      14.5  T
   5    -41.1106116 -0.202684E-08  0.430E-04    9.68      53.3  T
   6    -41.1106116 -0.857696E-10  0.268E-04    9.68      85.6  T
speedup  1.08
cpu  time for SCC    0.00 s
wall time for SCC    0.00 s
speedup  1.09
cpu  time for grad    0.01 s
wall time for grad    0.01 s
 E :    -40.91393027  G :  0.003247    pred/act E change: -0.214D-04 -0.256D-04
Maxdispl :   0.0388   ||displ|| :   0.0721   Lambda : -0.327D-04
Largest |displ|/coords:  0.0388 (   1)  0.0339 (   5)  0.0192 (  14)
................................................................................
.............................. CYCLE   48 ......................................
................................................................................
   1    -41.1105027 -0.411105E+02  0.635E-02    9.67       0.0  T
   2    -41.1105031 -0.393525E-06  0.478E-02    9.67       1.0  T
   3    -41.1105035 -0.378530E-06  0.434E-03    9.67       5.3  T
   4    -41.1105036 -0.440103E-07  0.180E-03    9.67      12.7  T
   5    -41.1105036 -0.214741E-08  0.478E-04    9.67      47.9  T
   6    -41.1105036 -0.132438E-09  0.279E-04    9.67      82.2  T
speedup  0.81
cpu  time for SCC    0.00 s
wall time for SCC    0.00 s
speedup  0.97
cpu  time for grad    0.01 s
wall time for grad    0.01 s
 E :    -40.91395494  G :  0.002868    pred/act E change: -0.209D-04 -0.247D-04
Maxdispl :   0.0747   ||displ|| :   0.1184   Lambda : -0.412D-04
Largest |displ|/coords:  0.0747 (   1)  0.0552 (   5)  0.0284 (   4)
................................................................................
.............................. CYCLE   49 ......................................
................................................................................
   1    -41.1100437 -0.411100E+02  0.963E-02    9.66       0.0  T
   2    -41.1100445 -0.804540E-06  0.724E-02    9.65       1.0  T
   3    -41.1100453 -0.825306E-06  0.685E-03    9.65       3.3  T
   4    -41.1100454 -0.797336E-07  0.285E-03    9.65       8.1  T
   5    -41.1100454 -0.526210E-08  0.739E-04    9.65      31.0  T
   6    -41.1100454 -0.342325E-09  0.447E-04    9.65      51.3  T
speedup  1.08
cpu  time for SCC    0.00 s
wall time for SCC    0.00 s
speedup  0.98
cpu  time for grad    0.01 s
wall time for grad    0.01 s
 E :    -40.91398178  G :  0.002918    pred/act E change: -0.164D-04 -0.268D-04
Maxdispl :   0.0599   ||displ|| :   0.0802   Lambda : -0.277D-04
Largest |displ|/coords:  0.0599 (   1)  0.0298 (   4)  0.0186 (   5)
................................................................................
.............................. CYCLE   50 ......................................
................................................................................
   1    -41.1102223 -0.411102E+02  0.564E-02    9.64       0.0  T
   2    -41.1102226 -0.370823E-06  0.423E-02    9.64       1.0  T
   3    -41.1102230 -0.335213E-06  0.489E-03    9.64       4.7  T
   4    -41.1102230 -0.429729E-07  0.223E-03    9.64      10.3  T
   5    -41.1102230 -0.311813E-08  0.487E-04    9.64      47.1  T
   6    -41.1102230 -0.164050E-09  0.327E-04    9.64      70.1  T
speedup  1.05
cpu  time for SCC    0.00 s
wall time for SCC    0.00 s
speedup  1.05
cpu  time for grad    0.01 s
wall time for grad    0.01 s
 E :    -40.91400103  G :  0.003050    pred/act E change: -0.209D-04 -0.193D-04
Maxdispl :   0.1150   ||displ|| :   0.1581   Lambda : -0.410D-04
Largest |displ|/coords:  0.1150 (   1)  0.0599 (   5)  0.0467 (   4)
................................................................................
.............................. CYCLE   51 ......................................
................................................................................
   1    -41.1098680 -0.411099E+02  0.112E-01    9.61       0.0  T
   2    -41.1098692 -0.119318E-05  0.845E-02    9.61       1.0  T
   3    -41.1098704 -0.120447E-05  0.904E-03    9.61       2.5  T
   4    -41.1098705 -0.137367E-06  0.367E-03    9.61       6.2  T
   5    -41.1098705 -0.932382E-08  0.105E-03    9.61      21.9  T
   6    -41.1098705 -0.890900E-09  0.594E-04    9.61      38.6  T
   7    -41.1098705 -0.331632E-09  0.115E-04    9.61     199.1  T
speedup  0.91
cpu  time for SCC    0.00 s
wall time for SCC    0.00 s
speedup  1.00
cpu  time for grad    0.01 s
wall time for grad    0.01 s
 E :    -40.91402432  G :  0.004150    pred/act E change: -0.139D-04 -0.233D-04
Maxdispl :   0.0630   ||displ|| :   0.0835   Lambda : -0.329D-04
Largest |displ|/coords:  0.0630 (   1)  0.0305 (   4)  0.0190 (   9)
................................................................................
.............................. CYCLE   52 ......................................
................................................................................
   1    -41.1104416 -0.411104E+02  0.516E-02    9.60       0.0  T
   2    -41.1104420 -0.393309E-06  0.387E-02    9.60       1.0  T
   3    -41.1104423 -0.337138E-06  0.527E-03    9.60       4.4  T
   4    -41.1104424 -0.511974E-07  0.191E-03    9.60      12.0  T
   5    -41.1104424 -0.309672E-08  0.539E-04    9.60      42.6  T
speedup  1.29
cpu  time for SCC    0.00 s
wall time for SCC    0.00 s
speedup  1.08
cpu  time for grad    0.01 s
wall time for grad    0.01 s
 E :    -40.91404607  G :  0.003601    pred/act E change: -0.210D-04 -0.217D-04
Maxdispl :   0.1032   ||displ|| :   0.1291   Lambda : -0.277D-04
Largest |displ|/coords:  0.1032 (   1)  0.0441 (   5)  0.0342 (   4)

generating ANC from model Hessian ...
 Shifting diagonal of input Hessian by   4.978918938381639E-003
 Lowest  eigenvalues of input Hessian
   -0.000000   -0.000000   -0.000000   -0.000000    0.000000    0.000000
    0.005000    0.005421    0.006411    0.006673    0.006851    0.008805
    0.009518    0.010862    0.012347    0.013542    0.014556    0.016246
 Highest eigenvalues
    1.392909    1.400318    1.410157    2.722107    3.354163    3.565351
 
cpu  time for ANC gen    0.01 s
wall time for ANC gen    0.01 s
................................................................................
.............................. CYCLE   53 ......................................
................................................................................
   1    -41.1102016 -0.411102E+02  0.926E-02    9.61       0.0  T
   2    -41.1102022 -0.596479E-06  0.697E-02    9.61       1.0  T
   3    -41.1102028 -0.653180E-06  0.546E-03    9.61       4.2  T
   4    -41.1102029 -0.566762E-07  0.251E-03    9.61       9.2  T
   5    -41.1102029 -0.474309E-08  0.767E-04    9.61      29.9  T
   6    -41.1102029 -0.508024E-09  0.433E-04    9.61      53.0  T
speedup  0.79
cpu  time for SCC    0.00 s
wall time for SCC    0.00 s
speedup  0.97
cpu  time for grad    0.01 s
wall time for grad    0.01 s
 E :    -40.91406558  G :  0.003506    pred/act E change:  0.000D+00 -0.195D-04
Maxdispl :   0.0123   ||displ|| :   0.0260   Lambda : -0.182D-04
Largest |displ|/coords:  0.0123 (  10)  0.0109 (  11)  0.0094 (   1)
................................................................................
.............................. CYCLE   54 ......................................
................................................................................
   1    -41.1104778 -0.411105E+02  0.280E-02    9.62       0.0  T
   2    -41.1104780 -0.129126E-06  0.209E-02    9.62       1.1  T
   3    -41.1104780 -0.608439E-07  0.360E-03    9.62       6.4  T
   4    -41.1104781 -0.222590E-07  0.920E-04    9.62      24.9  T
   5    -41.1104781 -0.601780E-09  0.252E-04    9.62      91.1  T
speedup  0.97
cpu  time for SCC    0.00 s
wall time for SCC    0.00 s
speedup  1.05
cpu  time for grad    0.01 s
wall time for grad    0.01 s
 E :    -40.91407864  G :  0.002293    pred/act E change:  0.000D+00 -0.131D-04
Maxdispl :   0.0287   ||displ|| :   0.0512   Lambda : -0.205D-04
Largest |displ|/coords:  0.0287 (   1)  0.0257 (  10)  0.0183 (   3)
................................................................................
.............................. CYCLE   55 ......................................
................................................................................
   1    -41.1108006 -0.411108E+02  0.571E-02    9.63       0.0  T
   2    -41.1108009 -0.328390E-06  0.429E-02    9.63       1.0  T
   3    -41.1108010 -0.145936E-06  0.487E-03    9.63       4.7  T
   4    -41.1108011 -0.668439E-07  0.159E-03    9.63      14.4  T
   5    -41.1108011 -0.181399E-08  0.424E-04    9.63      54.0  T
   6    -41.1108011 -0.101878E-09  0.247E-04    9.63      93.0  T
speedup  1.08
cpu  time for SCC    0.00 s
wall time for SCC    0.00 s
speedup  0.98
cpu  time for grad    0.01 s
wall time for grad    0.01 s
 E :    -40.91409250  G :  0.001112    pred/act E change: -0.910D-05 -0.139D-04
Maxdispl :   0.0348   ||displ|| :   0.0604   Lambda : -0.118D-04
Largest |displ|/coords:  0.0348 (   1)  0.0292 (   3)  0.0285 (  10)
................................................................................
.............................. CYCLE   56 ......................................
................................................................................
   1    -41.1107043 -0.411107E+02  0.685E-02    9.64       0.0  T
   2    -41.1107047 -0.356311E-06  0.517E-02    9.64       1.0  T
   3    -41.1107050 -0.307644E-06  0.417E-03    9.64       5.5  T
   4    -41.1107050 -0.491620E-07  0.184E-03    9.64      12.5  T
   5    -41.1107050 -0.226357E-08  0.529E-04    9.64      43.4  T
   6    -41.1107050 -0.144766E-09  0.298E-04    9.64      76.9  T
speedup  0.79
cpu  time for SCC    0.00 s
wall time for SCC    0.00 s
speedup  0.96
cpu  time for grad    0.01 s
wall time for grad    0.01 s
 E :    -40.91410122  G :  0.001245    pred/act E change: -0.103D-04 -0.872D-05
Maxdispl :   0.0475   ||displ|| :   0.0802   Lambda : -0.107D-04
Largest |displ|/coords:  0.0475 (   1)  0.0407 (   3)  0.0371 (  10)
................................................................................
.............................. CYCLE   57 ......................................
................................................................................
   1    -41.1103415 -0.411103E+02  0.894E-02    9.65       0.0  T
   2    -41.1103420 -0.517646E-06  0.676E-02    9.65       1.0  T
   3    -41.1103426 -0.602168E-06  0.432E-03    9.65       5.3  T
   4    -41.1103427 -0.415188E-07  0.225E-03    9.65      10.2  T
   5    -41.1103427 -0.333082E-08  0.654E-04    9.65      35.1  T
   6    -41.1103427 -0.310152E-09  0.362E-04    9.65      63.4  T
speedup  0.81
cpu  time for SCC    0.00 s
wall time for SCC    0.00 s
speedup  0.98
cpu  time for grad    0.01 s
wall time for grad    0.01 s
 E :    -40.91410805  G :  0.002173    pred/act E change: -0.594D-05 -0.683D-05
Maxdispl :   0.0279   ||displ|| :   0.0449   Lambda : -0.604D-05
Largest |displ|/coords:  0.0279 (   1)  0.0215 (   3)  0.0168 (  10)
................................................................................
.............................. CYCLE   58 ......................................
................................................................................
   1    -41.1102531 -0.411103E+02  0.444E-02    9.64       0.0  T
   2    -41.1102533 -0.121003E-06  0.336E-02    9.64       1.0  T
   3    -41.1102534 -0.164992E-06  0.203E-03    9.64      11.3  T
   4    -41.1102534 -0.546431E-08  0.102E-03    9.64      22.6  T
   5    -41.1102534 -0.730005E-09  0.299E-04    9.64      76.7  T
   6    -41.1102534 -0.860823E-10  0.141E-04    9.64     163.0  T
speedup  1.05
cpu  time for SCC    0.00 s
wall time for SCC    0.00 s
speedup  0.97
cpu  time for grad    0.01 s
wall time for grad    0.01 s
 E :    -40.91411298  G :  0.002025    pred/act E change: -0.540D-05 -0.493D-05
Maxdispl :   0.0549   ||displ|| :   0.0878   Lambda : -0.126D-04
Largest |displ|/coords:  0.0549 (   1)  0.0385 (   2)  0.0384 (   3)
................................................................................
.............................. CYCLE   59 ......................................
................................................................................
   1    -41.1101854 -0.411102E+02  0.836E-02    9.64       0.0  T
   2    -41.1101858 -0.394766E-06  0.632E-02    9.64       1.0  T
   3    -41.1101863 -0.517978E-06  0.399E-03    9.64       5.7  T
   4    -41.1101863 -0.218136E-07  0.174E-03    9.64      13.2  T
   5    -41.1101863 -0.214897E-08  0.612E-04    9.64      37.5  T
   6    -41.1101863 -0.299259E-09  0.221E-04    9.64     103.8  T
speedup  1.00
cpu  time for SCC    0.00 s
wall time for SCC    0.00 s
speedup  1.04
cpu  time for grad    0.01 s
wall time for grad    0.01 s
 E :    -40.91412147  G :  0.001428    pred/act E change: -0.303D-05 -0.849D-05
Maxdispl :   0.0480   ||displ|| :   0.0740   Lambda : -0.704D-05
Largest |displ|/coords:  0.0480 (   1)  0.0347 (   2)  0.0294 (   3)
................................................................................
.............................. CYCLE   60 ......................................
................................................................................
   1    -41.1100908 -0.411101E+02  0.707E-02    9.63       0.0  T
   2    -41.1100911 -0.233587E-06  0.534E-02    9.63       1.0  T
   3    -41.1100914 -0.325760E-06  0.268E-03    9.63       8.5  T
   4    -41.1100914 -0.796379E-08  0.123E-03    9.63      18.6  T
   5    -41.1100914 -0.114263E-08  0.454E-04    9.63      50.5  T
   6    -41.1100914 -0.201062E-09  0.137E-04    9.63     167.0  T
speedup  1.08
cpu  time for SCC    0.00 s
wall time for SCC    0.00 s
speedup  0.97
cpu  time for grad    0.01 s
wall time for grad    0.01 s
 E :    -40.91412703  G :  0.001528    pred/act E change: -0.635D-05 -0.556D-05
Maxdispl :   0.0870   ||displ|| :   0.1382   Lambda : -0.142D-04
Largest |displ|/coords:  0.0870 (   1)  0.0743 (   2)  0.0463 (   3)
................................................................................
.............................. CYCLE   61 ......................................
................................................................................
   1    -41.1099867 -0.411100E+02  0.124E-01    9.62       0.0  T
   2    -41.1099874 -0.687633E-06  0.933E-02    9.62       1.0  T
   3    -41.1099883 -0.952482E-06  0.464E-03    9.62       4.9  T
   4    -41.1099883 -0.252420E-07  0.224E-03    9.62      10.3  T
   5    -41.1099883 -0.376118E-08  0.771E-04    9.62      29.8  T
   6    -41.1099883 -0.574502E-09  0.230E-04    9.62      99.6  T
speedup  1.05
cpu  time for SCC    0.00 s
wall time for SCC    0.00 s
speedup  1.08
cpu  time for grad    0.01 s
wall time for grad    0.01 s
 E :    -40.91413693  G :  0.001932    pred/act E change: -0.354D-05 -0.989D-05
Maxdispl :   0.1115   ||displ|| :   0.1665   Lambda : -0.142D-04
Largest |displ|/coords:  0.1115 (   1)  0.0834 (   2)  0.0516 (   3)
................................................................................
.............................. CYCLE   62 ......................................
................................................................................
   1    -41.1093251 -0.411093E+02  0.152E-01    9.62       0.0  T
   2    -41.1093264 -0.135156E-05  0.114E-01    9.62       1.0  T
   3    -41.1093279 -0.145860E-05  0.747E-03    9.61       3.1  T
   4    -41.1093280 -0.134405E-06  0.313E-03    9.61       7.3  T
   5    -41.1093280 -0.762271E-08  0.106E-03    9.61      21.6  T
   6    -41.1093280 -0.701363E-09  0.390E-04    9.61      58.8  T
   7    -41.1093280 -0.443535E-09  0.768E-05    9.61     298.8  T
speedup  0.93
cpu  time for SCC    0.00 s
wall time for SCC    0.00 s
speedup  1.01
cpu  time for grad    0.01 s
wall time for grad    0.01 s
 E :    -40.91414404  G :  0.003602    pred/act E change: -0.721D-05 -0.712D-05
Maxdispl :   0.1383   ||displ|| :   0.2110   Lambda : -0.421D-04
Largest |displ|/coords:  0.1383 (   1)  0.1268 (   2)  0.0463 (   4)
................................................................................
.............................. CYCLE   63 ......................................
................................................................................
   1    -41.1103494 -0.411103E+02  0.153E-01    9.61       0.0  T
   2    -41.1103516 -0.220102E-05  0.115E-01    9.61       1.0  T
   3    -41.1103530 -0.143593E-05  0.119E-02    9.61       1.9  T
   4    -41.1103534 -0.373502E-06  0.343E-03    9.61       6.7  T
   5    -41.1103534 -0.130093E-07  0.125E-03    9.61      18.4  T
   6    -41.1103534 -0.656499E-09  0.601E-04    9.61      38.2  T
   7    -41.1103534 -0.762263E-09  0.121E-04    9.61     190.0  T
speedup  0.93
cpu  time for SCC    0.00 s
wall time for SCC    0.00 s
speedup  0.92
cpu  time for grad    0.01 s
wall time for grad    0.01 s
 E :    -40.91413891  G :  0.005225    pred/act E change: -0.731D-05  0.514D-05
Maxdispl :   0.0448   ||displ|| :   0.0898   Lambda : -0.508D-04
Largest |displ|/coords:  0.0448 (   1)  0.0444 (   2)  0.0410 (   3)
................................................................................
.............................. CYCLE   64 ......................................
................................................................................
   1    -41.1092967 -0.411093E+02  0.921E-02    9.62       0.0  T
   2    -41.1092977 -0.103404E-05  0.696E-02    9.62       1.0  T
   3    -41.1092987 -0.949429E-06  0.661E-03    9.62       3.5  T
   4    -41.1092988 -0.126202E-06  0.277E-03    9.62       8.3  T
   5    -41.1092988 -0.806171E-08  0.886E-04    9.62      25.9  T
speedup  0.97
cpu  time for SCC    0.00 s
wall time for SCC    0.00 s
speedup  1.08
cpu  time for grad    0.01 s
wall time for grad    0.01 s
 E :    -40.91416241  G :  0.003437    pred/act E change: -0.220D-04 -0.235D-04
Maxdispl :   0.1291   ||displ|| :   0.1963   Lambda : -0.261D-04
Largest |displ|/coords:  0.1291 (   1)  0.1111 (   2)  0.0436 (   3)
................................................................................
.............................. CYCLE   65 ......................................
................................................................................
   1    -41.1107135 -0.411107E+02  0.158E-01    9.65       0.0  T
   2    -41.1107152 -0.173657E-05  0.119E-01    9.65       1.0  T
   3    -41.1107168 -0.159130E-05  0.946E-03    9.65       2.4  T
   4    -41.1107170 -0.216455E-06  0.341E-03    9.65       6.7  T
   5    -41.1107170 -0.124581E-07  0.126E-03    9.65      18.3  T
   6    -41.1107170 -0.865249E-09  0.644E-04    9.65      35.6  T
   7    -41.1107170 -0.702464E-09  0.927E-05    9.65     247.5  T
speedup  0.93
cpu  time for SCC    0.00 s
wall time for SCC    0.00 s
speedup  0.92
cpu  time for grad    0.01 s
wall time for grad    0.01 s
 E :    -40.91416126  G :  0.001669    pred/act E change: -0.256D-04  0.115D-05
Maxdispl :   0.0801   ||displ|| :   0.1127   Lambda : -0.178D-04
Largest |displ|/coords:  0.0801 (   1)  0.0575 (   2)  0.0277 (   4)
................................................................................
.............................. CYCLE   66 ......................................
................................................................................
   1    -41.1101505 -0.411102E+02  0.921E-02    9.65       0.0  T
   2    -41.1101511 -0.538937E-06  0.694E-02    9.65       1.0  T
   3    -41.1101516 -0.490047E-06  0.510E-03    9.65       4.5  T
   4    -41.1101516 -0.715798E-07  0.193E-03    9.65      11.9  T
   5    -41.1101516 -0.273685E-08  0.627E-04    9.65      36.6  T
   6    -41.1101516 -0.235119E-09  0.255E-04    9.65      90.0  T
speedup  1.11
cpu  time for SCC    0.00 s
wall time for SCC    0.00 s
speedup  0.98
cpu  time for grad    0.01 s
wall time for grad    0.01 s
 E :    -40.91417285  G :  0.000944    pred/act E change: -0.135D-04 -0.116D-04
Maxdispl :   0.1074   ||displ|| :   0.1619   Lambda : -0.103D-04
[...]
   3    -41.1285319 -0.182190E-06  0.224E-03    8.93      10.3  T
   4    -41.1285319 -0.776274E-08  0.116E-03    8.93      19.9  T
   5    -41.1285319 -0.115578E-08  0.349E-04    8.93      65.7  T
   6    -41.1285319 -0.121688E-09  0.162E-04    8.93     141.6  T
speedup  1.11
cpu  time for SCC    0.00 s
wall time for SCC    0.00 s
speedup  1.10
cpu  time for grad    0.01 s
wall time for grad    0.01 s
 E :    -40.91891546  G :  0.000844    pred/act E change: -0.180D-05 -0.253D-05
Maxdispl :   0.0234   ||displ|| :   0.0398   Lambda : -0.255D-05
Largest |displ|/coords:  0.0234 (  11)  0.0147 (   1)  0.0134 (   4)
................................................................................
.............................. CYCLE  156 ......................................
................................................................................
   1    -41.1285577 -0.411286E+02  0.339E-02    8.93       0.0  T
   2    -41.1285578 -0.960751E-07  0.256E-02    8.93       1.0  T
   3    -41.1285579 -0.129218E-06  0.195E-03    8.93      11.7  T
   4    -41.1285579 -0.603414E-08  0.922E-04    8.93      24.9  T
   5    -41.1285579 -0.752195E-09  0.299E-04    8.93      76.9  T
speedup  1.00
cpu  time for SCC    0.00 s
wall time for SCC    0.00 s
speedup  0.94
cpu  time for grad    0.01 s
wall time for grad    0.01 s
 E :    -40.91891723  G :  0.000771    pred/act E change: -0.182D-05 -0.178D-05
Maxdispl :   0.0124   ||displ|| :   0.0264   Lambda : -0.175D-05
Largest |displ|/coords:  0.0124 (  11)  0.0106 (   5)  0.0097 (   4)
................................................................................
.............................. CYCLE  157 ......................................
................................................................................
   1    -41.1286016 -0.411286E+02  0.215E-02    8.92       0.0  T
   2    -41.1286017 -0.451746E-07  0.162E-02    8.92       1.4  T
   3    -41.1286017 -0.473318E-07  0.155E-03    8.92      14.8  T
   4    -41.1286017 -0.481946E-08  0.553E-04    8.92      41.5  T
   5    -41.1286017 -0.301135E-09  0.193E-04    8.92     119.1  T
speedup  0.97
cpu  time for SCC    0.00 s
wall time for SCC    0.00 s
speedup  1.06
cpu  time for grad    0.01 s
wall time for grad    0.01 s
 E :    -40.91891834  G :  0.000620    pred/act E change: -0.128D-05 -0.110D-05
Maxdispl :   0.0295   ||displ|| :   0.0472   Lambda : -0.137D-05
Largest |displ|/coords:  0.0295 (  11)  0.0219 (   1)  0.0151 (  12)
................................................................................
.............................. CYCLE  158 ......................................
................................................................................
   1    -41.1282963 -0.411283E+02  0.429E-02    8.92       0.0  T
   2    -41.1282964 -0.153445E-06  0.324E-02    8.92       1.0  T
   3    -41.1282966 -0.206929E-06  0.283E-03    8.92       8.1  T
   4    -41.1282966 -0.874418E-08  0.103E-03    8.92      22.3  T
   5    -41.1282966 -0.108511E-08  0.402E-04    8.92      57.1  T
   6    -41.1282966 -0.156149E-09  0.203E-04    8.92     112.8  T
speedup  0.81
cpu  time for SCC    0.00 s
wall time for SCC    0.00 s
speedup  0.99
cpu  time for grad    0.01 s
wall time for grad    0.01 s
 E :    -40.91891823  G :  0.001002    pred/act E change: -0.880D-06  0.111D-06
Maxdispl :   0.0134   ||displ|| :   0.0230   Lambda : -0.196D-05
Largest |displ|/coords:  0.0134 (  11)  0.0103 (   1)  0.0096 (  12)
................................................................................
.............................. CYCLE  159 ......................................
................................................................................
   1    -41.1285173 -0.411285E+02  0.218E-02    8.92       0.0  T
   2    -41.1285174 -0.427584E-07  0.165E-02    8.92       1.4  T
   3    -41.1285174 -0.605837E-07  0.121E-03    8.92      18.9  T
   4    -41.1285174 -0.194265E-08  0.575E-04    8.92      39.9  T
   5    -41.1285174 -0.283457E-09  0.147E-04    8.92     155.6  T
speedup  1.00
cpu  time for SCC    0.00 s
wall time for SCC    0.00 s
speedup  0.95
cpu  time for grad    0.01 s
wall time for grad    0.01 s
 E :    -40.91891914  G :  0.000389    pred/act E change: -0.687D-06 -0.916D-06
Maxdispl :   0.0027   ||displ|| :   0.0044   Lambda : -0.299D-06
Largest |displ|/coords:  0.0027 (   3)  0.0015 (  17)  0.0015 (  11)
................................................................................
.............................. CYCLE  160 ......................................
................................................................................
   1    -41.1285139 -0.411285E+02  0.374E-03    8.92       0.0  T
   2    -41.1285139 -0.156899E-08  0.283E-03    8.92       8.1  T
   3    -41.1285139 -0.181051E-08  0.305E-04    8.92      75.3  T
   4    -41.1285139 -0.105246E-09  0.130E-04    8.92     177.1  T
speedup  1.20
cpu  time for SCC    0.00 s
wall time for SCC    0.00 s
speedup  1.01
cpu  time for grad    0.01 s
wall time for grad    0.01 s
 E :    -40.91891937  G :  0.000242    pred/act E change: -0.979D-06 -0.230D-06
Maxdispl :   0.0084   ||displ|| :   0.0165   Lambda : -0.505D-06
Largest |displ|/coords:  0.0084 (  11)  0.0066 (   3)  0.0059 (   2)
................................................................................
.............................. CYCLE  161 ......................................
................................................................................
   1    -41.1284933 -0.411285E+02  0.135E-02    8.92       0.0  T
   2    -41.1284933 -0.153477E-07  0.102E-02    8.92       2.3  T
   3    -41.1284933 -0.192289E-07  0.103E-03    8.93      22.4  T
   4    -41.1284933 -0.879758E-09  0.285E-04    8.93      80.6  T
   5    -41.1284933 -0.157584E-09  0.120E-04    8.93     191.9  T
speedup  1.00
cpu  time for SCC    0.00 s
wall time for SCC    0.00 s
speedup  1.05
cpu  time for grad    0.01 s
wall time for grad    0.01 s
 E :    -40.91891971  G :  0.000180    pred/act E change: -0.150D-06 -0.339D-06
Maxdispl :   0.0081   ||displ|| :   0.0154   Lambda : -0.242D-06
Largest |displ|/coords:  0.0081 (  11)  0.0063 (   3)  0.0062 (   2)
................................................................................
.............................. CYCLE  162 ......................................
................................................................................
   1    -41.1284840 -0.411285E+02  0.122E-02    8.93       0.0  T
   2    -41.1284840 -0.112608E-07  0.915E-03    8.93       2.5  T
   3    -41.1284840 -0.155630E-07  0.826E-04    8.93      27.8  T
   4    -41.1284840 -0.495525E-09  0.184E-04    8.93     125.0  T
speedup  0.83
cpu  time for SCC    0.00 s
wall time for SCC    0.00 s
speedup  1.01
cpu  time for grad    0.01 s
wall time for grad    0.01 s
 E :    -40.91891989  G :  0.000272    pred/act E change: -0.252D-06 -0.180D-06
Maxdispl :   0.0093   ||displ|| :   0.0163   Lambda : -0.252D-06
Largest |displ|/coords:  0.0093 (   2)  0.0069 (  11)  0.0068 (   3)
................................................................................
.............................. CYCLE  163 ......................................
................................................................................
   1    -41.1284896 -0.411285E+02  0.123E-02    8.93       0.0  T
   2    -41.1284896 -0.114945E-07  0.922E-03    8.93       2.5  T
   3    -41.1284896 -0.154894E-07  0.796E-04    8.93      28.8  T
   4    -41.1284896 -0.503462E-09  0.257E-04    8.93      89.3  T
speedup  1.20
cpu  time for SCC    0.00 s
wall time for SCC    0.00 s
speedup  1.01
cpu  time for grad    0.01 s
wall time for grad    0.01 s
 E :    -40.91892008  G :  0.000296    pred/act E change: -0.121D-06 -0.192D-06
Maxdispl :   0.0104   ||displ|| :   0.0154   Lambda : -0.259D-06
Largest |displ|/coords:  0.0104 (   2)  0.0072 (   3)  0.0046 (  11)
................................................................................
.............................. CYCLE  164 ......................................
................................................................................
   1    -41.1285109 -0.411285E+02  0.107E-02    8.93       0.0  T
   2    -41.1285109 -0.109785E-07  0.806E-03    8.93       2.8  T
   3    -41.1285109 -0.113819E-07  0.727E-04    8.93      31.6  T
   4    -41.1285109 -0.102767E-08  0.310E-04    8.93      74.0  T
speedup  1.20
cpu  time for SCC    0.00 s
wall time for SCC    0.00 s
speedup  1.01
cpu  time for grad    0.01 s
wall time for grad    0.01 s
 E :    -40.91892028  G :  0.000243    pred/act E change: -0.126D-06 -0.195D-06
Maxdispl :   0.0089   ||displ|| :   0.0113   Lambda : -0.188D-06
Largest |displ|/coords:  0.0089 (   2)  0.0042 (   3)  0.0032 (   1)
................................................................................
.............................. CYCLE  165 ......................................
................................................................................
   1    -41.1285242 -0.411285E+02  0.755E-03    8.93       0.0  T
   2    -41.1285242 -0.812196E-08  0.570E-03    8.93       4.0  T
   3    -41.1285242 -0.702065E-08  0.631E-04    8.93      36.4  T
   4    -41.1285242 -0.997154E-09  0.298E-04    8.93      77.0  T
speedup  1.25
cpu  time for SCC    0.00 s
wall time for SCC    0.00 s
speedup  1.03
cpu  time for grad    0.01 s
wall time for grad    0.01 s
 E :    -40.91892042  G :  0.000191    pred/act E change: -0.130D-06 -0.140D-06
Maxdispl :   0.0058   ||displ|| :   0.0079   Lambda : -0.129D-06
Largest |displ|/coords:  0.0058 (   2)  0.0030 (   3)  0.0025 (   1)
................................................................................
.............................. CYCLE  166 ......................................
................................................................................
   1    -41.1285323 -0.411285E+02  0.514E-03    8.93       0.0  T
   2    -41.1285323 -0.516075E-08  0.388E-03    8.93       5.9  T
   3    -41.1285324 -0.396282E-08  0.528E-04    8.93      43.4  T
   4    -41.1285324 -0.699501E-09  0.275E-04    8.93      83.4  T
speedup  0.83
cpu  time for SCC    0.00 s
wall time for SCC    0.00 s
speedup  1.01
cpu  time for grad    0.01 s
wall time for grad    0.01 s
 E :    -40.91892051  G :  0.000179    pred/act E change: -0.938D-07 -0.938D-07
Maxdispl :   0.0024   ||displ|| :   0.0043   Lambda : -0.805D-07
Largest |displ|/coords:  0.0024 (   2)  0.0019 (  11)  0.0012 (   1)

   *** GEOMETRY OPTIMIZATION CONVERGED AFTER 166 ITERATIONS ***

------------------------------------------------------------------------
 total energy gain (kcal):     -0.0209
------------------------------------------------------------------------
================
 final structure:
================
$coord
       -0.30148695430686       -0.39634478638363       -2.16263370557584      S 
       -1.48538147661760        1.95033983186799       -0.91132558869646      O 
        2.39255046758390       -0.05552827721792       -2.23051956138320      O 
       -1.20159892926683       -2.63903008909798       -0.94673751336546      O 
       -1.35331576643038       -0.30390827083556       -4.89196005034657      O 
       -0.59672482197755        1.23478101310386       -5.63886945011790      H 
        0.38048734450315       -0.34595792236950        5.58303016985930      O 
        0.47652342506633       -1.21411486903123        7.17031824705914      H 
        1.51623135445729       -1.25005777752015        4.41900782946175      H 
        2.95980673010024       -2.95050514728748        2.09286950340004      O 
        3.73100918040071       -1.84422517306383        0.86467947468718      H 
        1.51161209175177       -3.63382839809243        1.21131463058824      H 
        1.30573568919010        3.80777538257435       -5.37910633738064      O 
        2.46373703668457        2.82417514695121       -4.35200726946451      H 
        0.53904692938485        5.02202246959299       -4.26668036068795      H 
       -3.73425938182750        0.01655217455194        2.76512037320422      O 
       -2.55644922075196        1.38796389252200        0.64476621047876      H 
       -3.69311134951132       -1.63935840357906        1.99880694807109      H 
       -2.35441236654227        0.02924922217594        4.02992646891354      H 
$end
 
 Bond Distances (Angstroems)
 ---------------------------
S1-O2=1.5405         S1-O3=1.4374         S1-O4=1.4315         S1-O5=1.5486         O2-S1=1.5405         O2-H17=1.0430        
O3-S1=1.4374         O4-S1=1.4315         O5-S1=1.5486         O5-H6=0.9897         H6-O5=0.9897         O7-H8=0.9587         
O7-H9=0.9846         H8-O7=0.9587         H9-O7=0.9846         O10-H11=0.9652       O10-H12=0.9673       H11-O10=0.9652       
H12-O10=0.9673       O13-H14=0.9705       O13-H15=0.9613       H14-O13=0.9705       H15-O13=0.9613       O16-H18=0.9658       
O16-H19=0.9905       H17-O2=1.0430        H18-O16=0.9658       H19-O16=0.9905       
 O  H  Rav=0.9797 sigma=0.0238  Rmin=0.9587  Rmax=1.0430    10
 S  O  Rav=1.4895 sigma=0.0551  Rmin=1.4315  Rmax=1.5486     4
 
 selected bond angles (degree)
 --------------------
O3-S1-O2=108.24                O4-S1-O2=109.86                O4-S1-O3=116.44                O5-S1-O2=103.25                
O5-S1-O3=109.22                O5-S1-O4=109.01                H17-O2-S1=109.29               H6-O5-S1=104.66                
H9-O7-H8=106.43                H12-O10-H11=103.71             
 
 selected dihedral angles (degree)
 ---------------------------------
H17-O2-S1-O3=236.78           H17-O2-S1-O4=  4.91           H17-O2-S1-O5=121.08           H6-O5-S1-O2= 65.87            
H6-O5-S1-O3=310.87            H6-O5-S1-O4=182.63            
 
 CMA Distance (Angstroems)
 ---------------------------
R(CMA):  1.9031

========================================================================
 FINAL SINGLEPOINT CALCULATION ON OPTIMIZED GEOMETRY
========================================================================

 Ncao       : 52
 Nao        : 51
 Nshell     : 29
 Nel        : 64
 T(el)      :   300.0
 intcut     :    25.0
 scfconv/Eh :  0.100E-05
   qconv/e  :  0.100E-03
 intneglect :  0.100E-07
 broydamp   :      0.250
 iter      E             dE          RMSdq      gap      omega  full diag
   1    -41.1285324 -0.411285E+02  0.982E-05    8.93       0.0  T
   2    -41.1285324 -0.299849E-11  0.618E-05    8.93     371.2  T
   3    -41.1285324 -0.189715E-11  0.102E-05    8.93    2247.5  T
speedup  1.11
cpu  time for SCC    0.00 s
wall time for SCC    0.00 s

   *** convergence criteria satisfied after 3 iterations ***

          eigenvalues
 #    :          20         21         22         23         24         25         26         27
 occ. :        2.000      2.000      2.000      2.000      2.000      2.000      2.000      2.000
 eps  :       -14.542    -14.426    -14.005    -13.956    -13.710    -13.192    -13.138    -13.021
 #    :          28         29         30         31         32         33         34         35
 occ. :        2.000      2.000      2.000      2.000      2.000      0.000      0.000      0.000
 eps  :       -12.892    -12.759    -12.713    -12.342    -12.257     -3.328     -1.169     -0.760
 #    :          36         37         38         39         40         41         42         43
 occ. :        0.000      0.000      0.000      0.000      0.000      0.000      0.000      0.000
 eps  :         0.254      0.711      1.379      2.586      3.786      4.434      5.571      6.226


   #   Z            q   n(s)   n(p)   n(d)      C6AA      α(0)
   1  16 S      1.726  1.582  1.759  0.933    88.173    15.804
   2   8 O     -0.642  1.761  4.881  0.000    26.204     6.910
   3   8 O     -0.714  1.763  4.952  0.000    29.093     7.232
   4   8 O     -0.694  1.752  4.942  0.000    28.538     7.162
   5   8 O     -0.593  1.753  4.840  0.000    24.982     6.747
   6   1 H      0.387  0.613  0.000  0.000     0.503     1.110
   7   8 O     -0.616  1.748  4.868  0.000    25.570     6.825
   8   1 H      0.290  0.710  0.000  0.000     0.753     1.363
   9   1 H      0.328  0.672  0.000  0.000     0.642     1.259
  10   8 O     -0.596  1.734  4.862  0.000    25.087     6.760
  11   1 H      0.307  0.693  0.000  0.000     0.701     1.315
  12   1 H      0.306  0.694  0.000  0.000     0.702     1.316
  13   8 O     -0.589  1.738  4.852  0.000    24.934     6.739
  14   1 H      0.319  0.681  0.000  0.000     0.667     1.283
  15   1 H      0.307  0.693  0.000  0.000     0.701     1.315
  16   8 O     -0.589  1.753  4.836  0.000    24.917     6.738
  17   1 H      0.398  0.602  0.000  0.000     0.485     1.092
  18   1 H      0.315  0.685  0.000  0.000     0.677     1.293
  19   1 H      0.350  0.650  0.000  0.000     0.588     1.205

 Mol. C6AA /au·bohr⁶  :       3363.890354
 Mol. C8AA /au·bohr⁸  :      76019.447568
 Mol. α(0) /au        :         83.468629

 
 Wiberg/Mayer (AO) data. WBOs > 0.1 written file <wbo>
 largest (>0.05) Wiberg bond orders for each atom
           total WBO             WBO to atom ...
     1  S   4.806    O    4 1.413    O    3 1.372    O    2 1.007    O    5 0.981
     2  O   1.945    S    1 1.007    H   17 0.633    O    4 0.095    O    3 0.086    O    5 0.062    O   16 0.058
     3  O   1.742    S    1 1.372    O    4 0.121    O    5 0.092    O    2 0.086
     4  O   1.764    S    1 1.413    O    3 0.121    O    2 0.095    O    5 0.073
     5  O   1.995    S    1 0.981    H    6 0.749    O    3 0.092    O    4 0.073    O    2 0.062
     6  H   0.850    O    5 0.749    O   13 0.083
     7  O   1.871    H    8 0.912    H    9 0.822    H   19 0.072
     8  H   0.916    O    7 0.912
     9  H   0.892    O    7 0.822    O   10 0.068
    10  O   1.889    H   11 0.886    H   12 0.879    H    9 0.068
    11  H   0.906    O   10 0.886
    12  H   0.906    O   10 0.879
    13  O   1.905    H   15 0.903    H   14 0.869    H    6 0.083
    14  H   0.898    O   13 0.869
    15  H   0.906    O   13 0.903
    16  O   1.991    H   18 0.887    H   19 0.803    H   17 0.192    O    2 0.058
    17  H   0.842    O    2 0.633    O   16 0.192
    18  H   0.901    O   16 0.887
    19  H   0.877    O   16 0.803    O    7 0.072
 MOs/occ written to file <molden.input>
 
molecular dipole:
                 x           y           z       tot (Debye)
 q only:       -0.246       0.353       0.437
   full:       -0.151       0.227       0.396       1.221
molecular quadrupole (traceless):
                xx          xy          yy          xz          yz          zz
 q only:       -3.419       1.140       0.808       0.295      -4.744       2.610
  q+dip:       -3.913       2.474       2.198       1.057      -5.171       1.716
   full:       -4.331       2.303       2.091       0.984      -5.314       2.240

SCC energy    :     -41.1285324
rep           :       0.2095397
ES            :       0.1838390
AES           :      -0.0417286
AXC           :      -0.0106868
disp          :      -0.0130924
XB            :       0.0000000
fix           :       0.0000000
total E       :     -40.9189205
atomizationE  :       3.7131077     2330.01
(atE without considering molecular charge,
 total energy contains solvation terms)
H-L gap (eV)  :          8.9282
optimized geometry written to: xtbopt.xyz


------------------------------------------------------------------------
 * finished run on 2019/09/03 at 08:43:20.970     
------------------------------------------------------------------------
 total:
 * wall-time:     0 d,  0 h,  0 min,  2.433 sec
 *  cpu-time:     0 d,  0 h,  0 min,  2.407 sec
 * ratio c/w:     0.989 speedup
 SCF:
 * wall-time:     0 d,  0 h,  0 min,  0.098 sec
 *  cpu-time:     0 d,  0 h,  0 min,  0.095 sec
 * ratio c/w:     0.969 speedup
 ANC optimizer:
 * wall-time:     0 d,  0 h,  0 min,  2.309 sec
 *  cpu-time:     0 d,  0 h,  0 min,  2.290 sec
 * ratio c/w:     0.991 speedup

