      -----------------------------------------------------------      
     |                   =====================                   |     
     |                           x T B                           |     
     |                   =====================                   |     
     |                         S. Grimme                         |     
     |          Mulliken Center for Theoretical Chemistry        |     
     |                    University of Bonn                     |     
     |                 Version 6.0.1 (SAW181210)                 |     
      -----------------------------------------------------------      

   This program is distributed in the hope that it will be useful,
   but WITHOUT ANY WARRANTY; without even the implied warranty of
   MERCHANTABILITY or FITNESS FOR A PARTICULAR PURPOSE.
   
   FOR NON-COMMERCIAL, ACADEMIA USE ONLY.
   
   Cite this work as:
   S. Grimme, C. Bannwarth, P. Shushkov, J. Comput. Theory Chem., 2017,
   13, 1989-2009.
   C. Bannwarth, S. Ehlert and S. Grimme., ChemRxiv, 2018, preprint.
   http://doi.org/10.26434/chemrxiv.7246238.v1
   
   for sTDA-xTB:
   S. Grimme and C. Bannwarth, J. Chem. Phys., 2016, 145, 054103.
   
   in the mass-spec context:
   V. Asgeirsson, C. Bauer and S. Grimme, Chem. Sci., 2017, 8, 4879.
   
   if GBSA is used:
   P. Shushkov, F. März and S. Grimme, unpublished.
   
   for ANC optimizer:
   S. Grimme, unpublished.
   Rational Function algorithm used in ANCopt:
   F. Eckert, P. Pulay, H.-J. Werner, J. Comput. Chem., 1997, 18, 1473.
   
   with help from (in alphabetical order)
   C. Bannwarth, F. Bohle, G. Brandenburg, E. Caldeweyher, M. Checinski,
   S. Dohm, S. Ehlert, S. Ehrlich, F. März, H. Neugebauer, J. Pisarek,
   P. Pracht, P. Shushkov, and S. Spicher.
   
 * started run on 2019/09/03 at 09:06:25.955     
========================================================================
 # omp threads = 1
========================================================================
number of atoms            : 19
number of electrons        : 64
charge                     : 0
spin                       : .0
first test random number   : .8322

########################################################################
# WARNING! Please study the warnings concerning your input carefully
#  - XTBPATH is not set, using XTBHOME instead
#  - the use of '-opt' is discouraged, please use '--opt' next time
#  - the use of '-chrg' is discouraged, please use '--chrg' next time
#  - the use of '-uhf' is discouraged, please use '--uhf' next time
########################################################################

           ------------------------------------------------- 
          |                 G F N 2 - x T B                 |
          | Geometry, Frequencies, Noncovalent interactions |
          |            JCTC 2018 parametrisation            |
           ------------------------------------------------- 
      method parameters     
 k(s)        :  1.8500
 k(p)        :  2.2300
 k(d)        :  2.2300
 k(f)        :  2.0000
 kEN (H0ij)  : -2.0000
 D4 a1       :  0.5200
 D4 a2       :  5.0000
 D4 s6       :  1.0000
 D4 s8       :  2.7000
 D4 s9       :  5.0000
 alphaj      :  2.0000


            Z     q(EN)     CN     RAES       Cart. coordinates
     1  S   6.0    0.64    4.36    4.34     0.98973    -2.45508     0.07689
     2  O   6.0   -0.29    1.15    1.80     2.91991    -0.45205     0.51324
     3  O   6.0   -0.30    1.19    1.80    -0.43444    -2.92136     2.46067
     4  O   6.0   -0.30    1.24    1.80    -0.79444    -1.61714    -1.93376
     5  O   6.0   -0.24    2.09    1.84     2.25040    -4.79725    -0.72152
     6  H   1.0    0.16    1.24    1.48     3.40017    -5.33785     0.57343
     7  O   6.0   -0.27    2.00    1.83     5.58233    -3.96450     3.27312
     8  H   1.0    0.16    1.04    1.43     4.81106    -2.33331     3.03022
     9  H   1.0    0.15    0.97    1.43     6.07092    -4.00976     5.02635
    10  O   6.0   -0.28    2.03    1.83    -2.73377     1.50978     3.51576
    11  H   1.0    0.15    0.97    1.43    -2.71344     1.92613     5.28801
    12  H   1.0    0.18    1.06    1.44    -2.00074    -0.15295     3.40339
    13  O   6.0   -0.27    1.92    1.82    -1.49783     5.40420    -5.88112
    14  H   1.0    0.15    0.97    1.43     0.17928     5.84581    -6.43508
    15  H   1.0    0.15    0.97    1.43    -2.30071     4.65007    -7.33070
    16  O   6.0   -0.21    2.88    2.49    -3.82707     2.09534    -1.25834
    17  H   1.0    0.16    1.08    1.44    -2.89797     0.59251    -1.86508
    18  H   1.0    0.14    1.04    1.43    -3.53788     2.41054     0.56019
    19  H   1.0    0.13    0.96    1.43    -3.46551     3.60687    -2.29567

  Z AO/shell   Hii/eV     exponent
  1     Wed Apr 25 08:07:45 CEST 2018   EN: 2.200 GM2: 0.406  GM3: 0.0800  RAES: 1.40
     1s    -10.707211    1.230000
  8     Wed Apr 25 08:07:45 CEST 2018   EN: 3.440 GM2: 0.452  GM3:-0.0517  RAES: 1.80
     2s    -20.229985    2.439742
     2p    -15.503117    2.137023
 16     Tue Apr 24 11:44:34 CEST 2018   EN: 2.580 GM2: 0.340  GM3:-0.0502  RAES: 3.10
     3s    -20.029654    1.981333
     3p    -11.377694    2.025643
     3d     -0.420282    1.702555
 no old-style atom pair restraining (fixing) potential

molecular fragmentation (1/2 indicates fragments):
1111112222222222222
# atoms in fragment 1/2:     6    13
 fragment masses (1/2) :       97.07       73.07
CMA distance (Bohr)    :   4.101
constraining FC (au)   :  0.0500
           ------------------------------------------------- 
          |        Self-Consistent Charge Iterations        |
           ------------------------------------------------- 

 Ncao       : 52
 Nao        : 51
 Nshell     : 29
 Nel        : 64
 T(el)      :   300.0
 intcut     :    25.0
 scfconv/Eh :  0.100E-05
   qconv/e  :  0.100E-03
 intneglect :  0.100E-07
 broydamp   :      0.250
 iter      E             dE          RMSdq      gap      omega  full diag
   1    -40.9965523 -0.409966E+02  0.769E+00   10.52       0.0  T
   2    -41.0363929 -0.398406E-01  0.555E+00    9.93       1.0  T
   3    -41.0675673 -0.311744E-01  0.144E+00    8.02       1.0  T
   4    -41.0719174 -0.435009E-02  0.617E-01    8.00       1.0  T
   5    -41.0725957 -0.678357E-03  0.334E-01    7.89       1.0  T
   6    -41.0729488 -0.353018E-03  0.152E-01    7.91       1.0  T
   7    -41.0730431 -0.943146E-04  0.610E-02    7.99       1.0  T
   8    -41.0730582 -0.150868E-04  0.295E-02    7.99       1.0  T
   9    -41.0730613 -0.316025E-05  0.157E-02    7.98       1.5  T
  10    -41.0730625 -0.120345E-05  0.281E-03    7.98       8.2  T
  11    -41.0730626 -0.229271E-07  0.108E-03    7.98      21.2  T
  12    -41.0730626 -0.384975E-08  0.510E-04    7.98      45.0  T
  13    -41.0730626 -0.951367E-09  0.109E-04    7.98     210.9  T
speedup  0.98
cpu  time for SCC    0.01 s
wall time for SCC    0.01 s

   *** convergence criteria satisfied after 13 iterations ***

          eigenvalues
 #    :          20         21         22         23         24         25         26         27
 occ. :        2.000      2.000      2.000      2.000      2.000      2.000      2.000      2.000
 eps  :       -13.726    -13.420    -12.977    -12.507    -12.157    -12.128    -11.586    -11.459
 #    :          28         29         30         31         32         33         34         35
 occ. :        2.000      2.000      2.000      2.000      2.000      0.000      0.000      0.000
 eps  :       -10.941    -10.791    -10.497    -10.314    -10.073     -2.093     -0.547      0.706
 #    :          36         37         38         39         40         41         42         43
 occ. :        0.000      0.000      0.000      0.000      0.000      0.000      0.000      0.000
 eps  :         1.439      1.820      2.222      2.753      2.937      5.767      5.985      6.218


   #   Z            q   n(s)   n(p)   n(d)      C6AA      α(0)
   1  16 S      1.575  1.591  1.851  0.983    91.669    16.114
   2   8 O     -0.755  1.780  4.974  0.000    30.244     7.373
   3   8 O     -0.765  1.779  4.986  0.000    30.542     7.410
   4   8 O     -0.749  1.757  4.992  0.000    30.065     7.352
   5   8 O     -0.552  1.715  4.837  0.000    24.046     6.620
   6   1 H      0.383  0.617  0.000  0.000     0.509     1.117
   7   8 O     -0.606  1.740  4.866  0.000    25.332     6.793
   8   1 H      0.315  0.685  0.000  0.000     0.679     1.294
   9   1 H      0.283  0.717  0.000  0.000     0.775     1.383
  10   8 O     -0.624  1.724  4.900  0.000    25.768     6.851
  11   1 H      0.295  0.705  0.000  0.000     0.737     1.348
  12   1 H      0.337  0.663  0.000  0.000     0.620     1.236
  13   8 O     -0.582  1.735  4.847  0.000    24.757     6.715
  14   1 H      0.297  0.703  0.000  0.000     0.729     1.341
  15   1 H      0.290  0.710  0.000  0.000     0.751     1.362
  16   8 O     -0.393  1.638  4.755  0.000    20.658     6.139
  17   1 H      0.429  0.571  0.000  0.000     0.434     1.035
  18   1 H      0.424  0.576  0.000  0.000     0.442     1.045
  19   1 H      0.398  0.602  0.000  0.000     0.489     1.099

 Mol. C6AA /au·bohr⁶  :       3379.564234
 Mol. C8AA /au·bohr⁸  :      76709.586231
 Mol. α(0) /au        :         83.626957

 
 Wiberg/Mayer (AO) data. WBOs > 0.1 written file <wbo>
 largest (>0.05) Wiberg bond orders for each atom
           total WBO             WBO to atom ...
     1  S   4.928    O    2 1.315    O    3 1.287    O    4 1.279    O    5 1.014
     2  O   1.670    S    1 1.315    O    3 0.118    O    4 0.110    O    5 0.080
     3  O   1.672    S    1 1.287    O    2 0.118    O    4 0.110    O    5 0.075    H   12 0.055
     4  O   1.710    S    1 1.279    H   17 0.110    O    3 0.110    O    2 0.110    O    5 0.052
     5  O   2.044    S    1 1.014    H    6 0.806    O    2 0.080    O    3 0.075    O    4 0.052
     6  H   0.853    O    5 0.806
     7  O   1.833    H    9 0.915    H    8 0.869
     8  H   0.901    O    7 0.869
     9  H   0.920    O    7 0.915
    10  O   1.852    H   11 0.902    H   12 0.827    H   18 0.072
    11  H   0.913    O   10 0.902
    12  H   0.886    O   10 0.827    O    3 0.055
    13  O   1.836    H   15 0.915    H   14 0.910
    14  H   0.911    O   13 0.910
    15  H   0.916    O   13 0.915
    16  O   2.346    H   19 0.829    H   18 0.742    H   17 0.698
    17  H   0.816    O   16 0.698    O    4 0.110
    18  H   0.820    O   16 0.742    O   10 0.072
    19  H   0.842    O   16 0.829
 MOs/occ written to file <molden.input>
 
molecular dipole:
                 x           y           z       tot (Debye)
 q only:       -1.943       2.468      -0.782
   full:       -1.340       2.095      -0.700       6.567
molecular quadrupole (traceless):
                xx          xy          yy          xz          yz          zz
 q only:       -4.055      -8.803      -5.546       6.130      -8.005       9.602
  q+dip:       -9.204      -7.438      -6.880       6.465     -10.201      16.084
   full:       -9.506      -7.891      -6.781       6.678      -9.995      16.287

SCC energy    :     -41.0730626
rep           :       0.2163044
ES            :       0.2536662
AES           :      -0.0513025
AXC           :      -0.0113627
disp          :      -0.0113038
XB            :       0.0000000
fix           :       0.0000000
total E       :     -40.8567195
atomizationE  :       3.6509067     2290.98
(atE without considering molecular charge,
 total energy contains solvation terms)
H-L gap (eV)  :          7.9801
           ------------------------------------------------- 
          |                 ===============                 |
          |                   A N C O P T                   |
          |                 ===============                 |
          |          Approximate Normal Coordinate          |
          |           Rational Function Optimizer           |
           ------------------------------------------------- 
dumping coords to <xtbopt.coord> and <xtbopt.log>
 optlevel               2
 Maxcycle             380
 Maxmicro              25
 Econv         1.000000000000000E-007
 Gconv         2.000000000000000E-004
 Maxdispl       1.00000000000000     
 Hlow          5.000000000000000E-003
 S6             20.0000000000000     
 Nvar               51

generating ANC from model Hessian ...
 Shifting diagonal of input Hessian by   5.114016310102993E-003
 Lowest  eigenvalues of input Hessian
    0.005000    0.005050   -0.000000   -0.000000   -0.000000   -0.000000
    0.000000    0.000000    0.005304    0.005344    0.005531    0.005582
    0.005679    0.005903    0.005970    0.006301    0.006913    0.008017
 Highest eigenvalues
    1.458167    1.552226    1.561375    3.136126    3.210095    3.314295
 
cpu  time for ANC gen    0.00 s
wall time for ANC gen    0.00 s
................................................................................
.............................. CYCLE    1 ......................................
................................................................................
   1    -41.0730626 -0.410731E+02  0.745E-05    7.98       0.0  T
   2    -41.0730626 -0.566303E-11  0.593E-05    7.98     386.6  T
   3    -41.0730626 -0.974154E-11  0.219E-05    7.98    1049.2  T
speedup  1.00
cpu  time for SCC    0.00 s
wall time for SCC    0.00 s
speedup  1.00
cpu  time for grad    0.01 s
wall time for grad    0.01 s
 E :    -40.85671943  G :  0.155759    pred/act E change:  0.000D+00  0.281D-07
Maxdispl :   0.2181   ||displ|| :   0.4801   Lambda : -0.204D-01
Largest |displ|/coords:  0.2181 (  24)  0.1613 (   9)  0.1584 (  16)
................................................................................
.............................. CYCLE    2 ......................................
................................................................................
   1    -41.0817702 -0.410818E+02  0.353E-01    8.29       0.0  T
   2    -41.0818895 -0.119348E-03  0.272E-01    8.37       1.0  T
   3    -41.0819411 -0.515899E-04  0.902E-02    8.52       1.0  T
   4    -41.0819543 -0.131456E-04  0.232E-02    8.52       1.0  T
   5    -41.0819554 -0.109768E-05  0.651E-03    8.51       3.5  T
   6    -41.0819554 -0.611254E-07  0.401E-03    8.51       5.7  T
   7    -41.0819555 -0.430343E-07  0.194E-03    8.51      11.8  T
speedup  0.95
cpu  time for SCC    0.00 s
wall time for SCC    0.00 s
speedup  1.00
cpu  time for grad    0.01 s
wall time for grad    0.01 s
 E :    -40.87418713  G :  0.105623    pred/act E change:  0.000D+00 -0.175D-01
Maxdispl :   0.2422   ||displ|| :   0.4978   Lambda : -0.144D-01
Largest |displ|/coords:  0.2422 (  24)  0.1759 (  11)  0.1535 (  18)
................................................................................
.............................. CYCLE    3 ......................................
................................................................................
   1    -41.0886316 -0.410886E+02  0.307E-01    8.69       0.0  T
   2    -41.0888132 -0.181646E-03  0.234E-01    8.76       1.0  T
   3    -41.0888964 -0.831696E-04  0.985E-02    8.89       1.0  T
   4    -41.0889068 -0.103780E-04  0.262E-02    8.89       1.0  T
   5    -41.0889077 -0.980151E-06  0.712E-03    8.89       3.2  T
   6    -41.0889078 -0.794337E-07  0.439E-03    8.89       5.2  T
   7    -41.0889079 -0.480238E-07  0.206E-03    8.89      11.1  T
speedup  1.14
cpu  time for SCC    0.00 s
wall time for SCC    0.00 s
speedup  1.09
cpu  time for grad    0.01 s
wall time for grad    0.01 s
 E :    -40.88577102  G :  0.068832    pred/act E change: -0.126D-01 -0.116D-01
Maxdispl :   0.1938   ||displ|| :   0.4768   Lambda : -0.780D-02
Largest |displ|/coords:  0.1938 (   7)  0.1837 (   6)  0.1694 (   3)
................................................................................
.............................. CYCLE    4 ......................................
................................................................................
   1    -41.0945185 -0.410945E+02  0.233E-01    9.02       0.0  T
   2    -41.0946635 -0.145017E-03  0.176E-01    9.07       1.0  T
   3    -41.0947307 -0.671993E-04  0.816E-02    9.14       1.0  T
   4    -41.0947362 -0.546434E-05  0.222E-02    9.14       1.0  T
   5    -41.0947367 -0.547374E-06  0.582E-03    9.14       3.9  T
   6    -41.0947368 -0.487260E-07  0.346E-03    9.14       6.6  T
speedup  1.08
cpu  time for SCC    0.00 s
wall time for SCC    0.00 s
speedup  1.06
cpu  time for grad    0.01 s
wall time for grad    0.01 s
 E :    -40.89193219  G :  0.039289    pred/act E change: -0.896D-02 -0.616D-02
Maxdispl :   0.2878   ||displ|| :   0.6424   Lambda : -0.658D-02
Largest |displ|/coords:  0.2878 (   6)  0.2825 (   3)  0.2326 (   7)
................................................................................
.............................. CYCLE    5 ......................................
................................................................................
   1    -41.0970543 -0.410971E+02  0.400E-01    9.13       0.0  T
   2    -41.0972373 -0.183007E-03  0.302E-01    9.17       1.0  T
   3    -41.0973129 -0.755944E-04  0.931E-02    9.24       1.0  T
   4    -41.0973330 -0.201500E-04  0.278E-02    9.23       1.0  T
   5    -41.0973340 -0.100012E-05  0.655E-03    9.23       3.5  T
   6    -41.0973341 -0.513673E-07  0.384E-03    9.23       6.0  T
   7    -41.0973341 -0.270131E-07  0.161E-03    9.23      14.2  T
speedup  0.93
cpu  time for SCC    0.00 s
wall time for SCC    0.00 s
speedup  0.98
cpu  time for grad    0.01 s
wall time for grad    0.01 s
 E :    -40.89640996  G :  0.023885    pred/act E change: -0.479D-02 -0.448D-02
Maxdispl :   0.2954   ||displ|| :   0.6569   Lambda : -0.449D-02
Largest |displ|/coords:  0.2954 (   3)  0.2339 (   6)  0.2259 (   7)
................................................................................
.............................. CYCLE    6 ......................................
................................................................................
   1    -41.1026157 -0.411026E+02  0.453E-01    9.17       0.0  T
   2    -41.1027865 -0.170818E-03  0.341E-01    9.19       1.0  T
   3    -41.1028636 -0.770152E-04  0.847E-02    9.24       1.0  T
   4    -41.1028874 -0.238733E-04  0.223E-02    9.23       1.0  T
   5    -41.1028881 -0.623632E-06  0.726E-03    9.23       3.2  T
   6    -41.1028881 -0.381621E-07  0.395E-03    9.23       5.8  T
   7    -41.1028881 -0.211536E-07  0.121E-03    9.23      19.0  T
speedup  0.91
cpu  time for SCC    0.00 s
wall time for SCC    0.00 s
speedup  0.97
cpu  time for grad    0.01 s
wall time for grad    0.01 s
 E :    -40.89747686  G :  0.039703    pred/act E change: -0.465D-02 -0.107D-02
Maxdispl :   0.1866   ||displ|| :   0.4002   Lambda : -0.345D-02
Largest |displ|/coords:  0.1866 (   1)  0.1761 (   3)  0.1420 (   7)
................................................................................
.............................. CYCLE    7 ......................................
................................................................................
   1    -41.0957006 -0.410957E+02  0.530E-01    9.20       0.0  T
   2    -41.0957492 -0.485471E-04  0.404E-01    9.19       1.0  T
   3    -41.0957966 -0.474502E-04  0.390E-02    9.20       1.0  T
   4    -41.0958016 -0.499235E-05  0.102E-02    9.20       2.2  T
   5    -41.0958017 -0.749693E-07  0.463E-03    9.20       5.0  T
   6    -41.0958017 -0.170678E-07  0.222E-03    9.20      10.3  T
speedup  0.81
cpu  time for SCC    0.00 s
wall time for SCC    0.00 s
speedup  0.93
cpu  time for grad    0.01 s
wall time for grad    0.01 s
 E :    -40.89916575  G :  0.040893    pred/act E change: -0.322D-02 -0.169D-02
Maxdispl :   0.2454   ||displ|| :   0.5280   Lambda : -0.470D-02
Largest |displ|/coords:  0.2454 (   1)  0.2305 (   4)  0.1796 (  12)
................................................................................
.............................. CYCLE    8 ......................................
................................................................................
   1    -41.0946420 -0.410946E+02  0.731E-01    9.19       0.0  T
   2    -41.0947808 -0.138792E-03  0.557E-01    9.17       1.0  T
   3    -41.0948887 -0.107910E-03  0.759E-02    9.14       1.0  T
   4    -41.0949075 -0.187827E-04  0.259E-02    9.16       1.0  T
   5    -41.0949086 -0.113707E-05  0.821E-03    9.16       2.8  T
   6    -41.0949087 -0.334652E-07  0.451E-03    9.16       5.1  T
   7    -41.0949087 -0.347853E-07  0.139E-03    9.16      16.5  T
speedup  0.89
cpu  time for SCC    0.00 s
wall time for SCC    0.00 s
speedup  0.96
cpu  time for grad    0.01 s
wall time for grad    0.01 s
 E :    -40.89731832  G :  0.053403    pred/act E change: -0.200D-02  0.185D-02
Maxdispl :   0.2281   ||displ|| :   0.5231   Lambda : -0.121D-01
Largest |displ|/coords:  0.2281 (  12)  0.2152 (  15)  0.2054 (  13)
................................................................................
.............................. CYCLE    9 ......................................
................................................................................
   1    -41.1037593 -0.411038E+02  0.827E-01    9.15       0.0  T
   2    -41.1038982 -0.138895E-03  0.631E-01    9.16       1.0  T
   3    -41.1040349 -0.136624E-03  0.745E-02    9.20       1.0  T
   4    -41.1040466 -0.117677E-04  0.291E-02    9.19       1.0  T
   5    -41.1040476 -0.999975E-06  0.771E-03    9.18       3.0  T
   6    -41.1040477 -0.437208E-07  0.420E-03    9.18       5.5  T
   7    -41.1040477 -0.295710E-07  0.156E-03    9.18      14.7  T
speedup  1.14
cpu  time for SCC    0.00 s
wall time for SCC    0.00 s
speedup  1.03
cpu  time for grad    0.01 s
wall time for grad    0.01 s
 E :    -40.89894919  G :  0.047850    pred/act E change: -0.300D-02 -0.163D-02
Maxdispl :   0.1113   ||displ|| :   0.3027   Lambda : -0.372D-02
Largest |displ|/coords:  0.1113 (  18)  0.1095 (   1)  0.1028 (   4)
................................................................................
.............................. CYCLE   10 ......................................
................................................................................
   1    -41.1077402 -0.411077E+02  0.425E-01    9.21       0.0  T
   2    -41.1078073 -0.671388E-04  0.321E-01    9.20       1.0  T
   3    -41.1078502 -0.428984E-04  0.602E-02    9.20       1.0  T
   4    -41.1078593 -0.907945E-05  0.174E-02    9.20       1.3  T
   5    -41.1078600 -0.722032E-06  0.564E-03    9.20       4.1  T
   6    -41.1078600 -0.130339E-07  0.324E-03    9.20       7.1  T
speedup  1.08
cpu  time for SCC    0.00 s
wall time for SCC    0.00 s
speedup  0.93
cpu  time for grad    0.01 s
wall time for grad    0.01 s
 E :    -40.90055337  G :  0.034348    pred/act E change: -0.769D-02 -0.160D-02
Maxdispl :   0.3233   ||displ|| :   0.4629   Lambda : -0.418D-02
Largest |displ|/coords:  0.3233 (   6)  0.1728 (   1)  0.1205 (  12)
................................................................................
.............................. CYCLE   11 ......................................
................................................................................
   1    -41.0967521 -0.410968E+02  0.567E-01    9.20       0.0  T
   2    -41.0968840 -0.131909E-03  0.428E-01    9.20       1.0  T
   3    -41.0969601 -0.760705E-04  0.747E-02    9.19       1.0  T
   4    -41.0969807 -0.205676E-04  0.211E-02    9.20       1.1  T
   5    -41.0969815 -0.886496E-06  0.751E-03    9.20       3.1  T
   6    -41.0969816 -0.311793E-07  0.445E-03    9.20       5.2  T
   7    -41.0969816 -0.215243E-07  0.879E-04    9.20      26.1  T
speedup  1.14
cpu  time for SCC    0.00 s
wall time for SCC    0.00 s
speedup  1.08
cpu  time for grad    0.01 s
wall time for grad    0.01 s
 E :    -40.89987453  G :  0.055157    pred/act E change: -0.203D-02  0.679D-03
Maxdispl :   0.2412   ||displ|| :   0.4504   Lambda : -0.870D-02
Largest |displ|/coords:  0.2412 (   6)  0.2127 (   3)  0.1125 (  16)
................................................................................
.............................. CYCLE   12 ......................................
................................................................................
   1    -41.1069365 -0.411069E+02  0.645E-01    9.18       0.0  T
   2    -41.1070803 -0.143808E-03  0.487E-01    9.19       1.0  T
   3    -41.1071911 -0.110775E-03  0.768E-02    9.20       1.0  T
   4    -41.1072091 -0.179593E-04  0.157E-02    9.19       1.5  T
   5    -41.1072093 -0.236398E-06  0.908E-03    9.19       2.5  T
   6    -41.1072093 -0.513684E-07  0.328E-03    9.19       7.0  T
   7    -41.1072094 -0.144985E-07  0.876E-04    9.19      26.2  T
speedup  1.16
cpu  time for SCC    0.00 s
wall time for SCC    0.00 s
speedup  1.09
cpu  time for grad    0.01 s
wall time for grad    0.01 s
 E :    -40.90085433  G :  0.052666    pred/act E change: -0.254D-02 -0.980D-03
Maxdispl :   0.1430   ||displ|| :   0.3521   Lambda : -0.464D-02
Largest |displ|/coords:  0.1430 (   9)  0.1407 (   8)  0.1141 (   1)
................................................................................
.............................. CYCLE   13 ......................................
................................................................................
   1    -41.1129472 -0.411129E+02  0.486E-01    9.19       0.0  T
   2    -41.1130536 -0.106327E-03  0.366E-01    9.19       1.0  T
   3    -41.1131241 -0.705377E-04  0.672E-02    9.19       1.0  T
   4    -41.1131386 -0.145313E-04  0.162E-02    9.20       1.4  T
   5    -41.1131391 -0.466381E-06  0.651E-03    9.20       3.5  T
   6    -41.1131391 -0.246237E-07  0.369E-03    9.20       6.2  T
   7    -41.1131391 -0.146844E-07  0.972E-04    9.20      23.6  T
speedup  1.16
cpu  time for SCC    0.01 s
wall time for SCC    0.00 s
speedup  1.09
cpu  time for grad    0.01 s
wall time for grad    0.01 s
 E :    -40.90168029  G :  0.038924    pred/act E change: -0.523D-02 -0.826D-03
Maxdispl :   0.1996   ||displ|| :   0.3156   Lambda : -0.293D-02
Largest |displ|/coords:  0.1996 (  10)  0.1056 (  14)  0.1019 (  16)
................................................................................
.............................. CYCLE   14 ......................................
................................................................................
   1    -41.1046464 -0.411046E+02  0.346E-01    9.21       0.0  T
   2    -41.1046990 -0.525913E-04  0.259E-01    9.21       1.0  T
   3    -41.1047295 -0.305056E-04  0.505E-02    9.21       1.0  T
   4    -41.1047367 -0.721433E-05  0.149E-02    9.21       1.5  T
   5    -41.1047372 -0.468559E-06  0.552E-03    9.21       4.2  T
   6    -41.1047372 -0.220565E-07  0.336E-03    9.21       6.8  T
speedup  1.08
cpu  time for SCC    0.00 s
wall time for SCC    0.00 s
speedup  1.03
cpu  time for grad    0.01 s
wall time for grad    0.01 s
 E :    -40.90271088  G :  0.026899    pred/act E change: -0.261D-02 -0.103D-02
Maxdispl :   0.1939   ||displ|| :   0.2854   Lambda : -0.215D-02
Largest |displ|/coords:  0.1939 (   8)  0.0951 (   4)  0.0718 (   1)
................................................................................
.............................. CYCLE   15 ......................................
................................................................................
   1    -41.1017342 -0.411017E+02  0.285E-01    9.18       0.0  T
   2    -41.1017727 -0.385078E-04  0.212E-01    9.19       1.0  T
   3    -41.1017927 -0.200532E-04  0.422E-02    9.20       1.0  T
   4    -41.1017975 -0.475817E-05  0.971E-03    9.20       2.4  T
   5    -41.1017976 -0.151039E-06  0.370E-03    9.19       6.2  T
   6    -41.1017976 -0.992300E-08  0.208E-03    9.19      11.0  T
speedup  1.08
cpu  time for SCC    0.00 s
wall time for SCC    0.00 s
speedup  0.93
cpu  time for grad    0.01 s
wall time for grad    0.01 s
 E :    -40.90291355  G :  0.040545    pred/act E change: -0.161D-02 -0.203D-03
Maxdispl :   0.1411   ||displ|| :   0.2125   Lambda : -0.213D-02
Largest |displ|/coords:  0.1411 (   8)  0.0988 (   1)  0.0670 (   9)
................................................................................
.............................. CYCLE   16 ......................................
................................................................................
   1    -41.1116505 -0.411117E+02  0.184E-01    9.19       0.0  T
   2    -41.1116734 -0.228825E-04  0.135E-01    9.19       1.0  T
   3    -41.1116859 -0.125506E-04  0.306E-02    9.19       1.0  T
   4    -41.1116884 -0.246843E-05  0.661E-03    9.19       3.5  T
   5    -41.1116885 -0.715962E-07  0.320E-03    9.19       7.2  T
   6    -41.1116885 -0.695074E-08  0.172E-03    9.19      13.3  T
speedup  1.08
cpu  time for SCC    0.00 s
wall time for SCC    0.00 s
speedup  1.05
cpu  time for grad    0.01 s
wall time for grad    0.01 s
 E :    -40.90388477  G :  0.015465    pred/act E change: -0.116D-02 -0.971D-03
Maxdispl :   0.1153   ||displ|| :   0.2445   Lambda : -0.105D-02
Largest |displ|/coords:  0.1153 (   1)  0.0818 (   6)  0.0780 (  14)
................................................................................
.............................. CYCLE   17 ......................................
................................................................................
   1    -41.1101266 -0.411101E+02  0.206E-01    9.19       0.0  T
   2    -41.1101660 -0.394215E-04  0.154E-01    9.19       1.0  T
   3    -41.1101854 -0.193763E-04  0.410E-02    9.19       1.0  T
   4    -41.1101901 -0.470802E-05  0.117E-02    9.20       2.0  T
   5    -41.1101904 -0.260440E-06  0.453E-03    9.20       5.1  T
   6    -41.1101904 -0.187526E-07  0.252E-03    9.20       9.1  T
   7    -41.1101904 -0.880401E-08  0.638E-04    9.20      36.0  T
speedup  0.93
cpu  time for SCC    0.00 s
wall time for SCC    0.00 s
speedup  0.98
cpu  time for grad    0.01 s
wall time for grad    0.01 s
 E :    -40.90439051  G :  0.019775    pred/act E change: -0.111D-02 -0.506D-03
Maxdispl :   0.1525   ||displ|| :   0.2651   Lambda : -0.931D-03
Largest |displ|/coords:  0.1525 (   1)  0.0943 (  10)  0.0932 (   2)
................................................................................
.............................. CYCLE   18 ......................................
................................................................................
   1    -41.1108575 -0.411109E+02  0.171E-01    9.19       0.0  T
   2    -41.1108764 -0.189056E-04  0.128E-01    9.19       1.0  T
   3    -41.1108862 -0.982198E-05  0.289E-02    9.19       1.0  T
   4    -41.1108887 -0.247805E-05  0.876E-03    9.19       2.6  T
   5    -41.1108888 -0.170671E-06  0.310E-03    9.19       7.4  T
   6    -41.1108888 -0.960213E-08  0.195E-03    9.19      11.8  T
   7    -41.1108888 -0.522146E-08  0.496E-04    9.19      46.2  T
speedup  0.93
cpu  time for SCC    0.00 s
wall time for SCC    0.00 s
speedup  0.96
cpu  time for grad    0.01 s
wall time for grad    0.01 s
 E :    -40.90507884  G :  0.015586    pred/act E change: -0.558D-03 -0.688D-03
Maxdispl :   0.1714   ||displ|| :   0.3900   Lambda : -0.127D-02
Largest |displ|/coords:  0.1714 (   2)  0.1678 (   1)  0.1473 (   4)
................................................................................
.............................. CYCLE   19 ......................................
................................................................................
   1    -41.1135904 -0.411136E+02  0.258E-01    9.18       0.0  T
   2    -41.1136282 -0.377750E-04  0.193E-01    9.17       1.0  T
   3    -41.1136481 -0.198902E-04  0.405E-02    9.14       1.0  T
   4    -41.1136534 -0.527962E-05  0.116E-02    9.14       2.0  T
   5    -41.1136536 -0.245924E-06  0.427E-03    9.14       5.4  T
   6    -41.1136536 -0.167842E-07  0.261E-03    9.14       8.8  T
   7    -41.1136536 -0.914603E-08  0.730E-04    9.14      31.4  T
speedup  0.93
cpu  time for SCC    0.00 s
wall time for SCC    0.00 s
speedup  0.98
cpu  time for grad    0.01 s
wall time for grad    0.01 s
 E :    -40.90575828  G :  0.017505    pred/act E change: -0.498D-03 -0.679D-03
Maxdispl :   0.1167   ||displ|| :   0.2444   Lambda : -0.590D-03
Largest |displ|/coords:  0.1167 (   2)  0.0993 (   1)  0.0709 (  10)
................................................................................
.............................. CYCLE   20 ......................................
................................................................................
   1    -41.1158469 -0.411158E+02  0.172E-01    9.14       0.0  T
   2    -41.1158613 -0.143622E-04  0.131E-01    9.12       1.0  T
   3    -41.1158708 -0.956631E-05  0.246E-02    9.09       1.0  T
   4    -41.1158730 -0.220472E-05  0.859E-03    9.10       2.7  T
   5    -41.1158732 -0.127529E-06  0.326E-03    9.10       7.0  T
   6    -41.1158732 -0.745604E-08  0.176E-03    9.10      13.0  T
   7    -41.1158732 -0.394930E-08  0.363E-04    9.10      63.2  T
speedup  0.93
cpu  time for SCC    0.00 s
wall time for SCC    0.00 s
speedup  0.98
cpu  time for grad    0.01 s
wall time for grad    0.01 s
 E :    -40.90595064  G :  0.015834    pred/act E change: -0.730D-03 -0.192D-03
Maxdispl :   0.1213   ||displ|| :   0.2444   Lambda : -0.618D-03
Largest |displ|/coords:  0.1213 (   2)  0.1005 (   4)  0.0977 (  10)
................................................................................
.............................. CYCLE   21 ......................................
................................................................................
   1    -41.1167663 -0.411168E+02  0.202E-01    9.04       0.0  T
   2    -41.1167767 -0.103460E-04  0.152E-01    9.04       1.0  T
   3    -41.1167843 -0.765419E-05  0.214E-02    9.03       1.1  T
   4    -41.1167858 -0.146519E-05  0.558E-03    9.03       4.1  T
   5    -41.1167858 -0.334324E-07  0.265E-03    9.03       8.7  T
   6    -41.1167859 -0.480524E-08  0.145E-03    9.03      15.8  T
speedup  0.79
cpu  time for SCC    0.00 s
wall time for SCC    0.00 s
speedup  0.92
cpu  time for grad    0.01 s
wall time for grad    0.01 s
 E :    -40.90620129  G :  0.013099    pred/act E change: -0.312D-03 -0.251D-03
Maxdispl :   0.0952   ||displ|| :   0.1448   Lambda : -0.379D-03
Largest |displ|/coords:  0.0952 (   2)  0.0550 (   9)  0.0500 (   4)
................................................................................
.............................. CYCLE   22 ......................................
................................................................................
   1    -41.1170137 -0.411170E+02  0.956E-02    9.04       0.0  T
   2    -41.1170155 -0.181054E-05  0.721E-02    9.04       1.0  T
   3    -41.1170172 -0.170226E-05  0.927E-03    9.06       2.5  T
   4    -41.1170174 -0.193127E-06  0.282E-03    9.05       8.1  T
   5    -41.1170175 -0.110336E-07  0.127E-03    9.05      18.0  T
speedup  0.97
cpu  time for SCC    0.00 s
wall time for SCC    0.00 s
speedup  0.99
cpu  time for grad    0.01 s
wall time for grad    0.01 s
 E :    -40.90644594  G :  0.013181    pred/act E change: -0.328D-03 -0.245D-03
Maxdispl :   0.2002   ||displ|| :   0.3015   Lambda : -0.532D-03
Largest |displ|/coords:  0.2002 (   2)  0.1517 (   9)  0.0799 (   4)
................................................................................
.............................. CYCLE   23 ......................................
................................................................................
   1    -41.1174238 -0.411174E+02  0.193E-01    9.07       0.0  T
   2    -41.1174305 -0.675733E-05  0.147E-01    9.07       1.0  T
   3    -41.1174388 -0.829867E-05  0.178E-02    9.06       1.3  T
   4    -41.1174393 -0.459419E-06  0.558E-03    9.07       4.1  T
   5    -41.1174393 -0.332252E-07  0.229E-03    9.07      10.0  T
   6    -41.1174393 -0.418796E-08  0.129E-03    9.07      17.8  T
speedup  1.08
cpu  time for SCC    0.00 s
wall time for SCC    0.00 s
speedup  1.03
cpu  time for grad    0.01 s
wall time for grad    0.01 s
 E :    -40.90667275  G :  0.014667    pred/act E change: -0.194D-03 -0.227D-03
Maxdispl :   0.2245   ||displ|| :   0.3539   Lambda : -0.611D-03
Largest |displ|/coords:  0.2245 (   2)  0.1707 (   9)  0.1184 (   4)
................................................................................
.............................. CYCLE   24 ......................................
................................................................................
   1    -41.1153473 -0.411153E+02  0.187E-01    9.02       0.0  T
   2    -41.1153545 -0.725452E-05  0.142E-01    9.03       1.0  T
   3    -41.1153622 -0.761589E-05  0.169E-02    9.06       1.4  T
   4    -41.1153629 -0.781066E-06  0.597E-03    9.05       3.8  T
   5    -41.1153630 -0.395639E-07  0.270E-03    9.05       8.5  T
   6    -41.1153630 -0.590403E-08  0.116E-03    9.05      19.7  T
speedup  0.79
cpu  time for SCC    0.00 s
wall time for SCC    0.00 s
speedup  0.92
cpu  time for grad    0.01 s
wall time for grad    0.01 s
 E :    -40.90708605  G :  0.012497    pred/act E change: -0.290D-03 -0.413D-03
Maxdispl :   0.2821   ||displ|| :   0.4514   Lambda : -0.737D-03
Largest |displ|/coords:  0.2821 (   2)  0.1963 (   1)  0.1909 (   9)
................................................................................
.............................. CYCLE   25 ......................................
................................................................................
   1    -41.1177764 -0.411178E+02  0.217E-01    8.98       0.0  T
   2    -41.1177849 -0.850229E-05  0.164E-01    8.99       1.0  T
   3    -41.1177918 -0.685813E-05  0.224E-02    9.00       1.0  T
   4    -41.1177928 -0.101299E-05  0.589E-03    9.00       3.9  T
   5    -41.1177929 -0.613336E-07  0.211E-03    9.00      10.9  T
   6    -41.1177929 -0.206273E-08  0.106E-03    9.00      21.6  T
speedup  1.11
cpu  time for SCC    0.00 s
wall time for SCC    0.00 s
speedup  1.05
cpu  time for grad    0.01 s
wall time for grad    0.01 s
 E :    -40.90750546  G :  0.019651    pred/act E change: -0.344D-03 -0.419D-03
Maxdispl :   0.3611   ||displ|| :   0.5199   Lambda : -0.842D-03
Largest |displ|/coords:  0.3611 (   2)  0.2077 (   9)  0.1978 (   1)

generating ANC from model Hessian ...
 Shifting diagonal of input Hessian by   5.085466671399692E-003
 Lowest  eigenvalues of input Hessian
    0.005000   -0.000000   -0.000000   -0.000000   -0.000000    0.000000
    0.000000    0.005229    0.005477    0.005595    0.005871    0.006127
    0.007031    0.009064    0.010033    0.011368    0.012545    0.014132
 Highest eigenvalues
    1.396217    1.416042    1.457738    2.601837    3.357774    3.636794
 
cpu  time for ANC gen    0.00 s
wall time for ANC gen    0.00 s
................................................................................
.............................. CYCLE   26 ......................................
................................................................................
   1    -41.1158103 -0.411158E+02  0.252E-01    8.97       0.0  T
   2    -41.1158270 -0.167335E-04  0.191E-01    9.00       1.0  T
   3    -41.1158415 -0.144424E-04  0.259E-02    9.05       1.0  T
   4    -41.1158437 -0.221629E-05  0.757E-03    9.03       3.0  T
   5    -41.1158437 -0.550658E-07  0.368E-03    9.03       6.2  T
   6    -41.1158437 -0.119748E-07  0.186E-03    9.03      12.4  T
   7    -41.1158438 -0.439494E-08  0.428E-04    9.03      53.6  T
   8    -41.1158438 -0.367976E-09  0.131E-04    9.03     175.0  T
speedup  0.82
cpu  time for SCC    0.00 s
wall time for SCC    0.00 s
speedup  0.98
cpu  time for grad    0.01 s
wall time for grad    0.01 s
 E :    -40.90803716  G :  0.022156    pred/act E change:  0.000D+00 -0.532D-03
Maxdispl :   0.1283   ||displ|| :   0.2586   Lambda : -0.114D-02
Largest |displ|/coords:  0.1283 (   2)  0.1036 (   1)  0.0888 (  12)
................................................................................
.............................. CYCLE   27 ......................................
................................................................................
   1    -41.1174624 -0.411175E+02  0.236E-01    9.09       0.0  T
   2    -41.1174691 -0.664859E-05  0.179E-01    9.08       1.0  T
   3    -41.1174758 -0.670421E-05  0.167E-02    9.08       1.4  T
   4    -41.1174764 -0.615069E-06  0.531E-03    9.08       4.3  T
   5    -41.1174764 -0.201423E-07  0.215E-03    9.08      10.7  T
speedup  0.97
cpu  time for SCC    0.00 s
wall time for SCC    0.00 s
speedup  0.99
cpu  time for grad    0.01 s
wall time for grad    0.01 s
 E :    -40.90889956  G :  0.009512    pred/act E change:  0.000D+00 -0.862D-03
Maxdispl :   0.2472   ||displ|| :   0.4888   Lambda : -0.115D-02
Largest |displ|/coords:  0.2472 (   2)  0.2362 (   1)  0.1854 (   4)
................................................................................
.............................. CYCLE   28 ......................................
................................................................................
   1    -41.1162778 -0.411163E+02  0.389E-01    9.12       0.0  T
   2    -41.1162949 -0.170735E-04  0.294E-01    9.13       1.0  T
   3    -41.1163098 -0.149367E-04  0.295E-02    9.15       1.0  T
   4    -41.1163118 -0.199955E-05  0.107E-02    9.15       2.1  T
   5    -41.1163119 -0.730247E-07  0.333E-03    9.15       6.9  T
   6    -41.1163119 -0.802126E-08  0.185E-03    9.15      12.4  T
   7    -41.1163119 -0.384191E-08  0.493E-04    9.15      46.6  T
speedup  0.89
cpu  time for SCC    0.00 s
wall time for SCC    0.00 s
speedup  0.94
cpu  time for grad    0.01 s
wall time for grad    0.01 s
 E :    -40.90955897  G :  0.023448    pred/act E change: -0.607D-03 -0.659D-03
Maxdispl :   0.2472   ||displ|| :   0.4504   Lambda : -0.123D-02
Largest |displ|/coords:  0.2472 (   2)  0.2342 (   1)  0.1283 (   4)
................................................................................
.............................. CYCLE   29 ......................................
................................................................................
   1    -41.1175026 -0.411175E+02  0.324E-01    9.14       0.0  T
   2    -41.1175177 -0.151216E-04  0.243E-01    9.16       1.0  T
   3    -41.1175323 -0.146214E-04  0.316E-02    9.20       1.0  T
   4    -41.1175339 -0.150962E-05  0.821E-03    9.19       2.8  T
   5    -41.1175339 -0.676753E-07  0.345E-03    9.19       6.7  T
   6    -41.1175339 -0.129820E-07  0.184E-03    9.19      12.5  T
speedup  1.08
cpu  time for SCC    0.00 s
wall time for SCC    0.00 s
speedup  1.02
cpu  time for grad    0.01 s
wall time for grad    0.01 s
 E :    -40.91039906  G :  0.018479    pred/act E change: -0.711D-03 -0.840D-03
Maxdispl :   0.3289   ||displ|| :   0.5849   Lambda : -0.132D-02
Largest |displ|/coords:  0.3289 (   1)  0.3142 (   2)  0.2772 (   4)
................................................................................
.............................. CYCLE   30 ......................................
................................................................................
   1    -41.1191322 -0.411191E+02  0.290E-01    9.14       0.0  T
   2    -41.1191446 -0.123548E-04  0.215E-01    9.14       1.0  T
   3    -41.1191539 -0.934061E-05  0.321E-02    9.15       1.0  T
   4    -41.1191554 -0.141232E-05  0.120E-02    9.15       1.9  T
   5    -41.1191555 -0.108597E-06  0.250E-03    9.15       9.2  T
   6    -41.1191555 -0.617181E-08  0.156E-03    9.15      14.8  T
speedup  0.81
cpu  time for SCC    0.00 s
wall time for SCC    0.00 s
speedup  0.91
cpu  time for grad    0.01 s
wall time for grad    0.01 s
 E :    -40.91150432  G :  0.017380    pred/act E change: -0.743D-03 -0.111D-02
Maxdispl :   0.4841   ||displ|| :   0.8023   Lambda : -0.198D-02
Largest |displ|/coords:  0.4841 (   2)  0.4000 (   4)  0.3727 (   1)
................................................................................
.............................. CYCLE   31 ......................................
................................................................................
   1    -41.1149043 -0.411149E+02  0.469E-01    8.98       0.0  T
   2    -41.1149400 -0.357165E-04  0.352E-01    9.01       1.0  T
   3    -41.1149693 -0.293368E-04  0.486E-02    9.07       1.0  T
   4    -41.1149736 -0.428832E-05  0.179E-02    9.06       1.3  T
   5    -41.1149739 -0.264604E-06  0.470E-03    9.05       4.9  T
   6    -41.1149739 -0.238396E-07  0.291E-03    9.05       7.9  T
   7    -41.1149739 -0.146024E-07  0.100E-03    9.06      22.9  T
speedup  1.16
cpu  time for SCC    0.00 s
wall time for SCC    0.00 s
speedup  0.97
cpu  time for grad    0.01 s
wall time for grad    0.01 s
 E :    -40.91312836  G :  0.022706    pred/act E change: -0.888D-03 -0.162D-02
Maxdispl :   0.4506   ||displ|| :   0.7040   Lambda : -0.230D-02
Largest |displ|/coords:  0.4506 (   4)  0.4176 (   2)  0.2578 (   1)
................................................................................
.............................. CYCLE   32 ......................................
................................................................................
   1    -41.1174227 -0.411174E+02  0.387E-01    9.13       0.0  T
   2    -41.1174456 -0.228887E-04  0.290E-01    9.13       1.0  T
   3    -41.1174677 -0.221031E-04  0.422E-02    9.15       1.0  T
   4    -41.1174699 -0.221996E-05  0.129E-02    9.15       1.8  T
   5    -41.1174700 -0.147883E-06  0.455E-03    9.15       5.0  T
   6    -41.1174700 -0.225492E-07  0.259E-03    9.15       8.8  T
speedup  0.77
cpu  time for SCC    0.00 s
wall time for SCC    0.00 s
speedup  0.99
cpu  time for grad    0.01 s
wall time for grad    0.01 s
 E :    -40.91416249  G :  0.043522    pred/act E change: -0.163D-02 -0.103D-02
Maxdispl :   0.3738   ||displ|| :   0.5390   Lambda : -0.263D-02
Largest |displ|/coords:  0.3738 (   2)  0.2017 (   1)  0.1947 (   4)
................................................................................
.............................. CYCLE   33 ......................................
................................................................................
   1    -41.1145729 -0.411146E+02  0.275E-01    9.02       0.0  T
   2    -41.1145950 -0.221841E-04  0.205E-01    8.99       1.0  T
   3    -41.1146101 -0.150030E-04  0.333E-02    8.90       1.0  T
   4    -41.1146131 -0.302222E-05  0.916E-03    8.93       2.5  T
   5    -41.1146132 -0.936285E-07  0.394E-03    8.93       5.8  T
   6    -41.1146132 -0.178783E-07  0.224E-03    8.93      10.2  T
speedup  1.08
cpu  time for SCC    0.00 s
wall time for SCC    0.00 s
speedup  1.01
cpu  time for grad    0.01 s
wall time for grad    0.01 s
 E :    -40.91591865  G :  0.029106    pred/act E change: -0.172D-02 -0.176D-02
Maxdispl :   0.3164   ||displ|| :   0.4658   Lambda : -0.378D-02
Largest |displ|/coords:  0.3164 (   1)  0.1477 (  14)  0.1291 (  20)
................................................................................
.............................. CYCLE   34 ......................................
................................................................................
   1    -41.1352588 -0.411353E+02  0.431E-01    9.62       0.0  T
   2    -41.1353295 -0.706968E-04  0.318E-01    9.64       1.0  T
   3    -41.1353701 -0.406766E-04  0.683E-02    9.64       1.0  T
   4    -41.1353787 -0.858786E-05  0.261E-02    9.64       1.0  T
   5    -41.1353792 -0.512468E-06  0.603E-03    9.65       3.8  T
   6    -41.1353793 -0.252830E-07  0.348E-03    9.65       6.6  T
   7    -41.1353793 -0.125293E-07  0.103E-03    9.65      22.3  T
speedup  0.93
cpu  time for SCC    0.00 s
wall time for SCC    0.00 s
speedup  0.95
cpu  time for grad    0.01 s
wall time for grad    0.01 s
 E :    -40.91357757  G :  0.064860    pred/act E change: -0.170D-02  0.234D-02
Maxdispl :   0.1787   ||displ|| :   0.4581   Lambda : -0.126D-01
Largest |displ|/coords:  0.1787 (   1)  0.1475 (  12)  0.1446 (   4)
................................................................................
.............................. CYCLE   35 ......................................
................................................................................
   1    -41.1045929 -0.411046E+02  0.615E-01    8.79       0.0  T
   2    -41.1047329 -0.140001E-03  0.460E-01    8.77       1.0  T
   3    -41.1048323 -0.994855E-04  0.887E-02    8.71       1.0  T
   4    -41.1048498 -0.174575E-04  0.357E-02    8.69       1.0  T
   5    -41.1048511 -0.130689E-05  0.922E-03    8.68       2.5  T
   6    -41.1048512 -0.800923E-07  0.516E-03    8.68       4.4  T
   7    -41.1048512 -0.410717E-07  0.155E-03    8.69      14.8  T
speedup  0.93
cpu  time for SCC    0.00 s
wall time for SCC    0.00 s
speedup  1.04
cpu  time for grad    0.01 s
wall time for grad    0.01 s
 E :    -40.91403906  G :  0.063538    pred/act E change: -0.230D-02 -0.461D-03
Maxdispl :   0.1627   ||displ|| :   0.3585   Lambda : -0.105D-01
Largest |displ|/coords:  0.1627 (   7)  0.1313 (   3)  0.1199 (   6)
................................................................................
.............................. CYCLE   36 ......................................
................................................................................
   1    -41.1305036 -0.411305E+02  0.524E-01    9.27       0.0  T
   2    -41.1306193 -0.115661E-03  0.393E-01    9.28       1.0  T
   3    -41.1307102 -0.908813E-04  0.763E-02    9.32       1.0  T
   4    -41.1307230 -0.128331E-04  0.315E-02    9.34       1.0  T
   5    -41.1307241 -0.112435E-05  0.885E-03    9.35       2.6  T
   6    -41.1307242 -0.480869E-07  0.439E-03    9.35       5.2  T
   7    -41.1307242 -0.338323E-07  0.107E-03    9.34      21.4  T
speedup  0.93
cpu  time for SCC    0.00 s
wall time for SCC    0.00 s
speedup  0.95
cpu  time for grad    0.01 s
wall time for grad    0.01 s
 E :    -40.91557925  G :  0.043663    pred/act E change: -0.761D-02 -0.154D-02
Maxdispl :   0.0840   ||displ|| :   0.2170   Lambda : -0.348D-02
Largest |displ|/coords:  0.0840 (   2)  0.0800 (   7)  0.0755 (   5)
................................................................................
.............................. CYCLE   37 ......................................
................................................................................
   1    -41.1229270 -0.411229E+02  0.290E-01    9.27       0.0  T
   2    -41.1229462 -0.192283E-04  0.220E-01    9.28       1.0  T
   3    -41.1229646 -0.183723E-04  0.274E-02    9.29       1.0  T
   4    -41.1229666 -0.206956E-05  0.111E-02    9.28       2.1  T
   5    -41.1229668 -0.145131E-06  0.351E-03    9.27       6.5  T
   6    -41.1229668 -0.813653E-08  0.185E-03    9.27      12.4  T
speedup  1.11
cpu  time for SCC    0.00 s
wall time for SCC    0.00 s
speedup  1.00
cpu  time for grad    0.01 s
wall time for grad    0.01 s
 E :    -40.91737387  G :  0.013458    pred/act E change: -0.591D-02 -0.179D-02
Maxdispl :   0.1839   ||displ|| :   0.3329   Lambda : -0.926D-03
Largest |displ|/coords:  0.1839 (   2)  0.1803 (   4)  0.1393 (   1)
................................................................................
.............................. CYCLE   38 ......................................
................................................................................
   1    -41.1173568 -0.411174E+02  0.242E-01    8.94       0.0  T
   2    -41.1173748 -0.179719E-04  0.181E-01    8.90       1.0  T
   3    -41.1173874 -0.125647E-04  0.308E-02    8.80       1.0  T
   4    -41.1173898 -0.239661E-05  0.969E-03    8.81       2.4  T
   5    -41.1173899 -0.912105E-07  0.338E-03    8.82       6.8  T
   6    -41.1173899 -0.134704E-07  0.186E-03    8.82      12.4  T
   7    -41.1173899 -0.888438E-08  0.683E-04    8.82      33.6  T
speedup  1.09
cpu  time for SCC    0.00 s
wall time for SCC    0.00 s
speedup  0.95
cpu  time for grad    0.01 s
wall time for grad    0.01 s
 E :    -40.91721585  G :  0.025625    pred/act E change: -0.182D-02  0.158D-03
Maxdispl :   0.1076   ||displ|| :   0.1726   Lambda : -0.111D-02
Largest |displ|/coords:  0.1076 (   1)  0.0858 (   4)  0.0501 (   2)
................................................................................
.............................. CYCLE   39 ......................................
................................................................................
   1    -41.1216327 -0.411216E+02  0.124E-01    9.05       0.0  T
   2    -41.1216387 -0.603891E-05  0.903E-02    9.08       1.0  T
   3    -41.1216427 -0.395898E-05  0.184E-02    9.14       1.2  T
   4    -41.1216432 -0.548643E-06  0.569E-03    9.13       4.0  T
   5    -41.1216433 -0.293398E-07  0.165E-03    9.13      13.9  T
speedup  0.88
cpu  time for SCC    0.00 s
wall time for SCC    0.00 s
speedup  0.93
cpu  time for grad    0.01 s
wall time for grad    0.01 s
 E :    -40.91785532  G :  0.012641    pred/act E change: -0.514D-03 -0.639D-03
Maxdispl :   0.0560   ||displ|| :   0.1367   Lambda : -0.355D-03
Largest |displ|/coords:  0.0560 (   3)  0.0548 (   5)  0.0469 (   1)
................................................................................
.............................. CYCLE   40 ......................................
................................................................................
   1    -41.1212696 -0.411213E+02  0.115E-01    9.16       0.0  T
   2    -41.1212718 -0.221590E-05  0.869E-02    9.17       1.0  T
   3    -41.1212744 -0.253486E-05  0.109E-02    9.19       2.1  T
   4    -41.1212745 -0.173458E-06  0.401E-03    9.19       5.7  T
   5    -41.1212745 -0.147097E-07  0.137E-03    9.18      16.8  T
   6    -41.1212745 -0.139604E-08  0.814E-04    9.18      28.2  T
speedup  1.08
cpu  time for SCC    0.00 s
wall time for SCC    0.00 s
speedup  1.00
cpu  time for grad    0.01 s
wall time for grad    0.01 s
 E :    -40.91810685  G :  0.012318    pred/act E change: -0.569D-03 -0.252D-03
Maxdispl :   0.1925   ||displ|| :   0.3468   Lambda : -0.824D-03
Largest |displ|/coords:  0.1925 (   3)  0.1379 (   2)  0.1324 (  12)
................................................................................
.............................. CYCLE   41 ......................................
................................................................................
   1    -41.1223923 -0.411224E+02  0.254E-01    9.26       0.0  T
   2    -41.1224041 -0.117964E-04  0.190E-01    9.27       1.0  T
   3    -41.1224153 -0.111691E-04  0.255E-02    9.31       1.0  T
   4    -41.1224166 -0.127251E-05  0.659E-03    9.30       3.5  T
   5    -41.1224166 -0.589710E-07  0.332E-03    9.30       6.9  T
   6    -41.1224166 -0.120528E-07  0.180E-03    9.30      12.8  T
   7    -41.1224166 -0.405477E-08  0.503E-04    9.30      45.6  T
speedup  0.93
cpu  time for SCC    0.00 s
wall time for SCC    0.00 s
speedup  1.05
cpu  time for grad    0.01 s
wall time for grad    0.01 s
 E :    -40.91855195  G :  0.011411    pred/act E change: -0.181D-03 -0.445D-03
Maxdispl :   0.1324   ||displ|| :   0.2399   Lambda : -0.544D-03
Largest |displ|/coords:  0.1324 (   7)  0.0871 (  12)  0.0788 (   8)
................................................................................
.............................. CYCLE   42 ......................................
................................................................................
   1    -41.1199763 -0.411200E+02  0.196E-01    9.23       0.0  T
   2    -41.1199854 -0.902563E-05  0.149E-01    9.24       1.0  T
   3    -41.1199930 -0.766574E-05  0.196E-02    9.27       1.2  T
   4    -41.1199943 -0.125890E-05  0.640E-03    9.27       3.6  T
   5    -41.1199944 -0.615981E-07  0.255E-03    9.26       9.0  T
   6    -41.1199944 -0.400647E-08  0.137E-03    9.26      16.8  T
speedup  0.81
cpu  time for SCC    0.00 s
wall time for SCC    0.00 s
speedup  1.01
cpu  time for grad    0.01 s
wall time for grad    0.01 s
 E :    -40.91883017  G :  0.012163    pred/act E change: -0.462D-03 -0.278D-03
Maxdispl :   0.1183   ||displ|| :   0.1960   Lambda : -0.402D-03
Largest |displ|/coords:  0.1183 (   2)  0.0716 (   1)  0.0627 (   7)
................................................................................
.............................. CYCLE   43 ......................................
................................................................................
   1    -41.1202437 -0.411202E+02  0.139E-01    9.23       0.0  T
   2    -41.1202528 -0.912603E-05  0.104E-01    9.22       1.0  T
   3    -41.1202578 -0.494336E-05  0.216E-02    9.20       1.1  T
   4    -41.1202591 -0.135633E-05  0.800E-03    9.21       2.9  T
   5    -41.1202592 -0.565053E-07  0.204E-03    9.21      11.3  T
   6    -41.1202592 -0.459984E-08  0.121E-03    9.21      19.0  T
speedup  0.81
cpu  time for SCC    0.00 s
wall time for SCC    0.00 s
speedup  0.89
cpu  time for grad    0.01 s
wall time for grad    0.01 s
 E :    -40.91906634  G :  0.009114    pred/act E change: -0.288D-03 -0.236D-03
Maxdispl :   0.1109   ||displ|| :   0.2271   Lambda : -0.421D-03
Largest |displ|/coords:  0.1109 (   1)  0.1096 (   3)  0.0774 (   7)
................................................................................
.............................. CYCLE   44 ......................................
................................................................................
   1    -41.1198793 -0.411199E+02  0.177E-01    9.23       0.0  T
   2    -41.1198970 -0.177242E-04  0.130E-01    9.23       1.0  T
   3    -41.1199043 -0.730236E-05  0.289E-02    9.24       1.0  T
   4    -41.1199065 -0.222976E-05  0.110E-02    9.24       2.1  T
   5    -41.1199067 -0.117547E-06  0.235E-03    9.24       9.7  T
   6    -41.1199067 -0.716900E-08  0.143E-03    9.24      16.1  T
speedup  1.05
cpu  time for SCC    0.00 s
wall time for SCC    0.00 s
speedup  1.11
cpu  time for grad    0.01 s
wall time for grad    0.01 s
 E :    -40.91929922  G :  0.011286    pred/act E change: -0.209D-03 -0.233D-03
Maxdispl :   0.1163   ||displ|| :   0.2839   Lambda : -0.528D-03
Largest |displ|/coords:  0.1163 (   3)  0.1104 (   1)  0.1097 (   7)
................................................................................
.............................. CYCLE   45 ......................................
................................................................................
   1    -41.1197871 -0.411198E+02  0.188E-01    9.27       0.0  T
   2    -41.1198167 -0.296005E-04  0.139E-01    9.31       1.0  T
   3    -41.1198304 -0.137599E-04  0.361E-02    9.36       1.0  T
   4    -41.1198337 -0.323913E-05  0.139E-02    9.36       1.6  T
   5    -41.1198339 -0.206409E-06  0.302E-03    9.35       7.6  T
   6    -41.1198339 -0.115868E-07  0.178E-03    9.35      12.9  T
   7    -41.1198339 -0.385567E-08  0.661E-04    9.35      34.7  T
speedup  1.14
cpu  time for SCC    0.01 s
wall time for SCC    0.00 s
speedup  1.04
cpu  time for grad    0.01 s
wall time for grad    0.01 s
 E :    -40.91962091  G :  0.012391    pred/act E change: -0.221D-03 -0.322D-03
Maxdispl :   0.1165   ||displ|| :   0.2773   Lambda : -0.348D-03
Largest |displ|/coords:  0.1165 (   3)  0.1080 (   7)  0.0997 (   1)
................................................................................
.............................. CYCLE   46 ......................................
................................................................................
   1    -41.1168646 -0.411169E+02  0.215E-01    9.41       0.0  T
   2    -41.1168997 -0.351354E-04  0.161E-01    9.42       1.0  T
   3    -41.1169167 -0.170091E-04  0.394E-02    9.41       1.0  T
   4    -41.1169214 -0.471703E-05  0.140E-02    9.41       1.6  T
   5    -41.1169217 -0.250200E-06  0.382E-03    9.41       6.0  T
   6    -41.1169217 -0.146519E-07  0.227E-03    9.41      10.1  T
   7    -41.1169217 -0.510912E-08  0.701E-04    9.41      32.7  T
speedup  0.93
cpu  time for SCC    0.00 s
wall time for SCC    0.00 s
speedup  1.05
cpu  time for grad    0.01 s
wall time for grad    0.01 s
 E :    -40.91985572  G :  0.010815    pred/act E change: -0.285D-03 -0.235D-03
Maxdispl :   0.1742   ||displ|| :   0.3428   Lambda : -0.538D-03
Largest |displ|/coords:  0.1742 (   1)  0.1160 (   7)  0.0988 (  24)
................................................................................
.............................. CYCLE   47 ......................................
................................................................................
   1    -41.1183607 -0.411184E+02  0.258E-01    9.47       0.0  T
   2    -41.1184361 -0.753503E-04  0.192E-01    9.47       1.0  T
   3    -41.1184701 -0.340434E-04  0.568E-02    9.46       1.0  T
   4    -41.1184778 -0.772104E-05  0.208E-02    9.46       1.1  T
   5    -41.1184784 -0.555737E-06  0.485E-03    9.46       4.7  T
   6    -41.1184784 -0.264181E-07  0.291E-03    9.46       7.9  T
   7    -41.1184784 -0.880954E-08  0.984E-04    9.46      23.3  T
speedup  0.89
cpu  time for SCC    0.00 s
wall time for SCC    0.00 s
speedup  0.92
cpu  time for grad    0.01 s
wall time for grad    0.01 s
 E :    -40.92006142  G :  0.018482    pred/act E change: -0.187D-03 -0.206D-03
Maxdispl :   0.1415   ||displ|| :   0.3377   Lambda : -0.560D-03
Largest |displ|/coords:  0.1415 (   3)  0.1169 (   1)  0.1028 (   7)
................................................................................
.............................. CYCLE   48 ......................................
................................................................................
   1    -41.1140316 -0.411140E+02  0.263E-01    9.47       0.0  T
   2    -41.1140928 -0.612593E-04  0.200E-01    9.47       1.0  T
   3    -41.1141220 -0.291552E-04  0.535E-02    9.47       1.0  T
   4    -41.1141307 -0.871668E-05  0.208E-02    9.46       1.1  T
   5    -41.1141313 -0.636904E-06  0.527E-03    9.46       4.4  T
   6    -41.1141314 -0.266738E-07  0.300E-03    9.46       7.7  T
   7    -41.1141314 -0.102999E-07  0.912E-04    9.46      25.2  T
speedup  1.16
cpu  time for SCC    0.00 s
wall time for SCC    0.00 s
speedup  1.05
cpu  time for grad    0.01 s
wall time for grad    0.01 s
 E :    -40.92029945  G :  0.016810    pred/act E change: -0.301D-03 -0.238D-03
Maxdispl :   0.0690   ||displ|| :   0.1508   Lambda : -0.505D-03
Largest |displ|/coords:  0.0690 (   2)  0.0508 (   9)  0.0467 (   4)
................................................................................
.............................. CYCLE   49 ......................................
................................................................................
   1    -41.1166652 -0.411167E+02  0.106E-01    9.65       0.0  T
   2    -41.1166741 -0.891117E-05  0.780E-02    9.65       1.0  T
   3    -41.1166788 -0.471433E-05  0.241E-02    9.65       1.0  T
   4    -41.1166796 -0.828072E-06  0.946E-03    9.65       2.4  T
   5    -41.1166797 -0.826419E-07  0.179E-03    9.65      12.8  T
   6    -41.1166797 -0.302847E-08  0.117E-03    9.65      19.6  T
speedup  1.05
cpu  time for SCC    0.00 s
wall time for SCC    0.00 s
speedup  0.99
cpu  time for grad    0.01 s
wall time for grad    0.01 s
 E :    -40.92040773  G :  0.020051    pred/act E change: -0.312D-03 -0.108D-03
Maxdispl :   0.0965   ||displ|| :   0.2160   Lambda : -0.727D-03
Largest |displ|/coords:  0.0965 (   7)  0.0819 (   3)  0.0734 (   1)
................................................................................
.............................. CYCLE   50 ......................................
................................................................................
   1    -41.1124854 -0.411125E+02  0.189E-01    9.48       0.0  T
   2    -41.1124987 -0.133104E-04  0.142E-01    9.47       1.0  T
   3    -41.1125071 -0.847099E-05  0.298E-02    9.47       1.0  T
   4    -41.1125090 -0.180472E-05  0.908E-03    9.47       2.5  T
   5    -41.1125090 -0.955744E-07  0.239E-03    9.47       9.6  T
   6    -41.1125091 -0.399101E-08  0.150E-03    9.47      15.3  T
speedup  1.08
cpu  time for SCC    0.00 s
wall time for SCC    0.00 s
speedup  1.00
cpu  time for grad    0.01 s
wall time for grad    0.01 s
 E :    -40.92071395  G :  0.019121    pred/act E change: -0.258D-03 -0.306D-03
Maxdispl :   0.0938   ||displ|| :   0.1595   Lambda : -0.754D-03
Largest |displ|/coords:  0.0938 (   5)  0.0584 (  10)  0.0419 (   8)
................................................................................
.............................. CYCLE   51 ......................................
................................................................................
   1    -41.1181587 -0.411182E+02  0.153E-01    9.54       0.0  T
   2    -41.1181695 -0.107861E-04  0.115E-01    9.54       1.0  T
   3    -41.1181766 -0.704417E-05  0.238E-02    9.53       1.0  T
   4    -41.1181779 -0.134991E-05  0.734E-03    9.53       3.1  T
   5    -41.1181780 -0.704713E-07  0.254E-03    9.53       9.0  T
   6    -41.1181780 -0.592510E-08  0.138E-03    9.53      16.6  T
speedup  1.08
cpu  time for SCC    0.00 s
wall time for SCC    0.00 s
speedup  1.00
cpu  time for grad    0.01 s
wall time for grad    0.01 s
 E :    -40.92090510  G :  0.018167    pred/act E change: -0.380D-03 -0.191D-03
Maxdispl :   0.0574   ||displ|| :   0.1589   Lambda : -0.795D-03
Largest |displ|/coords:  0.0574 (   9)  0.0549 (   6)  0.0540 (   1)
................................................................................
.............................. CYCLE   52 ......................................
................................................................................
   1    -41.1161217 -0.411161E+02  0.152E-01    9.54       0.0  T
   2    -41.1161386 -0.168873E-04  0.113E-01    9.54       1.0  T
   3    -41.1161477 -0.909159E-05  0.274E-02    9.53       1.0  T
   4    -41.1161497 -0.197551E-05  0.806E-03    9.53       2.8  T
   5    -41.1161498 -0.909214E-07  0.275E-03    9.53       8.4  T
   6    -41.1161498 -0.876561E-08  0.153E-03    9.53      15.0  T
speedup  1.08
cpu  time for SCC    0.00 s
wall time for SCC    0.00 s
speedup  1.00
cpu  time for grad    0.01 s
wall time for grad    0.01 s
 E :    -40.92127856  G :  0.017234    pred/act E change: -0.387D-03 -0.373D-03
Maxdispl :   0.0875   ||displ|| :   0.2055   Lambda : -0.634D-03
Largest |displ|/coords:  0.0875 (   1)  0.0622 (  13)  0.0604 (   3)

generating ANC from model Hessian ...
 Shifting diagonal of input Hessian by   4.703994077555858E-003
 Lowest  eigenvalues of input Hessian
   -0.000000   -0.000000   -0.000000    0.000000    0.000000    0.000000
    0.005000    0.005321    0.006166    0.006683    0.007437    0.007722
    0.009561    0.012825    0.013828    0.017819    0.020405    0.021580
 Highest eigenvalues
    1.392544    1.397536    1.402022    2.797508    3.464603    3.495452
 
cpu  time for ANC gen    0.01 s
wall time for ANC gen    0.01 s
................................................................................
.............................. CYCLE   53 ......................................
................................................................................
   1    -41.1159474 -0.411159E+02  0.165E-01    9.55       0.0  T
   2    -41.1159573 -0.994968E-05  0.121E-01    9.55       1.0  T
   3    -41.1159632 -0.585864E-05  0.254E-02    9.56       1.0  T
   4    -41.1159642 -0.981612E-06  0.102E-02    9.56       2.2  T
   5    -41.1159642 -0.574024E-07  0.190E-03    9.56      12.1  T
   6    -41.1159642 -0.505909E-08  0.116E-03    9.56      19.8  T
   7    -41.1159642 -0.146962E-08  0.380E-04    9.56      60.4  T
   8    -41.1159642 -0.267434E-09  0.106E-04    9.56     215.6  T
speedup  1.00
cpu  time for SCC    0.01 s
wall time for SCC    0.01 s
speedup  1.04
cpu  time for grad    0.01 s
wall time for grad    0.01 s
 E :    -40.92150796  G :  0.013403    pred/act E change:  0.000D+00 -0.229D-03
Maxdispl :   0.0531   ||displ|| :   0.1089   Lambda : -0.397D-03
Largest |displ|/coords:  0.0531 (   6)  0.0454 (   3)  0.0404 (  14)
................................................................................
.............................. CYCLE   54 ......................................
................................................................................
   1    -41.1159211 -0.411159E+02  0.973E-02    9.54       0.0  T
   2    -41.1159234 -0.238425E-05  0.737E-02    9.54       1.0  T
   3    -41.1159253 -0.186073E-05  0.106E-02    9.54       2.2  T
   4    -41.1159256 -0.321517E-06  0.426E-03    9.54       5.4  T
   5    -41.1159256 -0.183240E-07  0.998E-04    9.54      23.0  T
   6    -41.1159256 -0.838632E-09  0.606E-04    9.54      37.9  T
speedup  0.81
cpu  time for SCC    0.00 s
wall time for SCC    0.00 s
speedup  1.01
cpu  time for grad    0.01 s
wall time for grad    0.01 s
 E :    -40.92175669  G :  0.007142    pred/act E change:  0.000D+00 -0.249D-03
Maxdispl :   0.0639   ||displ|| :   0.1145   Lambda : -0.209D-03
Largest |displ|/coords:  0.0639 (   1)  0.0568 (   3)  0.0413 (  14)
................................................................................
.............................. CYCLE   55 ......................................
................................................................................
   1    -41.1161445 -0.411161E+02  0.777E-02    9.52       0.0  T
   2    -41.1161479 -0.338836E-05  0.584E-02    9.52       1.0  T
   3    -41.1161497 -0.186284E-05  0.131E-02    9.52       1.8  T
   4    -41.1161502 -0.472190E-06  0.473E-03    9.52       4.8  T
   5    -41.1161502 -0.301366E-07  0.123E-03    9.52      18.7  T
   6    -41.1161502 -0.167039E-08  0.658E-04    9.52      34.9  T
speedup  1.05
cpu  time for SCC    0.00 s
wall time for SCC    0.00 s
speedup  0.99
cpu  time for grad    0.01 s
wall time for grad    0.01 s
 E :    -40.92186941  G :  0.006243    pred/act E change: -0.201D-03 -0.113D-03
Maxdispl :   0.0674   ||displ|| :   0.1208   Lambda : -0.146D-03
Largest |displ|/coords:  0.0674 (   1)  0.0462 (   4)  0.0415 (  14)
................................................................................
.............................. CYCLE   56 ......................................
................................................................................
   1    -41.1160068 -0.411160E+02  0.874E-02    9.51       0.0  T
   2    -41.1160103 -0.343526E-05  0.659E-02    9.50       1.0  T
   3    -41.1160123 -0.200309E-05  0.121E-02    9.50       1.9  T
   4    -41.1160128 -0.537784E-06  0.451E-03    9.50       5.1  T
   5    -41.1160128 -0.279528E-07  0.135E-03    9.50      17.0  T
   6    -41.1160128 -0.179941E-08  0.705E-04    9.50      32.6  T
speedup  1.08
cpu  time for SCC    0.00 s
wall time for SCC    0.00 s
speedup  1.01
cpu  time for grad    0.01 s
wall time for grad    0.01 s
 E :    -40.92194870  G :  0.007101    pred/act E change: -0.106D-03 -0.793D-04
Maxdispl :   0.0346   ||displ|| :   0.0846   Lambda : -0.987D-04
Largest |displ|/coords:  0.0346 (   1)  0.0312 (   6)  0.0274 (  14)
................................................................................
.............................. CYCLE   57 ......................................
................................................................................
   1    -41.1159576 -0.411160E+02  0.560E-02    9.50       0.0  T
   2    -41.1159592 -0.163625E-05  0.418E-02    9.50       1.0  T
   3    -41.1159599 -0.682825E-06  0.896E-03    9.49       2.6  T
   4    -41.1159601 -0.236475E-06  0.285E-03    9.49       8.1  T
   5    -41.1159601 -0.133324E-07  0.761E-04    9.49      30.2  T
speedup  0.97
cpu  time for SCC    0.00 s
wall time for SCC    0.00 s
speedup  0.95
cpu  time for grad    0.01 s
wall time for grad    0.01 s
 E :    -40.92202423  G :  0.005563    pred/act E change: -0.740D-04 -0.755D-04
Maxdispl :   0.0591   ||displ|| :   0.1388   Lambda : -0.130D-03
Largest |displ|/coords:  0.0591 (   1)  0.0543 (  14)  0.0404 (  13)
................................................................................
.............................. CYCLE   58 ......................................
................................................................................
   1    -41.1157144 -0.411157E+02  0.992E-02    9.49       0.0  T
   2    -41.1157176 -0.328213E-05  0.744E-02    9.49       1.0  T
   3    -41.1157193 -0.167407E-05  0.134E-02    9.49       1.7  T
   4    -41.1157198 -0.523868E-06  0.441E-03    9.49       5.2  T
   5    -41.1157199 -0.301142E-07  0.134E-03    9.49      17.1  T
   6    -41.1157199 -0.187784E-08  0.772E-04    9.49      29.7  T
speedup  1.03
cpu  time for SCC    0.00 s
wall time for SCC    0.00 s
speedup  0.99
cpu  time for grad    0.01 s
wall time for grad    0.01 s
 E :    -40.92210555  G :  0.003103    pred/act E change: -0.497D-04 -0.813D-04
Maxdispl :   0.0270   ||displ|| :   0.0669   Lambda : -0.443D-04
Largest |displ|/coords:  0.0270 (   4)  0.0247 (  10)  0.0235 (  14)
................................................................................
.............................. CYCLE   59 ......................................
................................................................................
   1    -41.1158723 -0.411159E+02  0.457E-02    9.50       0.0  T
   2    -41.1158727 -0.467208E-06  0.344E-02    9.50       1.0  T
   3    -41.1158732 -0.453710E-06  0.545E-03    9.49       4.2  T
   4    -41.1158732 -0.542920E-07  0.200E-03    9.49      11.5  T
   5    -41.1158732 -0.373436E-08  0.545E-04    9.49      42.1  T
   6    -41.1158732 -0.205567E-09  0.336E-04    9.49      68.3  T
speedup  1.08
cpu  time for SCC    0.00 s
wall time for SCC    0.00 s
speedup  1.08
cpu  time for grad    0.01 s
wall time for grad    0.01 s
 E :    -40.92213734  G :  0.002604    pred/act E change: -0.664D-04 -0.318D-04
Maxdispl :   0.0387   ||displ|| :   0.0792   Lambda : -0.388D-04
Largest |displ|/coords:  0.0387 (   2)  0.0304 (  18)  0.0258 (  10)
................................................................................
.............................. CYCLE   60 ......................................
................................................................................
   1    -41.1156995 -0.411157E+02  0.593E-02    9.51       0.0  T
   2    -41.1157003 -0.778908E-06  0.447E-02    9.51       1.0  T
   3    -41.1157011 -0.805575E-06  0.685E-03    9.51       3.3  T
   4    -41.1157012 -0.857171E-07  0.243E-03    9.51       9.4  T
   5    -41.1157012 -0.574691E-08  0.768E-04    9.51      29.9  T
   6    -41.1157012 -0.450534E-09  0.449E-04    9.51      51.1  T
speedup  0.81
cpu  time for SCC    0.00 s
wall time for SCC    0.00 s
speedup  0.98
cpu  time for grad    0.01 s
wall time for grad    0.01 s
 E :    -40.92216107  G :  0.001812    pred/act E change: -0.223D-04 -0.237D-04
Maxdispl :   0.0188   ||displ|| :   0.0387   Lambda : -0.130D-04
Largest |displ|/coords:  0.0188 (   2)  0.0149 (   1)  0.0141 (   5)
................................................................................
.............................. CYCLE   61 ......................................
................................................................................
   1    -41.1158386 -0.411158E+02  0.300E-02    9.52       0.0  T
   2    -41.1158389 -0.248099E-06  0.222E-02    9.52       1.0  T
   3    -41.1158391 -0.189490E-06  0.404E-03    9.52       5.7  T
   4    -41.1158391 -0.307310E-07  0.880E-04    9.52      26.1  T
   5    -41.1158391 -0.713214E-09  0.339E-04    9.52      67.6  T
speedup  0.94
cpu  time for SCC    0.00 s
wall time for SCC    0.00 s
speedup  1.03
cpu  time for grad    0.01 s
wall time for grad    0.01 s
 E :    -40.92216960  G :  0.001536    pred/act E change: -0.195D-04 -0.853D-05
Maxdispl :   0.0321   ||displ|| :   0.0434   Lambda : -0.882D-05
Largest |displ|/coords:  0.0321 (   2)  0.0137 (  10)  0.0122 (   5)
................................................................................
.............................. CYCLE   62 ......................................
................................................................................
   1    -41.1155812 -0.411156E+02  0.362E-02    9.52       0.0  T
   2    -41.1155814 -0.233218E-06  0.272E-02    9.52       1.0  T
   3    -41.1155816 -0.229733E-06  0.342E-03    9.52       6.7  T
   4    -41.1155816 -0.253801E-07  0.847E-04    9.52      27.1  T
   5    -41.1155816 -0.730822E-09  0.391E-04    9.52      58.7  T
speedup  0.97
cpu  time for SCC    0.00 s
wall time for SCC    0.00 s
speedup  1.05
cpu  time for grad    0.01 s
wall time for grad    0.01 s
 E :    -40.92217586  G :  0.000901    pred/act E change: -0.653D-05 -0.626D-05
Maxdispl :   0.0389   ||displ|| :   0.0542   Lambda : -0.764D-05
Largest |displ|/coords:  0.0389 (   2)  0.0219 (   1)  0.0165 (  10)
................................................................................
.............................. CYCLE   63 ......................................
................................................................................
   1    -41.1154144 -0.411154E+02  0.438E-02    9.52       0.0  T
   2    -41.1154146 -0.231494E-06  0.330E-02    9.52       1.0  T
   3    -41.1154149 -0.254974E-06  0.317E-03    9.52       7.2  T
   4    -41.1154149 -0.191419E-07  0.831E-04    9.52      27.6  T
   5    -41.1154149 -0.644974E-09  0.384E-04    9.52      59.8  T
speedup  0.97
cpu  time for SCC    0.00 s
wall time for SCC    0.00 s
speedup  0.92
cpu  time for grad    0.01 s
wall time for grad    0.01 s
 E :    -40.92218110  G :  0.000933    pred/act E change: -0.442D-05 -0.524D-05
Maxdispl :   0.0360   ||displ|| :   0.0472   Lambda : -0.444D-05
Largest |displ|/coords:  0.0360 (   2)  0.0191 (   1)  0.0149 (  10)
................................................................................
.............................. CYCLE   64 ......................................
................................................................................
   1    -41.1152316 -0.411152E+02  0.368E-02    9.52       0.0  T
   2    -41.1152318 -0.149710E-06  0.278E-02    9.52       1.0  T
   3    -41.1152319 -0.178074E-06  0.207E-03    9.52      11.1  T
   4    -41.1152319 -0.104199E-07  0.732E-04    9.52      31.3  T
   5    -41.1152319 -0.469363E-09  0.322E-04    9.52      71.2  T
speedup  1.25
cpu  time for SCC    0.00 s
wall time for SCC    0.00 s
speedup  1.03
cpu  time for grad    0.01 s
wall time for grad    0.01 s
 E :    -40.92218409  G :  0.000895    pred/act E change: -0.383D-05 -0.299D-05
Maxdispl :   0.0238   ||displ|| :   0.0304   Lambda : -0.241D-05
Largest |displ|/coords:  0.0238 (   2)  0.0130 (   1)  0.0095 (  10)
................................................................................
.............................. CYCLE   65 ......................................
................................................................................
   1    -41.1153079 -0.411153E+02  0.220E-02    9.52       0.0  T
   2    -41.1153079 -0.496449E-07  0.166E-02    9.52       1.4  T
   3    -41.1153080 -0.569622E-07  0.112E-03    9.52      20.5  T
   4    -41.1153080 -0.387029E-08  0.467E-04    9.52      49.1  T
   5    -41.1153080 -0.200124E-09  0.166E-04    9.52     138.4  T
speedup  0.94
cpu  time for SCC    0.00 s
wall time for SCC    0.00 s
speedup  1.00
cpu  time for grad    0.01 s
wall time for grad    0.01 s
 E :    -40.92218569  G :  0.000704    pred/act E change: -0.222D-05 -0.160D-05
Maxdispl :   0.0204   ||displ|| :   0.0243   Lambda : -0.145D-05
Largest |displ|/coords:  0.0204 (   2)  0.0081 (   1)  0.0076 (  10)
................................................................................
.............................. CYCLE   66 ......................................
................................................................................
   1    -41.1153526 -0.411154E+02  0.182E-02    9.52       0.0  T
   2    -41.1153526 -0.375571E-07  0.138E-02    9.52       1.7  T
   3    -41.1153527 -0.464337E-07  0.986E-04    9.52      23.3  T
   4    -41.1153527 -0.259533E-08  0.415E-04    9.52      55.3  T
speedup  1.15
cpu  time for SCC    0.00 s
wall time for SCC    0.00 s
speedup  0.98
cpu  time for grad    0.01 s
wall time for grad    0.01 s
 E :    -40.92218670  G :  0.000631    pred/act E change: -0.121D-05 -0.101D-05
Maxdispl :   0.0173   ||displ|| :   0.0197   Lambda : -0.115D-05
Largest |displ|/coords:  0.0173 (   2)  0.0066 (  10)  0.0036 (   1)
................................................................................
.............................. CYCLE   67 ......................................
................................................................................
   1    -41.1154864 -0.411155E+02  0.149E-02    9.52       0.0  T
   2    -41.1154864 -0.285508E-07  0.113E-02    9.52       2.0  T
   3    -41.1154865 -0.319836E-07  0.939E-04    9.52      24.4  T
   4    -41.1154865 -0.250679E-08  0.432E-04    9.52      53.1  T
speedup  0.77
cpu  time for SCC    0.00 s
wall time for SCC    0.00 s
speedup  0.99
cpu  time for grad    0.01 s
wall time for grad    0.01 s
 E :    -40.92218755  G :  0.000511    pred/act E change: -0.725D-06 -0.848D-06
Maxdispl :   0.0218   ||displ|| :   0.0245   Lambda : -0.951D-06
Largest |displ|/coords:  0.0218 (   2)  0.0082 (  10)  0.0032 (   5)
................................................................................
.............................. CYCLE   68 ......................................
................................................................................
   1    -41.1155186 -0.411155E+02  0.188E-02    9.52       0.0  T
   2    -41.1155186 -0.406484E-07  0.142E-02    9.52       1.6  T
   3    -41.1155187 -0.533814E-07  0.104E-03    9.52      22.2  T
   4    -41.1155187 -0.219708E-08  0.503E-04    9.52      45.6  T
   5    -41.1155187 -0.216865E-09  0.134E-04    9.52     171.5  T
speedup  0.97
cpu  time for SCC    0.00 s
wall time for SCC    0.00 s
speedup  1.03
cpu  time for grad    0.01 s
wall time for grad    0.01 s
 E :    -40.92218823  G :  0.000453    pred/act E change: -0.576D-06 -0.687D-06
Maxdispl :   0.0185   ||displ|| :   0.0216   Lambda : -0.717D-06
Largest |displ|/coords:  0.0185 (   2)  0.0081 (  10)  0.0037 (   4)
................................................................................
.............................. CYCLE   69 ......................................
................................................................................
   1    -41.1155686 -0.411156E+02  0.162E-02    9.52       0.0  T
   2    -41.1155686 -0.310937E-07  0.123E-02    9.52       1.9  T
   3    -41.1155687 -0.393788E-07  0.985E-04    9.52      23.3  T
   4    -41.1155687 -0.189171E-08  0.397E-04    9.52      57.8  T
speedup  0.77
cpu  time for SCC    0.00 s
wall time for SCC    0.00 s
speedup  0.98
cpu  time for grad    0.01 s
wall time for grad    0.01 s
 E :    -40.92218873  G :  0.000416    pred/act E change: -0.476D-06 -0.494D-06
Maxdispl :   0.0120   ||displ|| :   0.0147   Lambda : -0.487D-06
Largest |displ|/coords:  0.0120 (   2)  0.0044 (  10)  0.0043 (   1)
................................................................................
.............................. CYCLE   70 ......................................
................................................................................
   1    -41.1155607 -0.411156E+02  0.107E-02    9.52       0.0  T
   2    -41.1155607 -0.151926E-07  0.811E-03    9.52       2.8  T
   3    -41.1155607 -0.176433E-07  0.818E-04    9.52      28.1  T
   4    -41.1155607 -0.125944E-08  0.295E-04    9.52      77.7  T
speedup  1.11
cpu  time for SCC    0.00 s
wall time for SCC    0.00 s
speedup  1.08
cpu  time for grad    0.01 s
wall time for grad    0.01 s
 E :    -40.92218909  G :  0.000330    pred/act E change: -0.359D-06 -0.366D-06
Maxdispl :   0.0115   ||displ|| :   0.0171   Lambda : -0.510D-06
Largest |displ|/coords:  0.0115 (   2)  0.0078 (   1)  0.0059 (  10)
................................................................................
.............................. CYCLE   71 ......................................
................................................................................
   1    -41.1155715 -0.411156E+02  0.118E-02    9.52       0.0  T
   2    -41.1155715 -0.225054E-07  0.893E-03    9.52       2.6  T
   3    -41.1155716 -0.215200E-07  0.105E-03    9.52      21.8  T
   4    -41.1155716 -0.269053E-08  0.400E-04    9.52      57.3  T
   5    -41.1155716 -0.149832E-09  0.106E-04    9.52     216.9  T
speedup  0.97
cpu  time for SCC    0.00 s
wall time for SCC    0.00 s
speedup  0.92
cpu  time for grad    0.01 s
wall time for grad    0.01 s
 E :    -40.92218940  G :  0.000226    pred/act E change: -0.244D-06 -0.309D-06
Maxdispl :   0.0059   ||displ|| :   0.0077   Lambda : -0.176D-06
Largest |displ|/coords:  0.0059 (   2)  0.0025 (  10)  0.0021 (   1)
................................................................................
.............................. CYCLE   72 ......................................
................................................................................
   1    -41.1155526 -0.411156E+02  0.565E-03    9.52       0.0  T
   2    -41.1155526 -0.558911E-08  0.426E-03    9.52       5.4  T
   3    -41.1155526 -0.504095E-08  0.527E-04    9.52      43.5  T
   4    -41.1155527 -0.729209E-09  0.207E-04    9.52     110.8  T
speedup  0.77
cpu  time for SCC    0.00 s
wall time for SCC    0.00 s
speedup  0.98
cpu  time for grad    0.01 s
wall time for grad    0.01 s
 E :    -40.92218952  G :  0.000152    pred/act E change: -0.255D-06 -0.112D-06
Maxdispl :   0.0022   ||displ|| :   0.0028   Lambda : -0.833D-07
Largest |displ|/coords:  0.0022 (   2)  0.0010 (   1)  0.0007 (  12)
................................................................................
.............................. CYCLE   73 ......................................
................................................................................
   1    -41.1155797 -0.411156E+02  0.182E-03    9.52       0.0  T
   2    -41.1155797 -0.680338E-09  0.137E-03    9.52      16.7  T
   3    -41.1155797 -0.610399E-09  0.209E-04    9.52     109.7  T
   4    -41.1155797 -0.794671E-10  0.937E-05    9.52     244.7  T
speedup  0.74
cpu  time for SCC    0.00 s
wall time for SCC    0.00 s
speedup  0.98
cpu  time for grad    0.01 s
wall time for grad    0.01 s
 E :    -40.92218957  G :  0.000082    pred/act E change: -0.878D-07 -0.534D-07
Maxdispl :   0.0021   ||displ|| :   0.0035   Lambda : -0.398D-07
Largest |displ|/coords:  0.0021 (   2)  0.0015 (  10)  0.0013 (   5)

   *** GEOMETRY OPTIMIZATION CONVERGED AFTER 73 ITERATIONS ***

------------------------------------------------------------------------
 total energy gain (kcal):     -0.4277
------------------------------------------------------------------------
================
 final structure:
================
$coord
        0.54631089648524       -2.10037915473803       -0.27037310087070      S 
        2.22563314241030       -0.39019265790659       -1.63470566081555      O 
        0.36913470276691       -1.39761333485436        2.39050763893488      O 
       -1.95051171363848       -2.21525760534357       -1.45123557877385      O 
        1.66672663673774       -4.81531513474723       -0.43322635945733      O 
        3.31722344335923       -4.60828737497359        0.38022844497683      H 
        5.39896069109981       -2.47505283015290        1.87252107016910      O 
        5.29757420787391       -1.28497793103244        0.49099558509217      H 
        4.12011400256385       -1.92633538648204        3.05497826465525      H 
       -2.96334802597918        2.07346127096053        3.31480345552863      O 
       -4.16074246462123        1.34328398054956        4.46449425235882      H 
       -1.57878586239746        0.81353518784681        3.13615003125842      H 
        0.05182689099118        3.70516590812403       -3.21779251206271      O 
        1.07140356152769        2.24853293665828       -2.60553615053132      H 
        0.21907031302610        3.71111099435670       -5.02349693287441      H 
       -3.98216882603327        1.98307311566394       -1.34406572266313      O 
       -3.34281034785081        0.08755669852722       -1.52151246619810      H 
       -3.79053046230792        2.27903297973012        0.58011050176545      H 
       -2.51508076711579        2.96865831892207       -2.18284477940487      H 
$end
 
 Bond Distances (Angstroems)
 ---------------------------
S1-O2=1.4594         S1-O3=1.4594         S1-O4=1.4628         S1-O5=1.5566         O2-S1=1.4594         O3-S1=1.4594         
O4-S1=1.4628         O5-S1=1.5566         O5-H6=0.9799         H6-O5=0.9799         O7-H8=0.9664         O7-H9=0.9663         
H8-O7=0.9664         H9-O7=0.9663         O10-H11=0.9597       O10-H12=0.9951       H11-O10=0.9597       H12-O10=0.9951       
O13-H14=0.9951       O13-H15=0.9596       H14-O13=0.9951       H15-O13=0.9596       O16-H17=1.0627       O16-H18=1.0352       
O16-H19=1.0353       H17-O16=1.0627       H18-O16=1.0352       H19-O16=1.0353       
 O  H  Rav=0.9955 sigma=0.0349  Rmin=0.9596  Rmax=1.0627    10
 S  O  Rav=1.4846 sigma=0.0416  Rmin=1.4594  Rmax=1.5566     4
 
 selected bond angles (degree)
 --------------------
O3-S1-O2=111.00                O4-S1-O2=111.37                O4-S1-O3=111.39                O5-S1-O2=108.24                
O5-S1-O3=108.25                O5-S1-O4=106.38                H6-O5-S1=102.24                H9-O7-H8=104.78                
H12-O10-H11=106.06             
 
 selected dihedral angles (degree)
 ---------------------------------
H6-O5-S1-O2= 60.21            H6-O5-S1-O3=299.81            H6-O5-S1-O4=180.00            
 
 CMA Distance (Angstroems)
 ---------------------------
R(CMA):  1.9338

========================================================================
 FINAL SINGLEPOINT CALCULATION ON OPTIMIZED GEOMETRY
========================================================================

 Ncao       : 52
 Nao        : 51
 Nshell     : 29
 Nel        : 64
 T(el)      :   300.0
 intcut     :    25.0
 scfconv/Eh :  0.100E-05
   qconv/e  :  0.100E-03
 intneglect :  0.100E-07
 broydamp   :      0.250
 iter      E             dE          RMSdq      gap      omega  full diag
   1    -41.1155797 -0.411156E+02  0.358E-05    9.52       0.0  T
   2    -41.1155797 -0.454747E-12  0.226E-05    9.52    1015.5  T
   3    -41.1155797 -0.127898E-12  0.370E-06    9.52    6193.2  T
speedup  1.05
cpu  time for SCC    0.00 s
wall time for SCC    0.00 s

   *** convergence criteria satisfied after 3 iterations ***

          eigenvalues
 #    :          20         21         22         23         24         25         26         27
 occ. :        2.000      2.000      2.000      2.000      2.000      2.000      2.000      2.000
 eps  :       -14.543    -14.338    -13.921    -13.530    -12.953    -12.880    -12.850    -12.569
 #    :          28         29         30         31         32         33         34         35
 occ. :        2.000      2.000      2.000      2.000      2.000      0.000      0.000      0.000
 eps  :       -12.560    -12.399    -12.229    -12.190    -12.049     -2.526     -0.390     -0.234
 #    :          36         37         38         39         40         41         42         43
 occ. :        0.000      0.000      0.000      0.000      0.000      0.000      0.000      0.000
 eps  :         0.392      0.982      1.797      2.193      3.835      5.148      6.123      6.326


   #   Z            q   n(s)   n(p)   n(d)      C6AA      α(0)
   1  16 S      1.702  1.586  1.768  0.944    88.721    15.853
   2   8 O     -0.764  1.775  4.989  0.000    30.513     7.406
   3   8 O     -0.764  1.775  4.989  0.000    30.509     7.406
   4   8 O     -0.719  1.761  4.958  0.000    29.179     7.244
   5   8 O     -0.597  1.756  4.842  0.000    25.095     6.763
   6   1 H      0.374  0.626  0.000  0.000     0.527     1.136
   7   8 O     -0.595  1.738  4.857  0.000    25.056     6.756
   8   1 H      0.309  0.691  0.000  0.000     0.696     1.310
   9   1 H      0.308  0.692  0.000  0.000     0.696     1.310
  10   8 O     -0.600  1.744  4.856  0.000    25.175     6.772
  11   1 H      0.302  0.698  0.000  0.000     0.714     1.327
  12   1 H      0.342  0.658  0.000  0.000     0.608     1.225
  13   8 O     -0.600  1.744  4.856  0.000    25.174     6.772
  14   1 H      0.342  0.658  0.000  0.000     0.607     1.224
  15   1 H      0.302  0.698  0.000  0.000     0.714     1.327
  16   8 O     -0.502  1.727  4.776  0.000    22.878     6.460
  17   1 H      0.390  0.610  0.000  0.000     0.499     1.107
  18   1 H      0.384  0.616  0.000  0.000     0.514     1.126
  19   1 H      0.384  0.616  0.000  0.000     0.514     1.126

 Mol. C6AA /au·bohr⁶  :       3386.797761
 Mol. C8AA /au·bohr⁸  :      76663.605984
 Mol. α(0) /au        :         83.652351

 
 Wiberg/Mayer (AO) data. WBOs > 0.1 written file <wbo>
 largest (>0.05) Wiberg bond orders for each atom
           total WBO             WBO to atom ...
     1  S   4.821    O    4 1.274    O    3 1.272    O    2 1.272    O    5 0.953
     2  O   1.703    S    1 1.272    O    3 0.109    O    4 0.106    H   14 0.081    O    5 0.078
     3  O   1.703    S    1 1.272    O    2 0.109    O    4 0.106    H   12 0.081    O    5 0.078
     4  O   1.781    S    1 1.274    H   17 0.176    O    3 0.106    O    2 0.106    O    5 0.059    O   16 0.052
     5  O   1.983    S    1 0.953    H    6 0.775    O    3 0.078    O    2 0.078    O    4 0.059
     6  H   0.860    O    5 0.775    O    7 0.066
     7  O   1.890    H    9 0.887    H    8 0.886    H    6 0.066
     8  H   0.905    O    7 0.886
     9  H   0.905    O    7 0.887
    10  O   1.946    H   11 0.904    H   12 0.797    H   18 0.148    O   16 0.054
    11  H   0.909    O   10 0.904
    12  H   0.883    O   10 0.797    O    3 0.081
    13  O   1.946    H   15 0.904    H   14 0.797    H   19 0.148    O   16 0.054
    14  H   0.883    O   13 0.797    O    2 0.081
    15  H   0.909    O   13 0.904
    16  O   2.247    H   18 0.701    H   19 0.701    H   17 0.661    O   13 0.054    O   10 0.054    O    4 0.052
    17  H   0.848    O   16 0.661    O    4 0.176
    18  H   0.852    O   16 0.701    O   10 0.148
    19  H   0.852    O   16 0.701    O   13 0.148
 MOs/occ written to file <molden.input>
 
molecular dipole:
                 x           y           z       tot (Debye)
 q only:       -1.055       1.183      -0.192
   full:       -0.724       0.713      -0.156       2.613
molecular quadrupole (traceless):
                xx          xy          yy          xz          yz          zz
 q only:        0.851      -2.043      -6.251      -3.974      -4.591       5.401
  q+dip:       -1.793       1.014      -7.710      -7.006      -4.940       9.503
   full:       -1.681       0.458      -7.694      -7.078      -5.184       9.375

SCC energy    :     -41.1155797
rep           :       0.1932942
ES            :       0.2003982
AES           :      -0.0570934
AXC           :      -0.0112739
disp          :      -0.0135680
XB            :       0.0000000
fix           :       0.0000000
total E       :     -40.9221896
atomizationE  :       3.7163768     2332.06
(atE without considering molecular charge,
 total energy contains solvation terms)
H-L gap (eV)  :          9.5220
optimized geometry written to: xtbopt.xyz


------------------------------------------------------------------------
 * finished run on 2019/09/03 at 09:06:27.547     
------------------------------------------------------------------------
 total:
 * wall-time:     0 d,  0 h,  0 min,  1.589 sec
 *  cpu-time:     0 d,  0 h,  0 min,  1.239 sec
 * ratio c/w:     0.779 speedup
 SCF:
 * wall-time:     0 d,  0 h,  0 min,  0.094 sec
 *  cpu-time:     0 d,  0 h,  0 min,  0.092 sec
 * ratio c/w:     0.975 speedup
 ANC optimizer:
 * wall-time:     0 d,  0 h,  0 min,  1.472 sec
 *  cpu-time:     0 d,  0 h,  0 min,  1.129 sec
 * ratio c/w:     0.767 speedup

