      -----------------------------------------------------------      
     |                   =====================                   |     
     |                           x T B                           |     
     |                   =====================                   |     
     |                         S. Grimme                         |     
     |          Mulliken Center for Theoretical Chemistry        |     
     |                    University of Bonn                     |     
     |                 Version 6.0.1 (SAW181210)                 |     
      -----------------------------------------------------------      

   This program is distributed in the hope that it will be useful,
   but WITHOUT ANY WARRANTY; without even the implied warranty of
   MERCHANTABILITY or FITNESS FOR A PARTICULAR PURPOSE.
   
   FOR NON-COMMERCIAL, ACADEMIA USE ONLY.
   
   Cite this work as:
   S. Grimme, C. Bannwarth, P. Shushkov, J. Comput. Theory Chem., 2017,
   13, 1989-2009.
   C. Bannwarth, S. Ehlert and S. Grimme., ChemRxiv, 2018, preprint.
   http://doi.org/10.26434/chemrxiv.7246238.v1
   
   for sTDA-xTB:
   S. Grimme and C. Bannwarth, J. Chem. Phys., 2016, 145, 054103.
   
   in the mass-spec context:
   V. Asgeirsson, C. Bauer and S. Grimme, Chem. Sci., 2017, 8, 4879.
   
   if GBSA is used:
   P. Shushkov, F. März and S. Grimme, unpublished.
   
   for ANC optimizer:
   S. Grimme, unpublished.
   Rational Function algorithm used in ANCopt:
   F. Eckert, P. Pulay, H.-J. Werner, J. Comput. Chem., 1997, 18, 1473.
   
   with help from (in alphabetical order)
   C. Bannwarth, F. Bohle, G. Brandenburg, E. Caldeweyher, M. Checinski,
   S. Dohm, S. Ehlert, S. Ehrlich, F. März, H. Neugebauer, J. Pisarek,
   P. Pracht, P. Shushkov, and S. Spicher.
   
 * started run on 2019/09/03 at 09:46:09.351     
========================================================================
 # omp threads = 1
========================================================================
number of atoms            : 19
number of electrons        : 64
charge                     : 0
spin                       : .0
first test random number   : .8925

########################################################################
# WARNING! Please study the warnings concerning your input carefully
#  - XTBPATH is not set, using XTBHOME instead
#  - the use of '-opt' is discouraged, please use '--opt' next time
#  - the use of '-chrg' is discouraged, please use '--chrg' next time
#  - the use of '-uhf' is discouraged, please use '--uhf' next time
########################################################################

           ------------------------------------------------- 
          |                 G F N 2 - x T B                 |
          | Geometry, Frequencies, Noncovalent interactions |
          |            JCTC 2018 parametrisation            |
           ------------------------------------------------- 
      method parameters     
 k(s)        :  1.8500
 k(p)        :  2.2300
 k(d)        :  2.2300
 k(f)        :  2.0000
 kEN (H0ij)  : -2.0000
 D4 a1       :  0.5200
 D4 a2       :  5.0000
 D4 s6       :  1.0000
 D4 s8       :  2.7000
 D4 s9       :  5.0000
 alphaj      :  2.0000


            Z     q(EN)     CN     RAES       Cart. coordinates
     1  S   6.0    0.64    4.32    4.28     3.63734     0.92719     3.26752
     2  O   6.0   -0.29    1.15    1.80     5.26831     1.46044     1.03510
     3  O   6.0   -0.30    1.19    1.80     1.01293     1.80204     2.74292
     4  O   6.0   -0.28    1.17    1.80     3.61941    -1.84202     3.77672
     5  O   6.0   -0.24    2.08    1.84     4.63487     2.26965     5.48455
     6  H   1.0    0.15    1.21    1.47     4.64677     4.05399     5.15730
     7  O   6.0   -0.30    2.04    1.83    -6.12514    -0.25131    -0.91287
     8  H   1.0    0.15    0.97    1.43    -7.51125    -1.43095    -0.87087
     9  H   1.0    0.15    0.97    1.43    -6.53685     1.01954     0.32409
    10  O   6.0   -0.30    2.06    1.83    -1.03018    -0.67133    -1.18665
    11  H   1.0    0.16    1.03    1.43    -2.84711    -0.77069    -1.12741
    12  H   1.0    0.18    1.05    1.44    -0.56331     0.43100     0.18504
    13  O   6.0   -0.25    1.93    1.82    -3.98825     1.15495    -5.43349
    14  H   1.0    0.15    0.98    1.43    -2.29987     1.03106    -4.76368
    15  H   1.0    0.16    1.02    1.43    -5.08928     0.74604    -4.04240
    16  O   6.0   -0.21    2.92    2.60     3.40164    -2.78430    -1.15692
    17  H   1.0    0.14    0.99    1.43     4.60062    -1.38305    -1.45487
    18  H   1.0    0.15    1.02    1.43     3.51868    -3.44766     0.58557
    19  H   1.0    0.14    1.04    1.43     1.65067    -2.31457    -1.60965

  Z AO/shell   Hii/eV     exponent
  1     Wed Apr 25 08:07:45 CEST 2018   EN: 2.200 GM2: 0.406  GM3: 0.0800  RAES: 1.40
     1s    -10.707211    1.230000
  8     Wed Apr 25 08:07:45 CEST 2018   EN: 3.440 GM2: 0.452  GM3:-0.0517  RAES: 1.80
     2s    -20.229985    2.439742
     2p    -15.503117    2.137023
 16     Tue Apr 24 11:44:34 CEST 2018   EN: 2.580 GM2: 0.340  GM3:-0.0502  RAES: 3.10
     3s    -20.029654    1.981333
     3p    -11.377694    2.025643
     3d     -0.420282    1.702555
 no old-style atom pair restraining (fixing) potential

molecular fragmentation (1/2 indicates fragments):
1111112222222222222
# atoms in fragment 1/2:     6    13
 fragment masses (1/2) :       97.07       73.07
CMA distance (Bohr)    :   7.880
constraining FC (au)   :  0.0500
           ------------------------------------------------- 
          |        Self-Consistent Charge Iterations        |
           ------------------------------------------------- 

 Ncao       : 52
 Nao        : 51
 Nshell     : 29
 Nel        : 64
 T(el)      :   300.0
 intcut     :    25.0
 scfconv/Eh :  0.100E-05
   qconv/e  :  0.100E-03
 intneglect :  0.100E-07
 broydamp   :      0.250
 iter      E             dE          RMSdq      gap      omega  full diag
   1    -40.9837690 -0.409838E+02  0.770E+00   10.66       0.0  T
   2    -41.0256088 -0.418398E-01  0.556E+00   10.11       1.0  T
   3    -41.0579621 -0.323533E-01  0.148E+00    8.53       1.0  T
   4    -41.0621646 -0.420251E-02  0.612E-01    8.49       1.0  T
   5    -41.0627853 -0.620703E-03  0.327E-01    8.41       1.0  T
   6    -41.0631168 -0.331456E-03  0.145E-01    8.43       1.0  T
   7    -41.0631997 -0.829855E-04  0.506E-02    8.49       1.0  T
   8    -41.0632087 -0.895224E-05  0.307E-02    8.48       1.0  T
   9    -41.0632131 -0.443714E-05  0.709E-03    8.48       3.2  T
  10    -41.0632133 -0.164657E-06  0.216E-03    8.48      10.6  T
  11    -41.0632133 -0.116776E-07  0.914E-04    8.48      25.1  T
  12    -41.0632133 -0.260516E-08  0.447E-04    8.48      51.3  T
speedup  1.01
cpu  time for SCC    0.01 s
wall time for SCC    0.01 s

   *** convergence criteria satisfied after 12 iterations ***

          eigenvalues
 #    :          20         21         22         23         24         25         26         27
 occ. :        2.000      2.000      2.000      2.000      2.000      2.000      2.000      2.000
 eps  :       -14.032    -13.513    -12.875    -12.831    -12.614    -12.075    -11.717    -11.413
 #    :          28         29         30         31         32         33         34         35
 occ. :        2.000      2.000      2.000      2.000      2.000      0.000      0.000      0.000
 eps  :       -11.353    -11.221    -10.882    -10.800    -10.577     -2.100     -0.920      0.041
 #    :          36         37         38         39         40         41         42         43
 occ. :        0.000      0.000      0.000      0.000      0.000      0.000      0.000      0.000
 eps  :         0.156      1.322      1.727      3.498      4.015      4.776      5.007      5.414


   #   Z            q   n(s)   n(p)   n(d)      C6AA      α(0)
   1  16 S      1.542  1.589  1.874  0.994    92.435    16.182
   2   8 O     -0.769  1.777  4.992  0.000    30.658     7.424
   3   8 O     -0.758  1.779  4.979  0.000    30.333     7.384
   4   8 O     -0.738  1.770  4.968  0.000    29.774     7.316
   5   8 O     -0.532  1.714  4.818  0.000    23.584     6.556
   6   1 H      0.359  0.641  0.000  0.000     0.559     1.170
   7   8 O     -0.565  1.734  4.832  0.000    24.374     6.663
   8   1 H      0.302  0.698  0.000  0.000     0.715     1.328
   9   1 H      0.309  0.691  0.000  0.000     0.693     1.308
  10   8 O     -0.658  1.735  4.923  0.000    26.620     6.964
  11   1 H      0.329  0.671  0.000  0.000     0.639     1.256
  12   1 H      0.329  0.671  0.000  0.000     0.641     1.257
  13   8 O     -0.610  1.751  4.860  0.000    25.436     6.807
  14   1 H      0.288  0.712  0.000  0.000     0.758     1.367
  15   1 H      0.296  0.704  0.000  0.000     0.733     1.344
  16   8 O     -0.387  1.625  4.762  0.000    20.538     6.121
  17   1 H      0.417  0.583  0.000  0.000     0.455     1.060
  18   1 H      0.419  0.581  0.000  0.000     0.451     1.056
  19   1 H      0.427  0.573  0.000  0.000     0.439     1.040

 Mol. C6AA /au·bohr⁶  :       3377.193865
 Mol. C8AA /au·bohr⁸  :      76739.583035
 Mol. α(0) /au        :         83.602565

 
 Wiberg/Mayer (AO) data. WBOs > 0.1 written file <wbo>
 largest (>0.05) Wiberg bond orders for each atom
           total WBO             WBO to atom ...
     1  S   4.963    O    4 1.330    O    2 1.304    O    3 1.298    O    5 1.005
     2  O   1.656    S    1 1.304    O    3 0.116    O    4 0.116    O    5 0.074
     3  O   1.676    S    1 1.298    O    2 0.116    O    4 0.114    O    5 0.074    H   12 0.052
     4  O   1.697    S    1 1.330    O    2 0.116    O    3 0.114    O    5 0.054
     5  O   2.058    S    1 1.005    H    6 0.847    O    2 0.074    O    3 0.074    O    4 0.054
     6  H   0.871    O    5 0.847
     7  O   1.899    H    8 0.901    H    9 0.899
     8  H   0.909    O    7 0.901
     9  H   0.904    O    7 0.899
    10  O   1.853    H   11 0.838    H   12 0.836    H   19 0.083
    11  H   0.892    O   10 0.838
    12  H   0.892    O   10 0.836    O    3 0.052
    13  O   1.815    H   14 0.905    H   15 0.879
    14  H   0.917    O   13 0.905
    15  H   0.912    O   13 0.879
    16  O   2.358    H   17 0.790    H   18 0.769    H   19 0.729
    17  H   0.826    O   16 0.790
    18  H   0.824    O   16 0.769
    19  H   0.818    O   16 0.729    O   10 0.083
 MOs/occ written to file <molden.input>
 
molecular dipole:
                 x           y           z       tot (Debye)
 q only:       -0.906      -1.214      -0.719
   full:       -1.041      -0.638       0.342       3.222
molecular quadrupole (traceless):
                xx          xy          yy          xz          yz          zz
 q only:       10.902      -0.312       6.730     -15.176      11.669     -17.632
  q+dip:       15.220       3.839       5.349     -14.710      14.263     -20.569
   full:       15.338       4.180       5.232     -14.568      14.638     -20.571

SCC energy    :     -41.0632133
rep           :       0.2164048
ES            :       0.2560994
AES           :      -0.0483541
AXC           :      -0.0108913
disp          :      -0.0110637
XB            :       0.0000000
fix           :       0.0000000
total E       :     -40.8467601
atomizationE  :       3.6409473     2284.73
(atE without considering molecular charge,
 total energy contains solvation terms)
H-L gap (eV)  :          8.4767
           ------------------------------------------------- 
          |                 ===============                 |
          |                   A N C O P T                   |
          |                 ===============                 |
          |          Approximate Normal Coordinate          |
          |           Rational Function Optimizer           |
           ------------------------------------------------- 
dumping coords to <xtbopt.coord> and <xtbopt.log>
 optlevel               2
 Maxcycle             380
 Maxmicro              25
 Econv         1.000000000000000E-007
 Gconv         2.000000000000000E-004
 Maxdispl       1.00000000000000     
 Hlow          5.000000000000000E-003
 S6             20.0000000000000     
 Nvar               51

generating ANC from model Hessian ...
 Shifting diagonal of input Hessian by   5.245368728650401E-003
 Lowest  eigenvalues of input Hessian
    0.005000    0.005050   -0.000000    0.000000    0.000000    0.000000
    0.000000    0.000000    0.005476    0.005529    0.005562    0.006132
    0.007304    0.007650    0.008741    0.009250    0.010048    0.010612
 Highest eigenvalues
    1.451023    1.542919    1.552553    3.132409    3.204861    3.308524
 
cpu  time for ANC gen    0.00 s
wall time for ANC gen    0.00 s
................................................................................
.............................. CYCLE    1 ......................................
................................................................................
   1    -41.0632133 -0.410632E+02  0.111E-04    8.48       0.0  T
   2    -41.0632133 -0.169891E-10  0.816E-05    8.48     281.2  T
   3    -41.0632133 -0.108145E-10  0.297E-05    8.48     771.7  T
speedup  1.00
cpu  time for SCC    0.00 s
wall time for SCC    0.00 s
speedup  0.99
cpu  time for grad    0.01 s
wall time for grad    0.01 s
 E :    -40.84676008  G :  0.155480    pred/act E change:  0.000D+00  0.119D-07
Maxdispl :   0.2302   ||displ|| :   0.4920   Lambda : -0.248D-01
Largest |displ|/coords:  0.2302 (  20)  0.2212 (  16)  0.1921 (  15)
................................................................................
.............................. CYCLE    2 ......................................
................................................................................
   1    -41.0783601 -0.410784E+02  0.361E-01    8.90       0.0  T
   2    -41.0784911 -0.130965E-03  0.269E-01    8.96       1.0  T
   3    -41.0785494 -0.583371E-04  0.101E-01    9.05       1.0  T
   4    -41.0785587 -0.925436E-05  0.193E-02    9.05       1.2  T
   5    -41.0785597 -0.103745E-05  0.760E-03    9.04       3.0  T
   6    -41.0785598 -0.102552E-06  0.458E-03    9.04       5.0  T
   7    -41.0785599 -0.746209E-07  0.237E-03    9.04       9.7  T
speedup  1.14
cpu  time for SCC    0.01 s
wall time for SCC    0.00 s
speedup  0.99
cpu  time for grad    0.01 s
wall time for grad    0.01 s
 E :    -40.86839460  G :  0.102869    pred/act E change:  0.000D+00 -0.216D-01
Maxdispl :   0.2761   ||displ|| :   0.5157   Lambda : -0.175D-01
Largest |displ|/coords:  0.2761 (  16)  0.2030 (  15)  0.1924 (  20)
................................................................................
.............................. CYCLE    3 ......................................
................................................................................
   1    -41.0851899 -0.410852E+02  0.413E-01    9.07       0.0  T
   2    -41.0855256 -0.335739E-03  0.299E-01    9.04       1.0  T
   3    -41.0856783 -0.152676E-03  0.122E-01    8.97       1.0  T
   4    -41.0856925 -0.141784E-04  0.217E-02    8.94       1.1  T
   5    -41.0856934 -0.941059E-06  0.104E-02    8.94       2.2  T
   6    -41.0856936 -0.212150E-06  0.580E-03    8.94       4.0  T
   7    -41.0856938 -0.122433E-06  0.294E-03    8.95       7.8  T
speedup  0.87
cpu  time for SCC    0.00 s
wall time for SCC    0.00 s
speedup  0.93
cpu  time for grad    0.01 s
wall time for grad    0.01 s
 E :    -40.88170880  G :  0.060197    pred/act E change: -0.154D-01 -0.133D-01
Maxdispl :   0.2151   ||displ|| :   0.3587   Lambda : -0.583D-02
Largest |displ|/coords:  0.2151 (  16)  0.1164 (  15)  0.1096 (   9)
................................................................................
.............................. CYCLE    4 ......................................
................................................................................
   1    -41.0844827 -0.410845E+02  0.350E-01    8.75       0.0  T
   2    -41.0847574 -0.274701E-03  0.251E-01    8.73       1.0  T
   3    -41.0848755 -0.118118E-03  0.104E-01    8.67       1.0  T
   4    -41.0848854 -0.988146E-05  0.183E-02    8.64       1.3  T
   5    -41.0848860 -0.603413E-06  0.815E-03    8.65       2.8  T
   6    -41.0848861 -0.110838E-06  0.433E-03    8.65       5.3  T
   7    -41.0848862 -0.616315E-07  0.224E-03    8.65      10.2  T
speedup  0.91
cpu  time for SCC    0.00 s
wall time for SCC    0.00 s
speedup  0.98
cpu  time for grad    0.01 s
wall time for grad    0.01 s
 E :    -40.88509928  G :  0.037138    pred/act E change: -0.110D-01 -0.339D-02
Maxdispl :   0.1997   ||displ|| :   0.3156   Lambda : -0.255D-02
Largest |displ|/coords:  0.1997 (   9)  0.0814 (   1)  0.0796 (   2)
................................................................................
.............................. CYCLE    5 ......................................
................................................................................
   1    -41.0845158 -0.410845E+02  0.207E-01    8.59       0.0  T
   2    -41.0845753 -0.594946E-04  0.152E-01    8.61       1.0  T
   3    -41.0845953 -0.200035E-04  0.624E-02    8.64       1.0  T
   4    -41.0845983 -0.302001E-05  0.147E-02    8.64       1.6  T
   5    -41.0845987 -0.425187E-06  0.429E-03    8.64       5.3  T
   6    -41.0845987 -0.174615E-07  0.177E-03    8.64      12.9  T
speedup  1.05
cpu  time for SCC    0.00 s
wall time for SCC    0.00 s
speedup  1.06
cpu  time for grad    0.01 s
wall time for grad    0.01 s
 E :    -40.88629179  G :  0.024625    pred/act E change: -0.329D-02 -0.119D-02
Maxdispl :   0.1859   ||displ|| :   0.3313   Lambda : -0.171D-02
Largest |displ|/coords:  0.1859 (   9)  0.0966 (  12)  0.0944 (  11)
................................................................................
.............................. CYCLE    6 ......................................
................................................................................
   1    -41.0870740 -0.410871E+02  0.220E-01    8.55       0.0  T
   2    -41.0871082 -0.342624E-04  0.163E-01    8.56       1.0  T
   3    -41.0871197 -0.114949E-04  0.560E-02    8.59       1.0  T
   4    -41.0871232 -0.344188E-05  0.102E-02    8.59       2.2  T
   5    -41.0871233 -0.174841E-06  0.376E-03    8.59       6.1  T
   6    -41.0871234 -0.108510E-07  0.155E-03    8.59      14.8  T
speedup  1.08
cpu  time for SCC    0.00 s
wall time for SCC    0.00 s
speedup  1.07
cpu  time for grad    0.01 s
wall time for grad    0.01 s
 E :    -40.88701270  G :  0.016089    pred/act E change: -0.140D-02 -0.721D-03
Maxdispl :   0.0772   ||displ|| :   0.1998   Lambda : -0.744D-03
Largest |displ|/coords:  0.0772 (   3)  0.0757 (  14)  0.0738 (  13)
................................................................................
.............................. CYCLE    7 ......................................
................................................................................
   1    -41.0895925 -0.410896E+02  0.129E-01    8.64       0.0  T
   2    -41.0895983 -0.582784E-05  0.920E-02    8.64       1.0  T
   3    -41.0896010 -0.267805E-05  0.226E-02    8.65       1.0  T
   4    -41.0896015 -0.543527E-06  0.687E-03    8.65       3.3  T
   5    -41.0896016 -0.419887E-07  0.144E-03    8.65      15.9  T
   6    -41.0896016 -0.227482E-08  0.889E-04    8.65      25.8  T
speedup  0.81
cpu  time for SCC    0.00 s
wall time for SCC    0.00 s
speedup  0.94
cpu  time for grad    0.01 s
wall time for grad    0.01 s
 E :    -40.88727568  G :  0.011123    pred/act E change: -0.949D-03 -0.263D-03
Maxdispl :   0.1169   ||displ|| :   0.2375   Lambda : -0.681D-03
Largest |displ|/coords:  0.1169 (   3)  0.0815 (  14)  0.0767 (   2)
................................................................................
.............................. CYCLE    8 ......................................
................................................................................
   1    -41.0900184 -0.410900E+02  0.179E-01    8.70       0.0  T
   2    -41.0900263 -0.792210E-05  0.134E-01    8.70       1.0  T
   3    -41.0900312 -0.487262E-05  0.232E-02    8.70       1.0  T
   4    -41.0900323 -0.118059E-05  0.928E-03    8.70       2.5  T
   5    -41.0900324 -0.556623E-07  0.166E-03    8.70      13.8  T
   6    -41.0900324 -0.257844E-08  0.105E-03    8.70      22.0  T
speedup  1.08
cpu  time for SCC    0.00 s
wall time for SCC    0.00 s
speedup  0.94
cpu  time for grad    0.01 s
wall time for grad    0.01 s
 E :    -40.88751071  G :  0.010417    pred/act E change: -0.387D-03 -0.235D-03
Maxdispl :   0.0783   ||displ|| :   0.1669   Lambda : -0.365D-03
Largest |displ|/coords:  0.0783 (   3)  0.0745 (   2)  0.0627 (   6)
................................................................................
.............................. CYCLE    9 ......................................
................................................................................
   1    -41.0893449 -0.410893E+02  0.101E-01    8.64       0.0  T
   2    -41.0893464 -0.152887E-05  0.756E-02    8.64       1.0  T
   3    -41.0893476 -0.124964E-05  0.963E-03    8.63       2.4  T
   4    -41.0893478 -0.175891E-06  0.350E-03    8.64       6.6  T
   5    -41.0893478 -0.117566E-07  0.880E-04    8.64      26.1  T
   6    -41.0893478 -0.720945E-09  0.548E-04    8.64      41.8  T
speedup  1.08
cpu  time for SCC    0.00 s
wall time for SCC    0.00 s
speedup  1.06
cpu  time for grad    0.01 s
wall time for grad    0.01 s
 E :    -40.88775855  G :  0.007756    pred/act E change: -0.360D-03 -0.248D-03
Maxdispl :   0.1632   ||displ|| :   0.3064   Lambda : -0.343D-03
Largest |displ|/coords:  0.1632 (   2)  0.1579 (   3)  0.1107 (   9)
................................................................................
.............................. CYCLE   10 ......................................
................................................................................
   1    -41.0881338 -0.410881E+02  0.213E-01    8.57       0.0  T
   2    -41.0881395 -0.570490E-05  0.161E-01    8.58       1.0  T
   3    -41.0881452 -0.575129E-05  0.159E-02    8.60       1.4  T
   4    -41.0881458 -0.542017E-06  0.573E-03    8.59       4.0  T
   5    -41.0881458 -0.311783E-07  0.170E-03    8.59      13.5  T
   6    -41.0881458 -0.161113E-08  0.981E-04    8.59      23.4  T
speedup  1.08
cpu  time for SCC    0.00 s
wall time for SCC    0.00 s
speedup  1.06
cpu  time for grad    0.01 s
wall time for grad    0.01 s
 E :    -40.88789791  G :  0.012152    pred/act E change: -0.188D-03 -0.139D-03
Maxdispl :   0.1878   ||displ|| :   0.3173   Lambda : -0.392D-03
Largest |displ|/coords:  0.1878 (   2)  0.1318 (   3)  0.1095 (   6)
................................................................................
.............................. CYCLE   11 ......................................
................................................................................
   1    -41.0878272 -0.410878E+02  0.204E-01    8.57       0.0  T
   2    -41.0878352 -0.796184E-05  0.154E-01    8.56       1.0  T
   3    -41.0878412 -0.603273E-05  0.198E-02    8.54       1.2  T
   4    -41.0878423 -0.111884E-05  0.610E-03    8.55       3.8  T
   5    -41.0878424 -0.510556E-07  0.202E-03    8.55      11.4  T
   6    -41.0878424 -0.188640E-08  0.113E-03    8.55      20.3  T
speedup  1.08
cpu  time for SCC    0.00 s
wall time for SCC    0.00 s
speedup  0.94
cpu  time for grad    0.01 s
wall time for grad    0.01 s
 E :    -40.88807687  G :  0.010398    pred/act E change: -0.187D-03 -0.179D-03
Maxdispl :   0.1206   ||displ|| :   0.1914   Lambda : -0.278D-03
Largest |displ|/coords:  0.1206 (   2)  0.0682 (   1)  0.0530 (   8)
................................................................................
.............................. CYCLE   12 ......................................
................................................................................
   1    -41.0895226 -0.410895E+02  0.102E-01    8.65       0.0  T
   2    -41.0895251 -0.246094E-05  0.767E-02    8.65       1.0  T
   3    -41.0895266 -0.153006E-05  0.130E-02    8.66       1.8  T
   4    -41.0895269 -0.345232E-06  0.502E-03    8.66       4.6  T
   5    -41.0895270 -0.161256E-07  0.882E-04    8.66      26.0  T
   6    -41.0895270 -0.958330E-09  0.502E-04    8.66      45.7  T
speedup  1.08
cpu  time for SCC    0.00 s
wall time for SCC    0.00 s
speedup  1.06
cpu  time for grad    0.01 s
wall time for grad    0.01 s
 E :    -40.88824615  G :  0.007243    pred/act E change: -0.216D-03 -0.169D-03
Maxdispl :   0.2664   ||displ|| :   0.3546   Lambda : -0.372D-03
Largest |displ|/coords:  0.2664 (   2)  0.1162 (   1)  0.1020 (   3)
................................................................................
.............................. CYCLE   13 ......................................
................................................................................
   1    -41.0923493 -0.410923E+02  0.169E-01    8.77       0.0  T
   2    -41.0923559 -0.664611E-05  0.127E-01    8.78       1.0  T
   3    -41.0923606 -0.464166E-05  0.212E-02    8.80       1.1  T
   4    -41.0923615 -0.938571E-06  0.939E-03    8.80       2.4  T
   5    -41.0923616 -0.431422E-07  0.152E-03    8.80      15.1  T
   6    -41.0923616 -0.233428E-08  0.938E-04    8.80      24.5  T
speedup  0.81
cpu  time for SCC    0.00 s
wall time for SCC    0.00 s
speedup  0.93
cpu  time for grad    0.01 s
wall time for grad    0.01 s
 E :    -40.88846044  G :  0.009907    pred/act E change: -0.144D-03 -0.214D-03
Maxdispl :   0.3731   ||displ|| :   0.5506   Lambda : -0.356D-03
Largest |displ|/coords:  0.3731 (   2)  0.2629 (   3)  0.1496 (   1)
................................................................................
.............................. CYCLE   14 ......................................
................................................................................
   1    -41.0855282 -0.410855E+02  0.346E-01    8.66       0.0  T
   2    -41.0855488 -0.205812E-04  0.262E-01    8.68       1.0  T
   3    -41.0855665 -0.177139E-04  0.326E-02    8.71       1.0  T
   4    -41.0855691 -0.253628E-05  0.124E-02    8.70       1.8  T
   5    -41.0855692 -0.137537E-06  0.305E-03    8.69       7.5  T
   6    -41.0855692 -0.510507E-08  0.189E-03    8.69      12.1  T
   7    -41.0855692 -0.370304E-08  0.478E-04    8.69      47.9  T
speedup  0.91
cpu  time for SCC    0.00 s
wall time for SCC    0.00 s
speedup  0.98
cpu  time for grad    0.01 s
wall time for grad    0.01 s
 E :    -40.88848677  G :  0.021076    pred/act E change: -0.210D-03 -0.263D-04
Maxdispl :   0.1514   ||displ|| :   0.2211   Lambda : -0.597D-03
Largest |displ|/coords:  0.1514 (   2)  0.0735 (   3)  0.0636 (   6)
................................................................................
.............................. CYCLE   15 ......................................
................................................................................
   1    -41.0881037 -0.410881E+02  0.198E-01    8.68       0.0  T
   2    -41.0881127 -0.897798E-05  0.150E-01    8.67       1.0  T
   3    -41.0881194 -0.668137E-05  0.187E-02    8.65       1.2  T
   4    -41.0881207 -0.136205E-05  0.573E-03    8.66       4.0  T
   5    -41.0881208 -0.392412E-07  0.207E-03    8.66      11.1  T
speedup  0.97
cpu  time for SCC    0.00 s
wall time for SCC    0.00 s
speedup  1.01
cpu  time for grad    0.01 s
wall time for grad    0.01 s
 E :    -40.88875740  G :  0.016648    pred/act E change: -0.232D-03 -0.271D-03
Maxdispl :   0.0986   ||displ|| :   0.1845   Lambda : -0.587D-03
Largest |displ|/coords:  0.0986 (   8)  0.0739 (   2)  0.0635 (   5)
................................................................................
.............................. CYCLE   16 ......................................
................................................................................
   1    -41.0968450 -0.410968E+02  0.164E-01    8.86       0.0  T
   2    -41.0968557 -0.107276E-04  0.121E-01    8.85       1.0  T
   3    -41.0968615 -0.576230E-05  0.278E-02    8.84       1.0  T
   4    -41.0968626 -0.116569E-05  0.101E-02    8.84       2.3  T
   5    -41.0968627 -0.828874E-07  0.215E-03    8.84      10.7  T
   6    -41.0968627 -0.295690E-08  0.126E-03    8.84      18.2  T
speedup  0.83
cpu  time for SCC    0.00 s
wall time for SCC    0.00 s
speedup  0.94
cpu  time for grad    0.01 s
wall time for grad    0.01 s
 E :    -40.88879885  G :  0.014537    pred/act E change: -0.313D-03 -0.415D-04
Maxdispl :   0.3120   ||displ|| :   0.4088   Lambda : -0.595D-03
Largest |displ|/coords:  0.3120 (   2)  0.1593 (   3)  0.0949 (   1)
................................................................................
.............................. CYCLE   17 ......................................
................................................................................
   1    -41.0912984 -0.410913E+02  0.244E-01    8.73       0.0  T
   2    -41.0913088 -0.103868E-04  0.184E-01    8.74       1.0  T
   3    -41.0913183 -0.949283E-05  0.248E-02    8.76       1.0  T
   4    -41.0913194 -0.113767E-05  0.594E-03    8.76       3.9  T
   5    -41.0913195 -0.354517E-07  0.246E-03    8.76       9.3  T
   6    -41.0913195 -0.504043E-08  0.134E-03    8.76      17.2  T
speedup  1.08
cpu  time for SCC    0.00 s
wall time for SCC    0.00 s
speedup  0.93
cpu  time for grad    0.01 s
wall time for grad    0.01 s
 E :    -40.88921726  G :  0.011741    pred/act E change: -0.304D-03 -0.418D-03
Maxdispl :   0.3865   ||displ|| :   0.5465   Lambda : -0.646D-03
Largest |displ|/coords:  0.3865 (   2)  0.2754 (   3)  0.1411 (   1)
................................................................................
.............................. CYCLE   18 ......................................
................................................................................
   1    -41.0832972 -0.410833E+02  0.375E-01    8.38       0.0  T
   2    -41.0833235 -0.262762E-04  0.281E-01    8.39       1.0  T
   3    -41.0833447 -0.211763E-04  0.406E-02    8.40       1.0  T
   4    -41.0833477 -0.306635E-05  0.118E-02    8.39       1.9  T
   5    -41.0833479 -0.148716E-06  0.316E-03    8.39       7.3  T
   6    -41.0833479 -0.972653E-08  0.187E-03    8.39      12.3  T
   7    -41.0833479 -0.366301E-08  0.565E-04    8.39      40.6  T
speedup  0.93
cpu  time for SCC    0.00 s
wall time for SCC    0.00 s
speedup  0.98
cpu  time for grad    0.01 s
wall time for grad    0.01 s
 E :    -40.88922202  G :  0.026136    pred/act E change: -0.347D-03 -0.475D-05
Maxdispl :   0.0985   ||displ|| :   0.1899   Lambda : -0.880D-03
Largest |displ|/coords:  0.0985 (   2)  0.0821 (   5)  0.0765 (   4)
................................................................................
.............................. CYCLE   19 ......................................
................................................................................
   1    -41.0881228 -0.410881E+02  0.144E-01    8.59       0.0  T
   2    -41.0881332 -0.103897E-04  0.105E-01    8.59       1.0  T
   3    -41.0881383 -0.509888E-05  0.293E-02    8.58       1.0  T
   4    -41.0881394 -0.103062E-05  0.778E-03    8.58       2.9  T
   5    -41.0881394 -0.704090E-07  0.203E-03    8.58      11.3  T
   6    -41.0881394 -0.237952E-08  0.113E-03    8.58      20.3  T
speedup  1.08
cpu  time for SCC    0.00 s
wall time for SCC    0.00 s
speedup  1.06
cpu  time for grad    0.01 s
wall time for grad    0.01 s
 E :    -40.88973004  G :  0.016121    pred/act E change: -0.420D-03 -0.508D-03
Maxdispl :   0.1081   ||displ|| :   0.2016   Lambda : -0.586D-03
Largest |displ|/coords:  0.1081 (   2)  0.0864 (   5)  0.0649 (  20)
................................................................................
.............................. CYCLE   20 ......................................
................................................................................
   1    -41.0934424 -0.410934E+02  0.154E-01    8.72       0.0  T
   2    -41.0934558 -0.133300E-04  0.113E-01    8.72       1.0  T
   3    -41.0934619 -0.610814E-05  0.327E-02    8.72       1.0  T
   4    -41.0934634 -0.149463E-05  0.886E-03    8.72       2.6  T
   5    -41.0934634 -0.838341E-07  0.232E-03    8.72       9.9  T
   6    -41.0934634 -0.254583E-08  0.129E-03    8.72      17.8  T
speedup  1.08
cpu  time for SCC    0.00 s
wall time for SCC    0.00 s
speedup  0.81
cpu  time for grad    0.01 s
wall time for grad    0.01 s
 E :    -40.88999066  G :  0.010190    pred/act E change: -0.456D-03 -0.261D-03
Maxdispl :   0.3974   ||displ|| :   0.5850   Lambda : -0.845D-03
Largest |displ|/coords:  0.3974 (   2)  0.1941 (   3)  0.1555 (   1)
................................................................................
.............................. CYCLE   21 ......................................
................................................................................
   1    -41.0949282 -0.410949E+02  0.329E-01    8.60       0.0  T
   2    -41.0949837 -0.554775E-04  0.250E-01    8.57       1.0  T
   3    -41.0950117 -0.279713E-04  0.515E-02    8.52       1.0  T
   4    -41.0950212 -0.952107E-05  0.208E-02    8.53       1.1  T
   5    -41.0950217 -0.486730E-06  0.494E-03    8.53       4.6  T
   6    -41.0950217 -0.241402E-07  0.275E-03    8.53       8.4  T
   7    -41.0950217 -0.934054E-08  0.760E-04    8.53      30.2  T
speedup  0.93
cpu  time for SCC    0.00 s
wall time for SCC    0.00 s
speedup  0.98
cpu  time for grad    0.01 s
wall time for grad    0.01 s
 E :    -40.89071752  G :  0.013263    pred/act E change: -0.305D-03 -0.727D-03
Maxdispl :   0.4679   ||displ|| :   0.7662   Lambda : -0.121D-02
Largest |displ|/coords:  0.4679 (   2)  0.2860 (   3)  0.2053 (   1)
................................................................................
.............................. CYCLE   22 ......................................
................................................................................
   1    -41.0913882 -0.410914E+02  0.469E-01    8.23       0.0  T
   2    -41.0915953 -0.207185E-03  0.356E-01    8.19       1.0  T
   3    -41.0916851 -0.897904E-04  0.981E-02    8.09       1.0  T
   4    -41.0917132 -0.281005E-04  0.342E-02    8.09       1.0  T
   5    -41.0917151 -0.191284E-05  0.904E-03    8.10       2.5  T
   6    -41.0917152 -0.784286E-07  0.482E-03    8.10       4.8  T
   7    -41.0917152 -0.253282E-07  0.137E-03    8.10      16.8  T
   8    -41.0917153 -0.489375E-08  0.403E-04    8.10      56.9  T
speedup  1.02
cpu  time for SCC    0.00 s
wall time for SCC    0.00 s
speedup  1.00
cpu  time for grad    0.01 s
wall time for grad    0.01 s
 E :    -40.89167767  G :  0.027326    pred/act E change: -0.567D-03 -0.960D-03
Maxdispl :   0.1983   ||displ|| :   0.5551   Lambda : -0.152D-02
Largest |displ|/coords:  0.1983 (   5)  0.1945 (  19)  0.1771 (   2)
................................................................................
.............................. CYCLE   23 ......................................
................................................................................
   1    -41.0936450 -0.410936E+02  0.403E-01    7.95       0.0  T
   2    -41.0938197 -0.174678E-03  0.300E-01    7.91       1.0  T
   3    -41.0939013 -0.816114E-04  0.981E-02    7.81       1.0  T
   4    -41.0939178 -0.165661E-04  0.325E-02    7.80       1.0  T
   5    -41.0939193 -0.145711E-05  0.866E-03    7.81       2.6  T
   6    -41.0939194 -0.104668E-06  0.479E-03    7.81       4.8  T
   7    -41.0939194 -0.248875E-07  0.168E-03    7.81      13.6  T
speedup  0.93
cpu  time for SCC    0.00 s
wall time for SCC    0.00 s
speedup  0.97
cpu  time for grad    0.01 s
wall time for grad    0.01 s
 E :    -40.89250195  G :  0.036466    pred/act E change: -0.962D-03 -0.824D-03
Maxdispl :   0.3052   ||displ|| :   0.5090   Lambda : -0.225D-02
Largest |displ|/coords:  0.3052 (   2)  0.1644 (   5)  0.1584 (   9)
................................................................................
.............................. CYCLE   24 ......................................
................................................................................
   1    -41.0955296 -0.410955E+02  0.288E-01    7.78       0.0  T
   2    -41.0955956 -0.660574E-04  0.216E-01    7.75       1.0  T
   3    -41.0956302 -0.345969E-04  0.555E-02    7.70       1.0  T
   4    -41.0956389 -0.870874E-05  0.181E-02    7.70       1.3  T
   5    -41.0956394 -0.500782E-06  0.613E-03    7.70       3.7  T
   6    -41.0956395 -0.364250E-07  0.335E-03    7.70       6.9  T
   7    -41.0956395 -0.123406E-07  0.960E-04    7.70      23.9  T
speedup  1.14
cpu  time for SCC    0.00 s
wall time for SCC    0.00 s
speedup  1.05
cpu  time for grad    0.01 s
wall time for grad    0.01 s
 E :    -40.89439062  G :  0.033586    pred/act E change: -0.994D-03 -0.189D-02
Maxdispl :   0.2319   ||displ|| :   0.5286   Lambda : -0.447D-02
Largest |displ|/coords:  0.2319 (   4)  0.2127 (   5)  0.1708 (   2)
................................................................................
.............................. CYCLE   25 ......................................
................................................................................
   1    -41.1171363 -0.411171E+02  0.466E-01    8.26       0.0  T
   2    -41.1173092 -0.172836E-03  0.348E-01    8.24       1.0  T
   3    -41.1174017 -0.925370E-04  0.901E-02    8.17       1.0  T
   4    -41.1174232 -0.215018E-04  0.269E-02    8.17       1.0  T
   5    -41.1174242 -0.102394E-05  0.923E-03    8.17       2.5  T
   6    -41.1174243 -0.583090E-07  0.522E-03    8.17       4.4  T
   7    -41.1174243 -0.326690E-07  0.148E-03    8.17      15.5  T
speedup  1.19
cpu  time for SCC    0.00 s
wall time for SCC    0.00 s
speedup  1.09
cpu  time for grad    0.01 s
wall time for grad    0.01 s
 E :    -40.89567330  G :  0.037735    pred/act E change: -0.141D-02 -0.128D-02
Maxdispl :   0.3694   ||displ|| :   0.5986   Lambda : -0.311D-02
Largest |displ|/coords:  0.3694 (   2)  0.2330 (   3)  0.1765 (   5)

generating ANC from model Hessian ...
 Shifting diagonal of input Hessian by   5.317997653239373E-003
 Lowest  eigenvalues of input Hessian
    0.005000    0.005137   -0.000000   -0.000000    0.000000    0.000000
    0.000000    0.000000    0.005418    0.005624    0.005725    0.005821
    0.005938    0.006788    0.006895    0.007209    0.007349    0.007984
 Highest eigenvalues
    1.386837    1.406376    1.437143    2.571652    3.285399    3.836568
 
cpu  time for ANC gen    0.01 s
wall time for ANC gen    0.00 s
................................................................................
.............................. CYCLE   26 ......................................
................................................................................
   1    -41.1099103 -0.411099E+02  0.406E-01    7.71       0.0  T
   2    -41.1100210 -0.110755E-03  0.307E-01    7.68       1.0  T
   3    -41.1100952 -0.741799E-04  0.780E-02    7.60       1.0  T
   4    -41.1101089 -0.137118E-04  0.232E-02    7.60       1.0  T
   5    -41.1101100 -0.108737E-05  0.880E-03    7.60       2.6  T
   6    -41.1101101 -0.673541E-07  0.454E-03    7.60       5.1  T
   7    -41.1101101 -0.282943E-07  0.163E-03    7.60      14.0  T
   8    -41.1101101 -0.269094E-08  0.416E-04    7.60      55.2  T
   9    -41.1101101 -0.440032E-09  0.154E-04    7.60     149.0  T
speedup  0.91
cpu  time for SCC    0.01 s
wall time for SCC    0.01 s
speedup  0.93
cpu  time for grad    0.01 s
wall time for grad    0.01 s
 E :    -40.89636385  G :  0.042591    pred/act E change:  0.000D+00 -0.691D-03
Maxdispl :   0.1443   ||displ|| :   0.3316   Lambda : -0.352D-02
Largest |displ|/coords:  0.1443 (  12)  0.1410 (  13)  0.1302 (  16)
................................................................................
.............................. CYCLE   27 ......................................
................................................................................
   1    -41.1128546 -0.411129E+02  0.434E-01    7.50       0.0  T
   2    -41.1128825 -0.278922E-04  0.330E-01    7.48       1.0  T
   3    -41.1129101 -0.275922E-04  0.374E-02    7.43       1.0  T
   4    -41.1129128 -0.269391E-05  0.117E-02    7.45       2.0  T
   5    -41.1129129 -0.142463E-06  0.388E-03    7.45       5.9  T
   6    -41.1129129 -0.641413E-08  0.213E-03    7.45      10.8  T
speedup  1.08
cpu  time for SCC    0.00 s
wall time for SCC    0.00 s
speedup  1.05
cpu  time for grad    0.01 s
wall time for grad    0.01 s
 E :    -40.89834677  G :  0.025021    pred/act E change:  0.000D+00 -0.198D-02
Maxdispl :   0.1975   ||displ|| :   0.3402   Lambda : -0.225D-02
Largest |displ|/coords:  0.1975 (   5)  0.1276 (  14)  0.1014 (  12)
................................................................................
.............................. CYCLE   28 ......................................
................................................................................
   1    -41.1206803 -0.411207E+02  0.377E-01    7.56       0.0  T
   2    -41.1207212 -0.408462E-04  0.285E-01    7.55       1.0  T
   3    -41.1207524 -0.312659E-04  0.449E-02    7.55       1.0  T
   4    -41.1207579 -0.546463E-05  0.745E-03    7.56       3.1  T
   5    -41.1207579 -0.297670E-07  0.486E-03    7.55       4.7  T
   6    -41.1207579 -0.159205E-07  0.120E-03    7.55      19.2  T
speedup  0.81
cpu  time for SCC    0.00 s
wall time for SCC    0.00 s
speedup  1.03
cpu  time for grad    0.01 s
wall time for grad    0.01 s
 E :    -40.89889542  G :  0.015965    pred/act E change: -0.195D-02 -0.549D-03
Maxdispl :   0.2050   ||displ|| :   0.2989   Lambda : -0.108D-02
Largest |displ|/coords:  0.2050 (   5)  0.1099 (   3)  0.0803 (   1)
................................................................................
.............................. CYCLE   29 ......................................
................................................................................
   1    -41.1173971 -0.411174E+02  0.241E-01    7.46       0.0  T
   2    -41.1174065 -0.942900E-05  0.183E-01    7.46       1.0  T
   3    -41.1174161 -0.958322E-05  0.203E-02    7.47       1.1  T
   4    -41.1174171 -0.973500E-06  0.633E-03    7.46       3.6  T
   5    -41.1174171 -0.365027E-07  0.247E-03    7.46       9.3  T
   6    -41.1174171 -0.494399E-08  0.137E-03    7.46      16.8  T
speedup  1.08
cpu  time for SCC    0.00 s
wall time for SCC    0.00 s
speedup  1.02
cpu  time for grad    0.01 s
wall time for grad    0.01 s
 E :    -40.89969142  G :  0.011256    pred/act E change: -0.125D-02 -0.796D-03
Maxdispl :   0.3768   ||displ|| :   0.5084   Lambda : -0.129D-02
Largest |displ|/coords:  0.3768 (   5)  0.1664 (   1)  0.1520 (   9)
................................................................................
.............................. CYCLE   30 ......................................
................................................................................
   1    -41.1145927 -0.411146E+02  0.366E-01    7.31       0.0  T
   2    -41.1146108 -0.180539E-04  0.277E-01    7.30       1.0  T
   3    -41.1146253 -0.145137E-04  0.298E-02    7.27       1.0  T
   4    -41.1146277 -0.241102E-05  0.108E-02    7.27       2.1  T
   5    -41.1146278 -0.887849E-07  0.322E-03    7.27       7.1  T
   6    -41.1146278 -0.565113E-08  0.187E-03    7.27      12.3  T
   7    -41.1146278 -0.337788E-08  0.462E-04    7.27      49.6  T
speedup  0.93
cpu  time for SCC    0.00 s
wall time for SCC    0.00 s
speedup  0.96
cpu  time for grad    0.01 s
wall time for grad    0.01 s
 E :    -40.90030738  G :  0.021625    pred/act E change: -0.589D-03 -0.616D-03
Maxdispl :   0.1829   ||displ|| :   0.2490   Lambda : -0.763D-03
Largest |displ|/coords:  0.1829 (   5)  0.1021 (   1)  0.0589 (  12)
................................................................................
.............................. CYCLE   31 ......................................
................................................................................
   1    -41.1156552 -0.411157E+02  0.162E-01    7.30       0.0  T
   2    -41.1156636 -0.834774E-05  0.122E-01    7.31       1.0  T
   3    -41.1156690 -0.545512E-05  0.188E-02    7.32       1.2  T
   4    -41.1156703 -0.127207E-05  0.504E-03    7.31       4.5  T
   5    -41.1156703 -0.225223E-07  0.215E-03    7.31      10.7  T
speedup  0.97
cpu  time for SCC    0.00 s
wall time for SCC    0.00 s
speedup  0.99
cpu  time for grad    0.01 s
wall time for grad    0.01 s
 E :    -40.90076710  G :  0.013370    pred/act E change: -0.813D-03 -0.460D-03
Maxdispl :   0.2533   ||displ|| :   0.3515   Lambda : -0.748D-03
Largest |displ|/coords:  0.2533 (   5)  0.1143 (   1)  0.1073 (   4)
................................................................................
.............................. CYCLE   32 ......................................
................................................................................
   1    -41.1179680 -0.411180E+02  0.334E-01    7.40       0.0  T
   2    -41.1179847 -0.167047E-04  0.255E-01    7.39       1.0  T
   3    -41.1180025 -0.177505E-04  0.230E-02    7.38       1.0  T
   4    -41.1180040 -0.152823E-05  0.688E-03    7.40       3.3  T
   5    -41.1180041 -0.579965E-07  0.321E-03    7.40       7.1  T
   6    -41.1180041 -0.484644E-08  0.165E-03    7.40      13.9  T
   7    -41.1180041 -0.401759E-08  0.308E-04    7.40      74.5  T
speedup  0.91
cpu  time for SCC    0.00 s
wall time for SCC    0.00 s
speedup  0.95
cpu  time for grad    0.01 s
wall time for grad    0.01 s
 E :    -40.90093762  G :  0.016360    pred/act E change: -0.405D-03 -0.171D-03
Maxdispl :   0.1409   ||displ|| :   0.2484   Lambda : -0.710D-03
Largest |displ|/coords:  0.1409 (   1)  0.1214 (   5)  0.1046 (   8)
................................................................................
.............................. CYCLE   33 ......................................
................................................................................
   1    -41.1217567 -0.411218E+02  0.221E-01    7.43       0.0  T
   2    -41.1217651 -0.831707E-05  0.167E-01    7.43       1.0  T
   3    -41.1217724 -0.732616E-05  0.204E-02    7.43       1.1  T
   4    -41.1217733 -0.939407E-06  0.568E-03    7.43       4.0  T
   5    -41.1217734 -0.597568E-07  0.225E-03    7.43      10.2  T
   6    -41.1217734 -0.216468E-08  0.122E-03    7.43      18.8  T
speedup  1.08
cpu  time for SCC    0.00 s
wall time for SCC    0.00 s
speedup  1.02
cpu  time for grad    0.01 s
wall time for grad    0.01 s
 E :    -40.90127733  G :  0.010554    pred/act E change: -0.420D-03 -0.340D-03
Maxdispl :   0.2312   ||displ|| :   0.3585   Lambda : -0.675D-03
Largest |displ|/coords:  0.2312 (   5)  0.1761 (   1)  0.1024 (   4)
................................................................................
.............................. CYCLE   34 ......................................
................................................................................
   1    -41.1132897 -0.411133E+02  0.347E-01    7.31       0.0  T
   2    -41.1133120 -0.223324E-04  0.264E-01    7.33       1.0  T
   3    -41.1133324 -0.203965E-04  0.307E-02    7.37       1.0  T
   4    -41.1133350 -0.259784E-05  0.844E-03    7.35       2.7  T
   5    -41.1133351 -0.103276E-06  0.369E-03    7.35       6.2  T
   6    -41.1133351 -0.740447E-08  0.197E-03    7.35      11.6  T
   7    -41.1133351 -0.647174E-08  0.419E-04    7.35      54.8  T
speedup  0.93
cpu  time for SCC    0.00 s
wall time for SCC    0.00 s
speedup  0.96
cpu  time for grad    0.01 s
wall time for grad    0.01 s
 E :    -40.90120324  G :  0.026237    pred/act E change: -0.377D-03  0.741D-04
Maxdispl :   0.1241   ||displ|| :   0.1790   Lambda : -0.109D-02
Largest |displ|/coords:  0.1241 (   7)  0.0619 (   9)  0.0496 (   8)
................................................................................
.............................. CYCLE   35 ......................................
................................................................................
   1    -41.1192374 -0.411192E+02  0.225E-01    7.43       0.0  T
   2    -41.1192511 -0.137151E-04  0.170E-01    7.41       1.0  T
   3    -41.1192600 -0.891442E-05  0.252E-02    7.37       1.0  T
   4    -41.1192621 -0.209645E-05  0.468E-03    7.40       4.9  T
   5    -41.1192621 -0.115375E-07  0.274E-03    7.40       8.4  T
speedup  0.94
cpu  time for SCC    0.00 s
wall time for SCC    0.00 s
speedup  1.10
cpu  time for grad    0.01 s
wall time for grad    0.01 s
 E :    -40.90162498  G :  0.010276    pred/act E change: -0.381D-03 -0.422D-03
Maxdispl :   0.0967   ||displ|| :   0.1670   Lambda : -0.292D-03
Largest |displ|/coords:  0.0967 (   5)  0.0847 (   1)  0.0568 (   4)
................................................................................
.............................. CYCLE   36 ......................................
................................................................................
   1    -41.1203891 -0.411204E+02  0.157E-01    7.40       0.0  T
   2    -41.1203938 -0.467126E-05  0.119E-01    7.40       1.0  T
   3    -41.1203979 -0.415207E-05  0.131E-02    7.41       1.7  T
   4    -41.1203985 -0.598590E-06  0.378E-03    7.40       6.1  T
   5    -41.1203985 -0.138999E-07  0.180E-03    7.40      12.7  T
   6    -41.1203985 -0.178972E-08  0.824E-04    7.40      27.9  T
speedup  1.05
cpu  time for SCC    0.00 s
wall time for SCC    0.00 s
speedup  1.01
cpu  time for grad    0.01 s
wall time for grad    0.01 s
 E :    -40.90173427  G :  0.007054    pred/act E change: -0.563D-03 -0.109D-03
Maxdispl :   0.1337   ||displ|| :   0.1861   Lambda : -0.209D-03
Largest |displ|/coords:  0.1337 (   5)  0.0808 (   4)  0.0637 (   1)
................................................................................
.............................. CYCLE   37 ......................................
................................................................................
   1    -41.1203188 -0.411203E+02  0.159E-01    7.41       0.0  T
   2    -41.1203217 -0.288099E-05  0.121E-01    7.41       1.0  T
   3    -41.1203252 -0.354714E-05  0.116E-02    7.41       2.0  T
   4    -41.1203254 -0.166128E-06  0.402E-03    7.41       5.7  T
   5    -41.1203254 -0.113581E-07  0.129E-03    7.41      17.8  T
   6    -41.1203254 -0.937810E-09  0.635E-04    7.41      36.1  T
speedup  1.05
cpu  time for SCC    0.00 s
wall time for SCC    0.00 s
speedup  1.01
cpu  time for grad    0.01 s
wall time for grad    0.01 s
 E :    -40.90188632  G :  0.005820    pred/act E change: -0.150D-03 -0.152D-03
Maxdispl :   0.2168   ||displ|| :   0.3911   Lambda : -0.387D-03
Largest |displ|/coords:  0.2168 (   5)  0.1700 (   1)  0.1437 (   4)
................................................................................
.............................. CYCLE   38 ......................................
................................................................................
   1    -41.1162721 -0.411163E+02  0.337E-01    7.36       0.0  T
   2    -41.1162890 -0.168654E-04  0.254E-01    7.37       1.0  T
   3    -41.1163058 -0.167872E-04  0.330E-02    7.39       1.0  T
   4    -41.1163075 -0.173903E-05  0.111E-02    7.39       2.1  T
   5    -41.1163076 -0.130821E-06  0.387E-03    7.38       5.9  T
   6    -41.1163076 -0.106138E-07  0.214E-03    7.38      10.7  T
   7    -41.1163076 -0.763385E-08  0.526E-04    7.39      43.6  T
speedup  0.91
cpu  time for SCC    0.00 s
wall time for SCC    0.00 s
speedup  0.95
cpu  time for grad    0.01 s
wall time for grad    0.01 s
 E :    -40.90192546  G :  0.020064    pred/act E change: -0.108D-03 -0.391D-04
Maxdispl :   0.0434   ||displ|| :   0.0874   Lambda : -0.425D-03
Largest |displ|/coords:  0.0434 (   8)  0.0384 (  11)  0.0311 (   5)
................................................................................
.............................. CYCLE   39 ......................................
................................................................................
   1    -41.1206076 -0.411206E+02  0.991E-02    7.45       0.0  T
   2    -41.1206140 -0.634864E-05  0.731E-02    7.44       1.0  T
   3    -41.1206180 -0.405637E-05  0.169E-02    7.43       1.4  T
   4    -41.1206187 -0.658215E-06  0.358E-03    7.43       6.4  T
   5    -41.1206187 -0.149930E-07  0.179E-03    7.43      12.8  T
speedup  0.94
cpu  time for SCC    0.00 s
wall time for SCC    0.00 s
speedup  0.96
cpu  time for grad    0.01 s
wall time for grad    0.01 s
 E :    -40.90210428  G :  0.007792    pred/act E change: -0.223D-03 -0.179D-03
Maxdispl :   0.0731   ||displ|| :   0.1493   Lambda : -0.219D-03
Largest |displ|/coords:  0.0731 (   5)  0.0643 (  10)  0.0543 (  12)
................................................................................
.............................. CYCLE   40 ......................................
................................................................................
   1    -41.1220937 -0.411221E+02  0.133E-01    7.44       0.0  T
   2    -41.1220968 -0.304355E-05  0.101E-01    7.44       1.0  T
   3    -41.1220994 -0.265561E-05  0.109E-02    7.43       2.1  T
   4    -41.1220998 -0.390840E-06  0.363E-03    7.44       6.3  T
   5    -41.1220998 -0.814523E-08  0.153E-03    7.44      15.0  T
   6    -41.1220998 -0.177342E-08  0.680E-04    7.44      33.7  T
speedup  1.05
cpu  time for SCC    0.00 s
wall time for SCC    0.00 s
speedup  1.01
cpu  time for grad    0.01 s
wall time for grad    0.01 s
 E :    -40.90215294  G :  0.010698    pred/act E change: -0.214D-03 -0.487D-04
Maxdispl :   0.0597   ||displ|| :   0.1369   Lambda : -0.194D-03
Largest |displ|/coords:  0.0597 (   9)  0.0535 (   4)  0.0475 (   3)
................................................................................
.............................. CYCLE   41 ......................................
................................................................................
   1    -41.1213416 -0.411213E+02  0.126E-01    7.43       0.0  T
   2    -41.1213433 -0.163942E-05  0.943E-02    7.43       1.0  T
   3    -41.1213449 -0.162734E-05  0.107E-02    7.45       2.1  T
   4    -41.1213450 -0.156329E-06  0.337E-03    7.44       6.8  T
   5    -41.1213450 -0.113201E-07  0.116E-03    7.44      19.8  T
   6    -41.1213450 -0.112351E-08  0.704E-04    7.44      32.6  T
speedup  0.81
cpu  time for SCC    0.00 s
wall time for SCC    0.00 s
speedup  1.01
cpu  time for grad    0.01 s
wall time for grad    0.01 s
 E :    -40.90229593  G :  0.008487    pred/act E change: -0.112D-03 -0.143D-03
Maxdispl :   0.1923   ||displ|| :   0.3326   Lambda : -0.317D-03
Largest |displ|/coords:  0.1923 (   5)  0.1020 (   4)  0.1000 (   1)
................................................................................
.............................. CYCLE   42 ......................................
................................................................................
   1    -41.1196296 -0.411196E+02  0.277E-01    7.42       0.0  T
   2    -41.1196375 -0.799036E-05  0.208E-01    7.43       1.0  T
   3    -41.1196460 -0.841123E-05  0.229E-02    7.43       1.0  T
   4    -41.1196467 -0.753632E-06  0.909E-03    7.43       2.5  T
   5    -41.1196468 -0.711258E-07  0.290E-03    7.43       7.9  T
   6    -41.1196468 -0.626446E-08  0.167E-03    7.43      13.7  T
speedup  1.08
cpu  time for SCC    0.00 s
wall time for SCC    0.00 s
speedup  1.01
cpu  time for grad    0.01 s
wall time for grad    0.01 s
 E :    -40.90240444  G :  0.015466    pred/act E change: -0.987D-04 -0.109D-03
Maxdispl :   0.0551   ||displ|| :   0.1101   Lambda : -0.293D-03
Largest |displ|/coords:  0.0551 (   9)  0.0379 (   4)  0.0348 (  17)
................................................................................
.............................. CYCLE   43 ......................................
................................................................................
   1    -41.1205355 -0.411205E+02  0.108E-01    7.43       0.0  T
   2    -41.1205370 -0.153453E-05  0.810E-02    7.43       1.0  T
   3    -41.1205387 -0.166018E-05  0.860E-03    7.44       2.7  T
   4    -41.1205388 -0.120765E-06  0.302E-03    7.44       7.6  T
   5    -41.1205388 -0.105064E-07  0.115E-03    7.44      20.0  T
   6    -41.1205388 -0.159643E-08  0.648E-04    7.44      35.4  T
speedup  1.08
cpu  time for SCC    0.00 s
wall time for SCC    0.00 s
speedup  1.01
cpu  time for grad    0.01 s
wall time for grad    0.01 s
 E :    -40.90259002  G :  0.007248    pred/act E change: -0.176D-03 -0.186D-03
Maxdispl :   0.0987   ||displ|| :   0.2607   Lambda : -0.307D-03
Largest |displ|/coords:  0.0987 (  10)  0.0876 (   9)  0.0785 (   3)
................................................................................
.............................. CYCLE   44 ......................................
................................................................................
   1    -41.1224905 -0.411225E+02  0.256E-01    7.48       0.0  T
   2    -41.1224980 -0.750971E-05  0.192E-01    7.48       1.0  T
   3    -41.1225038 -0.583329E-05  0.209E-02    7.49       1.1  T
   4    -41.1225048 -0.992676E-06  0.689E-03    7.50       3.3  T
   5    -41.1225049 -0.500794E-07  0.263E-03    7.50       8.7  T
   6    -41.1225049 -0.468442E-08  0.146E-03    7.50      15.7  T
speedup  1.05
cpu  time for SCC    0.00 s
wall time for SCC    0.00 s
speedup  1.01
cpu  time for grad    0.01 s
wall time for grad    0.01 s
 E :    -40.90274864  G :  0.011335    pred/act E change: -0.148D-03 -0.159D-03
Maxdispl :   0.1071   ||displ|| :   0.2289   Lambda : -0.336D-03
Largest |displ|/coords:  0.1071 (   5)  0.0988 (   2)  0.0651 (  10)
................................................................................
.............................. CYCLE   45 ......................................
................................................................................
   1    -41.1250224 -0.411250E+02  0.152E-01    7.53       0.0  T
   2    -41.1250255 -0.303108E-05  0.114E-01    7.53       1.0  T
   3    -41.1250283 -0.280462E-05  0.127E-02    7.52       1.8  T
   4    -41.1250286 -0.347761E-06  0.524E-03    7.52       4.4  T
   5    -41.1250287 -0.306607E-07  0.166E-03    7.52      13.8  T
   6    -41.1250287 -0.196789E-08  0.941E-04    7.52      24.4  T
speedup  0.81
cpu  time for SCC    0.00 s
wall time for SCC    0.00 s
speedup  1.02
cpu  time for grad    0.01 s
wall time for grad    0.01 s
 E :    -40.90294429  G :  0.008183    pred/act E change: -0.164D-03 -0.196D-03
Maxdispl :   0.3629   ||displ|| :   0.6075   Lambda : -0.490D-03
Largest |displ|/coords:  0.3629 (   5)  0.1750 (   4)  0.1641 (   2)
................................................................................
.............................. CYCLE   46 ......................................
................................................................................
   1    -41.1119413 -0.411119E+02  0.489E-01    7.37       0.0  T
   2    -41.1119722 -0.308973E-04  0.367E-01    7.39       1.0  T
   3    -41.1120008 -0.285596E-04  0.430E-02    7.44       1.0  T
   4    -41.1120042 -0.342927E-05  0.154E-02    7.43       1.5  T
   5    -41.1120045 -0.267642E-06  0.532E-03    7.42       4.3  T
   6    -41.1120045 -0.155086E-07  0.288E-03    7.42       8.0  T
   7    -41.1120045 -0.144022E-07  0.549E-04    7.42      41.8  T
speedup  1.16
cpu  time for SCC    0.00 s
wall time for SCC    0.00 s
speedup  1.05
cpu  time for grad    0.01 s
wall time for grad    0.01 s
 E :    -40.90228633  G :  0.036697    pred/act E change: -0.177D-03  0.658D-03
Maxdispl :   0.1724   ||displ|| :   0.2667   Lambda : -0.201D-02
Largest |displ|/coords:  0.1724 (   5)  0.1130 (   7)  0.0696 (   9)
................................................................................
.............................. CYCLE   47 ......................................
................................................................................
   1    -41.1224938 -0.411225E+02  0.276E-01    7.54       0.0  T
   2    -41.1225117 -0.179105E-04  0.208E-01    7.52       1.0  T
   3    -41.1225268 -0.150214E-04  0.285E-02    7.48       1.0  T
   4    -41.1225289 -0.208906E-05  0.847E-03    7.50       2.7  T
   5    -41.1225289 -0.808691E-07  0.385E-03    7.50       6.0  T
   6    -41.1225289 -0.960713E-08  0.186E-03    7.50      12.4  T
speedup  0.79
cpu  time for SCC    0.00 s
wall time for SCC    0.00 s
speedup  1.01
cpu  time for grad    0.01 s
wall time for grad    0.01 s
 E :    -40.90311867  G :  0.012529    pred/act E change: -0.335D-03 -0.832D-03
Maxdispl :   0.1980   ||displ|| :   0.2968   Lambda : -0.558D-03
Largest |displ|/coords:  0.1980 (   5)  0.1213 (   7)  0.0951 (   1)
................................................................................
.............................. CYCLE   48 ......................................
................................................................................
   1    -41.1274594 -0.411275E+02  0.281E-01    7.64       0.0  T
   2    -41.1274820 -0.225150E-04  0.212E-01    7.66       1.0  T
   3    -41.1275030 -0.210282E-04  0.338E-02    7.71       1.0  T
   4    -41.1275055 -0.252279E-05  0.872E-03    7.69       2.6  T
   5    -41.1275056 -0.635972E-07  0.416E-03    7.69       5.5  T
   6    -41.1275056 -0.207024E-07  0.186E-03    7.69      12.3  T
   7    -41.1275056 -0.509804E-08  0.567E-04    7.69      40.4  T
speedup  1.16
cpu  time for SCC    0.00 s
wall time for SCC    0.00 s
speedup  1.05
cpu  time for grad    0.01 s
wall time for grad    0.01 s
 E :    -40.90242672  G :  0.034394    pred/act E change: -0.108D-02  0.692D-03
Maxdispl :   0.0789   ||displ|| :   0.1654   Lambda : -0.166D-02
Largest |displ|/coords:  0.0789 (   5)  0.0746 (   7)  0.0498 (   3)
................................................................................
.............................. CYCLE   49 ......................................
................................................................................
   1    -41.1241133 -0.411241E+02  0.224E-01    7.65       0.0  T
   2    -41.1241316 -0.182549E-04  0.169E-01    7.63       1.0  T
   3    -41.1241455 -0.138768E-04  0.282E-02    7.59       1.0  T
   4    -41.1241480 -0.255984E-05  0.579E-03    7.62       4.0  T
   5    -41.1241480 -0.187751E-07  0.340E-03    7.62       6.8  T
speedup  0.97
cpu  time for SCC    0.00 s
wall time for SCC    0.00 s
speedup  0.98
cpu  time for grad    0.01 s
wall time for grad    0.01 s
 E :    -40.90320654  G :  0.010139    pred/act E change: -0.304D-03 -0.780D-03
Maxdispl :   0.1513   ||displ|| :   0.2770   Lambda : -0.374D-03
Largest |displ|/coords:  0.1513 (   5)  0.1037 (   9)  0.0967 (   4)
................................................................................
.............................. CYCLE   50 ......................................
................................................................................
   1    -41.1208185 -0.411208E+02  0.201E-01    7.40       0.0  T
   2    -41.1208250 -0.653515E-05  0.150E-01    7.40       1.0  T
   3    -41.1208313 -0.626563E-05  0.217E-02    7.41       1.1  T
   4    -41.1208319 -0.647521E-06  0.751E-03    7.41       3.1  T
   5    -41.1208320 -0.657709E-07  0.234E-03    7.41       9.8  T
   6    -41.1208320 -0.489290E-08  0.140E-03    7.41      16.4  T
speedup  0.81
cpu  time for SCC    0.00 s
wall time for SCC    0.00 s
speedup  1.02
cpu  time for grad    0.01 s
wall time for grad    0.01 s
 E :    -40.90315460  G :  0.013963    pred/act E change: -0.851D-03  0.519D-04
Maxdispl :   0.0767   ||displ|| :   0.1219   Lambda : -0.409D-03
Largest |displ|/coords:  0.0767 (   9)  0.0531 (   5)  0.0402 (  13)
................................................................................
.............................. CYCLE   51 ......................................
................................................................................
   1    -41.1225445 -0.411225E+02  0.107E-01    7.55       0.0  T
   2    -41.1225466 -0.210576E-05  0.802E-02    7.55       1.0  T
   3    -41.1225486 -0.198652E-05  0.122E-02    7.55       1.9  T
   4    -41.1225488 -0.186558E-06  0.350E-03    7.55       6.5  T
   5    -41.1225488 -0.137845E-07  0.111E-03    7.55      20.7  T
   6    -41.1225488 -0.112249E-08  0.657E-04    7.55      34.9  T
speedup  1.05
cpu  time for SCC    0.00 s
wall time for SCC    0.00 s
speedup  1.01
cpu  time for grad    0.01 s
wall time for grad    0.01 s
 E :    -40.90338055  G :  0.006654    pred/act E change: -0.201D-03 -0.226D-03
Maxdispl :   0.0740   ||displ|| :   0.1359   Lambda : -0.101D-03
Largest |displ|/coords:  0.0740 (   2)  0.0538 (  10)  0.0406 (   7)
................................................................................
.............................. CYCLE   52 ......................................
................................................................................
   1    -41.1222393 -0.411222E+02  0.982E-02    7.55       0.0  T
   2    -41.1222401 -0.812151E-06  0.734E-02    7.56       1.0  T
   3    -41.1222411 -0.959200E-06  0.876E-03    7.56       2.6  T
   4    -41.1222411 -0.518691E-07  0.253E-03    7.56       9.1  T
   5    -41.1222411 -0.608105E-08  0.863E-04    7.56      26.6  T
speedup  0.97
cpu  time for SCC    0.00 s
wall time for SCC    0.00 s
speedup  1.07
cpu  time for grad    0.01 s
wall time for grad    0.01 s
 E :    -40.90346025  G :  0.006518    pred/act E change: -0.207D-03 -0.797D-04
Maxdispl :   0.2289   ||displ|| :   0.4158   Lambda : -0.249D-03
Largest |displ|/coords:  0.2289 (   2)  0.1602 (  10)  0.1148 (   4)

generating ANC from model Hessian ...
 Shifting diagonal of input Hessian by   5.209415464838238E-003
 Lowest  eigenvalues of input Hessian
    0.005000   -0.000000   -0.000000    0.000000    0.000000    0.000000
    0.000000    0.005430    0.005497    0.005798    0.006001    0.006070
    0.006650    0.007486    0.007858    0.008764    0.009540    0.009895
 Highest eigenvalues
    1.398012    1.416167    1.426929    2.551452    3.289142    3.883127
 
cpu  time for ANC gen    0.01 s
wall time for ANC gen    0.01 s
................................................................................
.............................. CYCLE   53 ......................................
................................................................................
   1    -41.1195205 -0.411195E+02  0.295E-01    7.57       0.0  T
   2    -41.1195298 -0.923125E-05  0.220E-01    7.58       1.0  T
   3    -41.1195406 -0.108614E-04  0.283E-02    7.60       1.0  T
   4    -41.1195413 -0.655016E-06  0.825E-03    7.59       2.8  T
   5    -41.1195413 -0.652878E-07  0.317E-03    7.59       7.2  T
   6    -41.1195413 -0.717753E-08  0.174E-03    7.59      13.2  T
   7    -41.1195413 -0.288540E-08  0.273E-04    7.59      84.0  T
   8    -41.1195413 -0.158160E-09  0.865E-05    7.59     265.1  T
speedup  1.00
cpu  time for SCC    0.00 s
wall time for SCC    0.01 s
speedup  0.96
cpu  time for grad    0.01 s
wall time for grad    0.01 s
 E :    -40.90356224  G :  0.013462    pred/act E change:  0.000D+00 -0.102D-03
Maxdispl :   0.0761   ||displ|| :   0.1239   Lambda : -0.307D-03
Largest |displ|/coords:  0.0761 (   9)  0.0497 (  14)  0.0470 (   6)
................................................................................
.............................. CYCLE   54 ......................................
................................................................................
   1    -41.1214774 -0.411215E+02  0.166E-01    7.59       0.0  T
   2    -41.1214804 -0.302186E-05  0.126E-01    7.59       1.0  T
   3    -41.1214841 -0.372871E-05  0.101E-02    7.60       2.3  T
   4    -41.1214843 -0.158639E-06  0.316E-03    7.60       7.3  T
   5    -41.1214843 -0.613402E-08  0.138E-03    7.60      16.6  T
   6    -41.1214843 -0.197621E-08  0.680E-04    7.60      33.7  T
speedup  0.81
cpu  time for SCC    0.00 s
wall time for SCC    0.00 s
speedup  1.02
cpu  time for grad    0.01 s
wall time for grad    0.01 s
 E :    -40.90375153  G :  0.005569    pred/act E change:  0.000D+00 -0.189D-03
Maxdispl :   0.0775   ||displ|| :   0.1499   Lambda : -0.194D-03
Largest |displ|/coords:  0.0775 (   9)  0.0761 (  14)  0.0540 (   5)
................................................................................
.............................. CYCLE   55 ......................................
................................................................................
   1    -41.1231794 -0.411232E+02  0.204E-01    7.58       0.0  T
   2    -41.1231835 -0.411182E-05  0.155E-01    7.58       1.0  T
   3    -41.1231879 -0.438433E-05  0.127E-02    7.57       1.8  T
   4    -41.1231882 -0.337024E-06  0.525E-03    7.57       4.4  T
   5    -41.1231882 -0.175119E-07  0.153E-03    7.57      15.0  T
   6    -41.1231882 -0.682945E-09  0.811E-04    7.57      28.3  T
speedup  1.11
cpu  time for SCC    0.00 s
wall time for SCC    0.00 s
speedup  1.02
cpu  time for grad    0.01 s
wall time for grad    0.01 s
 E :    -40.90384286  G :  0.004570    pred/act E change: -0.156D-03 -0.913D-04
Maxdispl :   0.0675   ||displ|| :   0.1060   Lambda : -0.840D-04
Largest |displ|/coords:  0.0675 (   9)  0.0529 (  14)  0.0271 (  13)
................................................................................
.............................. CYCLE   56 ......................................
................................................................................
   1    -41.1227581 -0.411228E+02  0.990E-02    7.57       0.0  T
   2    -41.1227590 -0.852020E-06  0.746E-02    7.57       1.0  T
   3    -41.1227602 -0.121400E-05  0.647E-03    7.57       3.5  T
   4    -41.1227602 -0.337045E-07  0.231E-03    7.57       9.9  T
   5    -41.1227603 -0.479501E-08  0.974E-04    7.57      23.5  T
speedup  0.94
cpu  time for SCC    0.00 s
wall time for SCC    0.00 s
speedup  1.08
cpu  time for grad    0.01 s
wall time for grad    0.01 s
 E :    -40.90390771  G :  0.003869    pred/act E change: -0.992D-04 -0.648D-04
Maxdispl :   0.1136   ||displ|| :   0.1809   Lambda : -0.975D-04
Largest |displ|/coords:  0.1136 (   9)  0.0776 (  14)  0.0477 (  13)
................................................................................
.............................. CYCLE   57 ......................................
................................................................................
   1    -41.1214250 -0.411214E+02  0.164E-01    7.57       0.0  T
   2    -41.1214273 -0.226021E-05  0.123E-01    7.57       1.0  T
   3    -41.1214304 -0.313534E-05  0.107E-02    7.58       2.2  T
   4    -41.1214305 -0.948298E-07  0.401E-03    7.58       5.7  T
   5    -41.1214305 -0.137913E-07  0.162E-03    7.58      14.2  T
   6    -41.1214305 -0.197962E-08  0.748E-04    7.58      30.7  T
   7    -41.1214305 -0.589822E-09  0.124E-04    7.58     185.1  T
speedup  1.16
cpu  time for SCC    0.01 s
wall time for SCC    0.00 s
speedup  1.02
cpu  time for grad    0.01 s
wall time for grad    0.01 s
 E :    -40.90395521  G :  0.005325    pred/act E change: -0.425D-04 -0.475D-04
Maxdispl :   0.0207   ||displ|| :   0.0435   Lambda : -0.346D-04
Largest |displ|/coords:  0.0207 (   3)  0.0187 (   1)  0.0169 (  11)
................................................................................
.............................. CYCLE   58 ......................................
................................................................................
   1    -41.1221135 -0.411221E+02  0.431E-02    7.58       0.0  T
   2    -41.1221138 -0.299096E-06  0.324E-02    7.58       1.0  T
   3    -41.1221141 -0.232765E-06  0.397E-03    7.58       5.8  T
   4    -41.1221141 -0.408471E-07  0.156E-03    7.58      14.7  T
   5    -41.1221141 -0.279191E-08  0.504E-04    7.58      45.5  T
speedup  0.97
cpu  time for SCC    0.00 s
wall time for SCC    0.00 s
speedup  0.96
cpu  time for grad    0.01 s
wall time for grad    0.01 s
 E :    -40.90397782  G :  0.002538    pred/act E change: -0.503D-04 -0.226D-04
Maxdispl :   0.0474   ||displ|| :   0.0915   Lambda : -0.297D-04
Largest |displ|/coords:  0.0474 (   9)  0.0441 (   3)  0.0305 (   6)
................................................................................
.............................. CYCLE   59 ......................................
................................................................................
   1    -41.1223280 -0.411223E+02  0.101E-01    7.60       0.0  T
   2    -41.1223290 -0.999976E-06  0.767E-02    7.60       1.0  T
   3    -41.1223301 -0.108752E-05  0.652E-03    7.60       3.5  T
   4    -41.1223301 -0.866777E-07  0.287E-03    7.60       8.0  T
   5    -41.1223302 -0.479564E-08  0.846E-04    7.60      27.1  T
   6    -41.1223302 -0.342318E-09  0.460E-04    7.60      49.9  T
speedup  1.05
cpu  time for SCC    0.00 s
wall time for SCC    0.00 s
speedup  1.09
cpu  time for grad    0.01 s
wall time for grad    0.01 s
 E :    -40.90399721  G :  0.002637    pred/act E change: -0.173D-04 -0.194D-04
Maxdispl :   0.0396   ||displ|| :   0.0859   Lambda : -0.272D-04
Largest |displ|/coords:  0.0396 (   9)  0.0391 (   6)  0.0266 (   3)
................................................................................
.............................. CYCLE   60 ......................................
................................................................................
   1    -41.1233734 -0.411234E+02  0.784E-02    7.63       0.0  T
   2    -41.1233740 -0.601394E-06  0.590E-02    7.63       1.0  T
   3    -41.1233746 -0.585450E-06  0.628E-03    7.63       3.7  T
   4    -41.1233746 -0.546905E-07  0.224E-03    7.64      10.2  T
   5    -41.1233746 -0.395173E-08  0.664E-04    7.64      34.6  T
   6    -41.1233746 -0.204814E-09  0.377E-04    7.64      60.9  T
speedup  1.08
cpu  time for SCC    0.00 s
wall time for SCC    0.00 s
speedup  1.09
cpu  time for grad    0.01 s
wall time for grad    0.01 s
 E :    -40.90400659  G :  0.003190    pred/act E change: -0.149D-04 -0.937D-05
Maxdispl :   0.0579   ||displ|| :   0.1102   Lambda : -0.246D-04
Largest |displ|/coords:  0.0579 (   9)  0.0438 (  14)  0.0407 (   6)
................................................................................
.............................. CYCLE   61 ......................................
................................................................................
   1    -41.1225316 -0.411225E+02  0.104E-01    7.64       0.0  T
   2    -41.1225327 -0.103872E-05  0.780E-02    7.64       1.0  T
   3    -41.1225338 -0.111744E-05  0.775E-03    7.65       3.0  T
   4    -41.1225339 -0.947688E-07  0.317E-03    7.64       7.2  T
   5    -41.1225339 -0.807245E-08  0.996E-04    7.64      23.0  T
   6    -41.1225339 -0.633662E-09  0.542E-04    7.64      42.3  T
speedup  0.79
cpu  time for SCC    0.00 s
wall time for SCC    0.00 s
speedup  0.96
cpu  time for grad    0.01 s
wall time for grad    0.01 s
 E :    -40.90401527  G :  0.002161    pred/act E change: -0.137D-04 -0.868D-05
Maxdispl :   0.0242   ||displ|| :   0.0366   Lambda : -0.102D-04
Largest |displ|/coords:  0.0242 (   9)  0.0145 (  14)  0.0096 (   4)
................................................................................
.............................. CYCLE   62 ......................................
................................................................................
   1    -41.1229217 -0.411229E+02  0.320E-02    7.64       0.0  T
   2    -41.1229218 -0.940663E-07  0.240E-02    7.64       1.0  T
   3    -41.1229219 -0.977805E-07  0.261E-03    7.64       8.8  T
   4    -41.1229219 -0.908462E-08  0.810E-04    7.64      28.3  T
   5    -41.1229219 -0.637741E-09  0.335E-04    7.64      68.4  T
speedup  0.94
cpu  time for SCC    0.00 s
wall time for SCC    0.00 s
speedup  1.05
cpu  time for grad    0.01 s
wall time for grad    0.01 s
 E :    -40.90402130  G :  0.000822    pred/act E change: -0.124D-04 -0.603D-05
Maxdispl :   0.0164   ||displ|| :   0.0333   Lambda : -0.610D-05
Largest |displ|/coords:  0.0164 (   1)  0.0155 (   4)  0.0111 (   6)
................................................................................
.............................. CYCLE   63 ......................................
................................................................................
   1    -41.1229304 -0.411229E+02  0.342E-02    7.65       0.0  T
   2    -41.1229305 -0.679090E-07  0.256E-02    7.65       1.0  T
   3    -41.1229306 -0.691111E-07  0.251E-03    7.65       9.1  T
   4    -41.1229306 -0.552661E-08  0.840E-04    7.65      27.3  T
   5    -41.1229306 -0.599101E-09  0.231E-04    7.65      99.2  T
speedup  0.97
cpu  time for SCC    0.00 s
wall time for SCC    0.00 s
speedup  0.94
cpu  time for grad    0.01 s
wall time for grad    0.01 s
 E :    -40.90402578  G :  0.001212    pred/act E change: -0.513D-05 -0.448D-05
Maxdispl :   0.0322   ||displ|| :   0.0662   Lambda : -0.949D-05
Largest |displ|/coords:  0.0322 (   1)  0.0253 (   6)  0.0224 (   4)
................................................................................
.............................. CYCLE   64 ......................................
................................................................................
   1    -41.1231564 -0.411232E+02  0.580E-02    7.66       0.0  T
   2    -41.1231567 -0.289521E-06  0.431E-02    7.66       1.0  T
   3    -41.1231569 -0.245925E-06  0.542E-03    7.66       4.2  T
   4    -41.1231570 -0.300548E-07  0.187E-03    7.66      12.3  T
   5    -41.1231570 -0.290890E-08  0.424E-04    7.66      54.1  T
   6    -41.1231570 -0.131031E-09  0.281E-04    7.66      81.6  T
speedup  1.08
cpu  time for SCC    0.00 s
wall time for SCC    0.00 s
speedup  0.98
cpu  time for grad    0.01 s
wall time for grad    0.01 s
 E :    -40.90403084  G :  0.001467    pred/act E change: -0.305D-05 -0.506D-05
Maxdispl :   0.0271   ||displ|| :   0.0702   Lambda : -0.699D-05
Largest |displ|/coords:  0.0271 (   3)  0.0270 (   1)  0.0246 (   5)
................................................................................
.............................. CYCLE   65 ......................................
................................................................................
   1    -41.1226239 -0.411226E+02  0.835E-02    7.66       0.0  T
   2    -41.1226244 -0.562254E-06  0.631E-02    7.66       1.0  T
   3    -41.1226250 -0.591738E-06  0.567E-03    7.67       4.0  T
   4    -41.1226251 -0.458144E-07  0.217E-03    7.67      10.6  T
   5    -41.1226251 -0.286769E-08  0.547E-04    7.67      42.0  T
   6    -41.1226251 -0.173983E-09  0.332E-04    7.67      69.2  T
speedup  1.05
cpu  time for SCC    0.00 s
wall time for SCC    0.00 s
speedup  1.09
cpu  time for grad    0.01 s
wall time for grad    0.01 s
 E :    -40.90403347  G :  0.002399    pred/act E change: -0.477D-05 -0.263D-05
Maxdispl :   0.0059   ||displ|| :   0.0151   Lambda : -0.621D-05
Largest |displ|/coords:  0.0059 (   4)  0.0059 (   3)  0.0055 (  12)
................................................................................
.............................. CYCLE   66 ......................................
................................................................................
   1    -41.1228116 -0.411228E+02  0.106E-02    7.67       0.0  T
   2    -41.1228116 -0.466744E-07  0.798E-03    7.67       2.9  T
   3    -41.1228117 -0.339194E-07  0.164E-03    7.67      14.0  T
   4    -41.1228117 -0.603228E-08  0.533E-04    7.67      43.1  T
   5    -41.1228117 -0.402451E-09  0.159E-04    7.67     144.6  T
speedup  1.29
cpu  time for SCC    0.00 s
wall time for SCC    0.00 s
speedup  1.06
cpu  time for grad    0.01 s
wall time for grad    0.01 s
 E :    -40.90403814  G :  0.001330    pred/act E change: -0.351D-05 -0.468D-05
Maxdispl :   0.0371   ||displ|| :   0.0597   Lambda : -0.897D-05
[...]
cpu  time for grad    0.01 s
wall time for grad    0.01 s
 E :    -40.92442927  G :  0.005613    pred/act E change: -0.529D-04 -0.470D-04
Maxdispl :   0.0878   ||displ|| :   0.1495   Lambda : -0.951D-04
Largest |displ|/coords:  0.0878 (   1)  0.0537 (  16)  0.0399 (  26)
................................................................................
.............................. CYCLE  292 ......................................
................................................................................
   1    -41.1187225 -0.411187E+02  0.142E-01    9.54       0.0  T
   2    -41.1187250 -0.247757E-05  0.107E-01    9.54       1.0  T
   3    -41.1187277 -0.271921E-05  0.127E-02    9.54       1.8  T
   4    -41.1187279 -0.219174E-06  0.383E-03    9.54       6.0  T
   5    -41.1187279 -0.127218E-07  0.154E-03    9.54      14.9  T
   6    -41.1187279 -0.175910E-08  0.825E-04    9.54      27.8  T
speedup  1.08
cpu  time for SCC    0.00 s
wall time for SCC    0.00 s
speedup  0.98
cpu  time for grad    0.01 s
wall time for grad    0.01 s
 E :    -40.92445871  G :  0.007257    pred/act E change: -0.501D-04 -0.294D-04
Maxdispl :   0.0275   ||displ|| :   0.0511   Lambda : -0.749D-04
Largest |displ|/coords:  0.0275 (   1)  0.0136 (   6)  0.0127 (  12)
................................................................................
.............................. CYCLE  293 ......................................
................................................................................
   1    -41.1194708 -0.411195E+02  0.478E-02    9.55       0.0  T
   2    -41.1194719 -0.102953E-05  0.354E-02    9.55       1.0  T
   3    -41.1194726 -0.731204E-06  0.700E-03    9.55       3.3  T
   4    -41.1194727 -0.123645E-06  0.204E-03    9.55      11.3  T
   5    -41.1194727 -0.406929E-08  0.718E-04    9.55      31.9  T
speedup  0.94
cpu  time for SCC    0.00 s
wall time for SCC    0.00 s
speedup  1.03
cpu  time for grad    0.01 s
wall time for grad    0.01 s
 E :    -40.92450068  G :  0.003410    pred/act E change: -0.486D-04 -0.420D-04
Maxdispl :   0.0078   ||displ|| :   0.0211   Lambda : -0.297D-04
Largest |displ|/coords:  0.0078 (   1)  0.0071 (  12)  0.0069 (  11)
................................................................................
.............................. CYCLE  294 ......................................
................................................................................
   1    -41.1197471 -0.411197E+02  0.240E-02    9.56       0.0  T
   2    -41.1197473 -0.209444E-06  0.172E-02    9.56       1.3  T
   3    -41.1197474 -0.117695E-06  0.341E-03    9.56       6.7  T
   4    -41.1197475 -0.182598E-07  0.102E-03    9.56      22.5  T
   5    -41.1197475 -0.922959E-09  0.267E-04    9.56      85.9  T
   6    -41.1197475 -0.136943E-09  0.131E-04    9.56     175.6  T
speedup  1.05
cpu  time for SCC    0.00 s
wall time for SCC    0.00 s
speedup  1.05
cpu  time for grad    0.01 s
wall time for grad    0.01 s
 E :    -40.92451853  G :  0.001809    pred/act E change: -0.376D-04 -0.178D-04
Maxdispl :   0.0376   ||displ|| :   0.0575   Lambda : -0.178D-04
Largest |displ|/coords:  0.0376 (   1)  0.0158 (  16)  0.0152 (   3)
................................................................................
.............................. CYCLE  295 ......................................
................................................................................
   1    -41.1193904 -0.411194E+02  0.514E-02    9.56       0.0  T
   2    -41.1193908 -0.371335E-06  0.388E-02    9.56       1.0  T
   3    -41.1193911 -0.286380E-06  0.446E-03    9.56       5.1  T
   4    -41.1193911 -0.543978E-07  0.187E-03    9.56      12.3  T
   5    -41.1193911 -0.336109E-08  0.534E-04    9.56      43.0  T
   6    -41.1193911 -0.245713E-09  0.314E-04    9.56      73.1  T
speedup  0.79
cpu  time for SCC    0.00 s
wall time for SCC    0.00 s
speedup  0.95
cpu  time for grad    0.01 s
wall time for grad    0.01 s
 E :    -40.92452915  G :  0.001565    pred/act E change: -0.149D-04 -0.106D-04
Maxdispl :   0.0236   ||displ|| :   0.0338   Lambda : -0.673D-05
Largest |displ|/coords:  0.0236 (   1)  0.0091 (   7)  0.0085 (   3)
................................................................................
.............................. CYCLE  296 ......................................
................................................................................
   1    -41.1193844 -0.411194E+02  0.210E-02    9.56       0.0  T
   2    -41.1193845 -0.875330E-07  0.157E-02    9.56       1.5  T
   3    -41.1193845 -0.739384E-07  0.261E-03    9.56       8.8  T
   4    -41.1193846 -0.111950E-07  0.934E-04    9.56      24.6  T
   5    -41.1193846 -0.716156E-09  0.214E-04    9.56     107.4  T
speedup  1.25
cpu  time for SCC    0.00 s
wall time for SCC    0.00 s
speedup  0.98
cpu  time for grad    0.01 s
wall time for grad    0.01 s
 E :    -40.92453355  G :  0.001134    pred/act E change: -0.894D-05 -0.440D-05
Maxdispl :   0.0150   ||displ|| :   0.0256   Lambda : -0.413D-05
Largest |displ|/coords:  0.0150 (   1)  0.0097 (   7)  0.0090 (   6)
................................................................................
.............................. CYCLE  297 ......................................
................................................................................
   1    -41.1194096 -0.411194E+02  0.168E-02    9.56       0.0  T
   2    -41.1194097 -0.514954E-07  0.126E-02    9.56       1.8  T
   3    -41.1194097 -0.555155E-07  0.187E-03    9.56      12.3  T
   4    -41.1194097 -0.472841E-08  0.743E-04    9.56      30.9  T
   5    -41.1194097 -0.452772E-09  0.184E-04    9.56     124.5  T
speedup  0.94
cpu  time for SCC    0.00 s
wall time for SCC    0.00 s
speedup  1.00
cpu  time for grad    0.01 s
wall time for grad    0.01 s
 E :    -40.92453612  G :  0.000892    pred/act E change: -0.337D-05 -0.258D-05
Maxdispl :   0.0062   ||displ|| :   0.0145   Lambda : -0.184D-05
Largest |displ|/coords:  0.0062 (   1)  0.0061 (   6)  0.0059 (   2)
................................................................................
.............................. CYCLE  298 ......................................
................................................................................
   1    -41.1194958 -0.411195E+02  0.836E-03    9.56       0.0  T
   2    -41.1194958 -0.267492E-07  0.611E-03    9.56       3.8  T
   3    -41.1194958 -0.149778E-07  0.135E-03    9.56      17.0  T
   4    -41.1194958 -0.312208E-08  0.494E-04    9.56      46.5  T
   5    -41.1194958 -0.249997E-09  0.110E-04    9.56     208.4  T
speedup  0.97
cpu  time for SCC    0.00 s
wall time for SCC    0.00 s
speedup  1.02
cpu  time for grad    0.01 s
wall time for grad    0.01 s
 E :    -40.92453733  G :  0.000571    pred/act E change: -0.207D-05 -0.120D-05
Maxdispl :   0.0042   ||displ|| :   0.0097   Lambda : -0.872D-06
Largest |displ|/coords:  0.0042 (   2)  0.0037 (   8)  0.0036 (   3)
................................................................................
.............................. CYCLE  299 ......................................
................................................................................
   1    -41.1195246 -0.411195E+02  0.623E-03    9.56       0.0  T
   2    -41.1195246 -0.143076E-07  0.457E-03    9.56       5.0  T
   3    -41.1195246 -0.587952E-08  0.108E-03    9.56      21.2  T
   4    -41.1195246 -0.184160E-08  0.331E-04    9.56      69.4  T
   5    -41.1195246 -0.107221E-09  0.670E-05    9.56     342.5  T
speedup  0.94
cpu  time for SCC    0.00 s
wall time for SCC    0.00 s
speedup  1.00
cpu  time for grad    0.01 s
wall time for grad    0.01 s
 E :    -40.92453791  G :  0.000368    pred/act E change: -0.919D-06 -0.584D-06
Maxdispl :   0.0026   ||displ|| :   0.0054   Lambda : -0.385D-06
Largest |displ|/coords:  0.0026 (   2)  0.0021 (   8)  0.0016 (   4)
................................................................................
.............................. CYCLE  300 ......................................
................................................................................
   1    -41.1195453 -0.411195E+02  0.389E-03    9.56       0.0  T
   2    -41.1195453 -0.442544E-08  0.285E-03    9.56       8.1  T
   3    -41.1195453 -0.155690E-08  0.661E-04    9.56      34.7  T
   4    -41.1195453 -0.624077E-09  0.165E-04    9.56     138.7  T
speedup  1.15
cpu  time for SCC    0.00 s
wall time for SCC    0.00 s
speedup  0.95
cpu  time for grad    0.01 s
wall time for grad    0.01 s
 E :    -40.92453816  G :  0.000195    pred/act E change: -0.436D-06 -0.250D-06
Maxdispl :   0.0015   ||displ|| :   0.0029   Lambda : -0.152D-06
Largest |displ|/coords:  0.0015 (   2)  0.0010 (  14)  0.0009 (   3)
................................................................................
.............................. CYCLE  301 ......................................
................................................................................
   1    -41.1195515 -0.411196E+02  0.258E-03    9.56       0.0  T
   2    -41.1195515 -0.124538E-08  0.190E-03    9.56      12.1  T
   3    -41.1195515 -0.787942E-09  0.356E-04    9.56      64.5  T
   4    -41.1195515 -0.154110E-09  0.869E-05    9.56     264.1  T
speedup  1.15
cpu  time for SCC    0.00 s
wall time for SCC    0.00 s
speedup  1.08
cpu  time for grad    0.01 s
wall time for grad    0.01 s
 E :    -40.92453826  G :  0.000155    pred/act E change: -0.192D-06 -0.102D-06
Maxdispl :   0.0014   ||displ|| :   0.0025   Lambda : -0.869D-07
Largest |displ|/coords:  0.0014 (   2)  0.0011 (   3)  0.0008 (  14)
................................................................................
.............................. CYCLE  302 ......................................
................................................................................
   1    -41.1195544 -0.411196E+02  0.190E-03    9.56       0.0  T
   2    -41.1195544 -0.949072E-09  0.138E-03    9.56      16.7  T
   3    -41.1195544 -0.543849E-09  0.302E-04    9.56      75.9  T
   4    -41.1195544 -0.998952E-10  0.680E-05    9.56     337.5  T
speedup  1.15
cpu  time for SCC    0.00 s
wall time for SCC    0.00 s
speedup  0.95
cpu  time for grad    0.01 s
wall time for grad    0.01 s
 E :    -40.92453832  G :  0.000145    pred/act E change: -0.758D-07 -0.597D-07
Maxdispl :   0.0012   ||displ|| :   0.0021   Lambda : -0.543D-07
Largest |displ|/coords:  0.0012 (   2)  0.0010 (   3)  0.0005 (   6)

   *** GEOMETRY OPTIMIZATION CONVERGED AFTER 302 ITERATIONS ***

------------------------------------------------------------------------
 total energy gain (kcal):     -4.2676
------------------------------------------------------------------------
================
 final structure:
================
$coord
        0.99943704369288        1.45306337558115        2.27754912288674      S 
        2.59854167001829        2.08168323054523        0.12174486849333      O 
       -1.58993345868771        2.29583480744864        1.85334774677645      O 
        1.14397191041530       -1.19407621878360        2.95392093486239      O 
        2.04736210043182        2.98101259617392        4.61769691815549      O 
        1.91697658679290        4.71205685245257        4.13974788085804      H 
       -3.59489153681172       -2.12543981256009        1.09502163384963      O 
       -2.58101962354250       -3.08260364846226        2.26809264736104      H 
       -3.17052626563539       -0.34817249033689        1.49569775307457      H 
       -1.37652676395434       -2.29307716699449       -3.11654167889367      O 
       -2.47565539052491       -2.42285168126444       -1.47669065765383      H 
       -1.28019204322512       -0.35364993012914       -3.48022684549545      H 
       -0.89176263556952        2.43957195467015       -3.29512102582057      O 
        0.63239967830869        2.51556827322339       -2.20908681791064      H 
       -2.20982362605648        3.10944029756216       -2.22956304906413      H 
        2.96234975088098       -2.93485643678020       -1.25870983441939      O 
        3.94136553610791       -1.47005275131264       -1.72535244539509      H 
        2.47399699439318       -2.58879039206874        0.51127028560986      H 
        0.45393007296672       -2.77466089675323       -2.54279747508300      H 
$end
 
 Bond Distances (Angstroems)
 ---------------------------
S1-O2=1.4588         S1-O3=1.4584         S1-O4=1.4478         S1-O5=1.5795         O2-S1=1.4588         O3-S1=1.4584         
O4-S1=1.4478         O5-S1=1.5795         O5-H6=0.9528         H6-O5=0.9528         O7-H8=0.9642         O7-H9=0.9899         
H8-O7=0.9642         H9-O7=0.9899         O10-H11=1.0469       O10-H12=1.0454       O10-H19=1.0466       H11-O10=1.0469       
H12-O10=1.0454       O13-H14=0.9912       O13-H15=0.9644       H14-O13=0.9912       H15-O13=0.9644       O16-H17=0.9645       
O16-H18=0.9887       H17-O16=0.9645       H18-O16=0.9887       H19-O10=1.0466       
 O  H  Rav=0.9955 sigma=0.0355  Rmin=0.9528  Rmax=1.0469    10
 S  O  Rav=1.4861 sigma=0.0541  Rmin=1.4478  Rmax=1.5795     4
 
 selected bond angles (degree)
 --------------------
O3-S1-O2=110.79                O4-S1-O2=112.54                O4-S1-O3=112.55                O5-S1-O2=107.02                
O5-S1-O3=107.10                O5-S1-O4=106.43                H6-O5-S1=104.99                H9-O7-H8=103.59                
H12-O10-H11=104.13             H19-O10-H11=104.94             H19-O10-H12=104.32             
 
 selected dihedral angles (degree)
 ---------------------------------
H6-O5-S1-O2= 60.10            H6-O5-S1-O3=301.25            H6-O5-S1-O4=180.64            
 
 CMA Distance (Angstroems)
 ---------------------------
R(CMA):  2.6950

========================================================================
 FINAL SINGLEPOINT CALCULATION ON OPTIMIZED GEOMETRY
========================================================================

 Ncao       : 52
 Nao        : 51
 Nshell     : 29
 Nel        : 64
 T(el)      :   300.0
 intcut     :    25.0
 scfconv/Eh :  0.100E-05
   qconv/e  :  0.100E-03
 intneglect :  0.100E-07
 broydamp   :      0.250
 iter      E             dE          RMSdq      gap      omega  full diag
   1    -41.1195544 -0.411196E+02  0.282E-05    9.56       0.0  T
   2    -41.1195544 -0.774492E-12  0.190E-05    9.56    1209.6  T
   3    -41.1195544 -0.362377E-12  0.593E-06    9.56    3869.5  T
speedup  1.05
cpu  time for SCC    0.00 s
wall time for SCC    0.00 s

   *** convergence criteria satisfied after 3 iterations ***

          eigenvalues
 #    :          20         21         22         23         24         25         26         27
 occ. :        2.000      2.000      2.000      2.000      2.000      2.000      2.000      2.000
 eps  :       -14.663    -14.659    -14.126    -13.624    -12.994    -12.920    -12.883    -12.660
 #    :          28         29         30         31         32         33         34         35
 occ. :        2.000      2.000      2.000      2.000      2.000      0.000      0.000      0.000
 eps  :       -12.575    -12.571    -12.363    -12.303    -12.110     -2.553     -0.826     -0.684
 #    :          36         37         38         39         40         41         42         43
 occ. :        0.000      0.000      0.000      0.000      0.000      0.000      0.000      0.000
 eps  :         0.732      0.914      2.192      2.235      3.622      4.165      6.437      6.589


   #   Z            q   n(s)   n(p)   n(d)      C6AA      α(0)
   1  16 S      1.675  1.582  1.790  0.953    89.340    15.908
   2   8 O     -0.759  1.775  4.985  0.000    30.373     7.389
   3   8 O     -0.760  1.774  4.985  0.000    30.384     7.390
   4   8 O     -0.728  1.765  4.963  0.000    29.476     7.279
   5   8 O     -0.582  1.750  4.832  0.000    24.732     6.714
   6   1 H      0.345  0.655  0.000  0.000     0.593     1.206
   7   8 O     -0.595  1.743  4.852  0.000    25.046     6.755
   8   1 H      0.317  0.683  0.000  0.000     0.673     1.289
   9   1 H      0.335  0.665  0.000  0.000     0.624     1.241
  10   8 O     -0.509  1.730  4.778  0.000    23.016     6.479
  11   1 H      0.383  0.617  0.000  0.000     0.517     1.129
  12   1 H      0.382  0.618  0.000  0.000     0.518     1.130
  13   8 O     -0.597  1.745  4.852  0.000    25.105     6.763
  14   1 H      0.335  0.665  0.000  0.000     0.625     1.242
  15   1 H      0.315  0.685  0.000  0.000     0.677     1.292
  16   8 O     -0.594  1.743  4.851  0.000    25.023     6.752
  17   1 H      0.317  0.683  0.000  0.000     0.673     1.288
  18   1 H      0.336  0.664  0.000  0.000     0.623     1.240
  19   1 H      0.383  0.617  0.000  0.000     0.517     1.129

 Mol. C6AA /au·bohr⁶  :       3383.132960
 Mol. C8AA /au·bohr⁸  :      76643.069049
 Mol. α(0) /au        :         83.618040

 
 Wiberg/Mayer (AO) data. WBOs > 0.1 written file <wbo>
 largest (>0.05) Wiberg bond orders for each atom
           total WBO             WBO to atom ...
     1  S   4.861    O    4 1.343    O    3 1.294    O    2 1.292    O    5 0.901
     2  O   1.708    S    1 1.292    O    4 0.110    O    3 0.110    H   14 0.075    O    5 0.075
     3  O   1.707    S    1 1.294    O    4 0.110    O    2 0.110    O    5 0.075    H    9 0.072
     4  O   1.744    S    1 1.343    O    2 0.110    O    3 0.110    H   18 0.070    O    5 0.062
     5  O   1.980    S    1 0.901    H    6 0.864    O    3 0.075    O    2 0.075    O    4 0.062
     6  H   0.881    O    5 0.864
     7  O   1.969    H    8 0.889    H    9 0.810    H   11 0.167    O   10 0.061
     8  H   0.900    O    7 0.889
     9  H   0.888    O    7 0.810    O    3 0.072
    10  O   2.242    H   12 0.686    H   19 0.684    H   11 0.683    O    7 0.061    O   16 0.060    O   13 0.060
    11  H   0.854    O   10 0.683    O    7 0.167
    12  H   0.854    O   10 0.686    O   13 0.165
    13  O   1.966    H   15 0.889    H   14 0.807    H   12 0.165    O   10 0.060
    14  H   0.888    O   13 0.807    O    2 0.075
    15  H   0.901    O   13 0.889
    16  O   1.970    H   17 0.888    H   18 0.812    H   19 0.167    O   10 0.060
    17  H   0.900    O   16 0.888
    18  H   0.887    O   16 0.812    O    4 0.070
    19  H   0.853    O   10 0.684    O   16 0.167
 MOs/occ written to file <molden.input>
 
molecular dipole:
                 x           y           z       tot (Debye)
 q only:       -0.392      -0.144      -0.913
   full:        0.002       0.620      -0.014       1.575
molecular quadrupole (traceless):
                xx          xy          yy          xz          yz          zz
 q only:       -2.030       1.838       5.040      -0.331       3.342      -3.010
  q+dip:       -2.122       1.973       6.053      -0.762       3.381      -3.931
   full:       -2.363       2.086       6.272      -0.622       3.571      -3.909

SCC energy    :     -41.1195544
rep           :       0.1949282
ES            :       0.2019828
AES           :      -0.0579684
AXC           :      -0.0103404
disp          :      -0.0146170
XB            :       0.0000000
fix           :       0.0000000
total E       :     -40.9245383
atomizationE  :       3.7187255     2333.54
(atE without considering molecular charge,
 total energy contains solvation terms)
H-L gap (eV)  :          9.5569
optimized geometry written to: xtbopt.xyz


------------------------------------------------------------------------
 * finished run on 2019/09/03 at 09:46:13.695     
------------------------------------------------------------------------
 total:
 * wall-time:     0 d,  0 h,  0 min,  4.341 sec
 *  cpu-time:     0 d,  0 h,  0 min,  4.178 sec
 * ratio c/w:     0.962 speedup
 SCF:
 * wall-time:     0 d,  0 h,  0 min,  0.103 sec
 *  cpu-time:     0 d,  0 h,  0 min,  0.100 sec
 * ratio c/w:     0.968 speedup
 ANC optimizer:
 * wall-time:     0 d,  0 h,  0 min,  4.216 sec
 *  cpu-time:     0 d,  0 h,  0 min,  4.059 sec
 * ratio c/w:     0.963 speedup

