      -----------------------------------------------------------      
     |                   =====================                   |     
     |                           x T B                           |     
     |                   =====================                   |     
     |                         S. Grimme                         |     
     |          Mulliken Center for Theoretical Chemistry        |     
     |                    University of Bonn                     |     
     |                 Version 6.0.1 (SAW181210)                 |     
      -----------------------------------------------------------      

   This program is distributed in the hope that it will be useful,
   but WITHOUT ANY WARRANTY; without even the implied warranty of
   MERCHANTABILITY or FITNESS FOR A PARTICULAR PURPOSE.
   
   FOR NON-COMMERCIAL, ACADEMIA USE ONLY.
   
   Cite this work as:
   S. Grimme, C. Bannwarth, P. Shushkov, J. Comput. Theory Chem., 2017,
   13, 1989-2009.
   C. Bannwarth, S. Ehlert and S. Grimme., ChemRxiv, 2018, preprint.
   http://doi.org/10.26434/chemrxiv.7246238.v1
   
   for sTDA-xTB:
   S. Grimme and C. Bannwarth, J. Chem. Phys., 2016, 145, 054103.
   
   in the mass-spec context:
   V. Asgeirsson, C. Bauer and S. Grimme, Chem. Sci., 2017, 8, 4879.
   
   if GBSA is used:
   P. Shushkov, F. März and S. Grimme, unpublished.
   
   for ANC optimizer:
   S. Grimme, unpublished.
   Rational Function algorithm used in ANCopt:
   F. Eckert, P. Pulay, H.-J. Werner, J. Comput. Chem., 1997, 18, 1473.
   
   with help from (in alphabetical order)
   C. Bannwarth, F. Bohle, G. Brandenburg, E. Caldeweyher, M. Checinski,
   S. Dohm, S. Ehlert, S. Ehrlich, F. März, H. Neugebauer, J. Pisarek,
   P. Pracht, P. Shushkov, and S. Spicher.
   
 * started run on 2019/09/03 at 10:03:58.161     
========================================================================
 # omp threads = 1
========================================================================
number of atoms            : 19
number of electrons        : 64
charge                     : 0
spin                       : .0
first test random number   : .8140

########################################################################
# WARNING! Please study the warnings concerning your input carefully
#  - XTBPATH is not set, using XTBHOME instead
#  - the use of '-opt' is discouraged, please use '--opt' next time
#  - the use of '-chrg' is discouraged, please use '--chrg' next time
#  - the use of '-uhf' is discouraged, please use '--uhf' next time
########################################################################

           ------------------------------------------------- 
          |                 G F N 2 - x T B                 |
          | Geometry, Frequencies, Noncovalent interactions |
          |            JCTC 2018 parametrisation            |
           ------------------------------------------------- 
      method parameters     
 k(s)        :  1.8500
 k(p)        :  2.2300
 k(d)        :  2.2300
 k(f)        :  2.0000
 kEN (H0ij)  : -2.0000
 D4 a1       :  0.5200
 D4 a2       :  5.0000
 D4 s6       :  1.0000
 D4 s8       :  2.7000
 D4 s9       :  5.0000
 alphaj      :  2.0000


            Z     q(EN)     CN     RAES       Cart. coordinates
     1  S   6.0    0.64    4.38    4.37    -0.46595    -0.09955     0.45390
     2  O   6.0   -0.32    1.22    1.80     0.71235    -2.63675     0.13389
     3  O   6.0   -0.30    1.15    1.80     1.13692     1.84486    -0.80236
     4  O   6.0   -0.29    1.16    1.80    -3.02824    -0.10068    -0.71347
     5  O   6.0   -0.25    2.09    1.84    -0.68181     0.48622     3.15996
     6  H   1.0    0.16    1.24    1.47     0.96870     0.48715     3.91290
     7  O   6.0   -0.28    2.03    1.83     0.87557    -4.04140    -4.77003
     8  H   1.0    0.15    0.97    1.43     1.18319    -5.79462    -5.15239
     9  H   1.0    0.17    1.04    1.43     0.97611    -3.91936    -2.95630
    10  O   6.0   -0.27    1.98    1.82     4.04241    -1.72484     4.06409
    11  H   1.0    0.16    1.03    1.43     3.26865    -2.62521     2.68379
    12  H   1.0    0.15    0.97    1.43     5.71536    -2.42621     4.21881
    13  O   6.0   -0.25    1.92    1.82    -4.36185     6.37656     5.53609
    14  H   1.0    0.15    0.97    1.43    -2.65977     6.68834     6.10207
    15  H   1.0    0.15    0.97    1.43    -4.22962     6.10156     3.74124
    16  O   6.0   -0.21    2.92    2.60    -0.95406     0.51226    -5.26154
    17  H   1.0    0.14    1.00    1.43     0.28593     1.64350    -4.44144
    18  H   1.0    0.14    1.04    1.43    -0.23534    -1.17534    -5.61577
    19  H   1.0    0.14    1.01    1.43    -2.54857     0.40351    -4.29345

  Z AO/shell   Hii/eV     exponent
  1     Wed Apr 25 08:07:45 CEST 2018   EN: 2.200 GM2: 0.406  GM3: 0.0800  RAES: 1.40
     1s    -10.707211    1.230000
  8     Wed Apr 25 08:07:45 CEST 2018   EN: 3.440 GM2: 0.452  GM3:-0.0517  RAES: 1.80
     2s    -20.229985    2.439742
     2p    -15.503117    2.137023
 16     Tue Apr 24 11:44:34 CEST 2018   EN: 2.580 GM2: 0.340  GM3:-0.0502  RAES: 3.10
     3s    -20.029654    1.981333
     3p    -11.377694    2.025643
     3d     -0.420282    1.702555
 no old-style atom pair restraining (fixing) potential

molecular fragmentation (1/2 indicates fragments):
1111112222222222222
# atoms in fragment 1/2:     6    13
 fragment masses (1/2) :       97.07       73.07
CMA distance (Bohr)    :   0.829
constraining FC (au)   :  0.0500
           ------------------------------------------------- 
          |        Self-Consistent Charge Iterations        |
           ------------------------------------------------- 

 Ncao       : 52
 Nao        : 51
 Nshell     : 29
 Nel        : 64
 T(el)      :   300.0
 intcut     :    25.0
 scfconv/Eh :  0.100E-05
   qconv/e  :  0.100E-03
 intneglect :  0.100E-07
 broydamp   :      0.250
 iter      E             dE          RMSdq      gap      omega  full diag
   1    -40.9905711 -0.409906E+02  0.774E+00   10.64       0.0  T
   2    -41.0315322 -0.409612E-01  0.559E+00   10.14       1.0  T
   3    -41.0634189 -0.318867E-01  0.146E+00    8.49       1.0  T
   4    -41.0678274 -0.440848E-02  0.639E-01    8.44       1.0  T
   5    -41.0685089 -0.681501E-03  0.345E-01    8.35       1.0  T
   6    -41.0688747 -0.365757E-03  0.154E-01    8.37       1.0  T
   7    -41.0689685 -0.937946E-04  0.579E-02    8.42       1.0  T
   8    -41.0689816 -0.131782E-04  0.308E-02    8.42       1.0  T
   9    -41.0689858 -0.418359E-05  0.114E-02    8.42       2.0  T
  10    -41.0689864 -0.557179E-06  0.268E-03    8.42       8.6  T
  11    -41.0689864 -0.216854E-07  0.103E-03    8.42      22.3  T
  12    -41.0689864 -0.351220E-08  0.501E-04    8.42      45.8  T
  13    -41.0689864 -0.877058E-09  0.114E-04    8.42     201.3  T
speedup  1.03
cpu  time for SCC    0.01 s
wall time for SCC    0.01 s

   *** convergence criteria satisfied after 13 iterations ***

          eigenvalues
 #    :          20         21         22         23         24         25         26         27
 occ. :        2.000      2.000      2.000      2.000      2.000      2.000      2.000      2.000
 eps  :       -13.818    -13.507    -12.940    -12.695    -12.656    -11.934    -11.766    -11.686
 #    :          28         29         30         31         32         33         34         35
 occ. :        2.000      2.000      2.000      2.000      2.000      0.000      0.000      0.000
 eps  :       -11.562    -11.537    -11.013    -10.986    -10.754     -2.339     -1.014      0.208
 #    :          36         37         38         39         40         41         42         43
 occ. :        0.000      0.000      0.000      0.000      0.000      0.000      0.000      0.000
 eps  :         1.311      1.629      2.119      2.415      2.668      4.752      5.411      6.941


   #   Z            q   n(s)   n(p)   n(d)      C6AA      α(0)
   1  16 S      1.575  1.591  1.854  0.979    91.660    16.114
   2   8 O     -0.775  1.779  4.996  0.000    30.848     7.447
   3   8 O     -0.777  1.778  4.998  0.000    30.885     7.451
   4   8 O     -0.746  1.771  4.975  0.000    29.998     7.343
   5   8 O     -0.543  1.715  4.829  0.000    23.841     6.592
   6   1 H      0.385  0.615  0.000  0.000     0.505     1.112
   7   8 O     -0.623  1.726  4.897  0.000    25.736     6.847
   8   1 H      0.298  0.702  0.000  0.000     0.726     1.338
   9   1 H      0.336  0.664  0.000  0.000     0.623     1.240
  10   8 O     -0.609  1.741  4.869  0.000    25.413     6.804
  11   1 H      0.311  0.689  0.000  0.000     0.688     1.303
  12   1 H      0.285  0.715  0.000  0.000     0.769     1.378
  13   8 O     -0.566  1.741  4.825  0.000    24.384     6.665
  14   1 H      0.281  0.719  0.000  0.000     0.782     1.389
  15   1 H      0.285  0.715  0.000  0.000     0.767     1.376
  16   8 O     -0.384  1.624  4.760  0.000    20.488     6.113
  17   1 H      0.419  0.581  0.000  0.000     0.452     1.056
  18   1 H      0.428  0.572  0.000  0.000     0.436     1.037
  19   1 H      0.421  0.579  0.000  0.000     0.448     1.052

 Mol. C6AA /au·bohr⁶  :       3381.889693
 Mol. C8AA /au·bohr⁸  :      76751.232195
 Mol. α(0) /au        :         83.656304

 
 Wiberg/Mayer (AO) data. WBOs > 0.1 written file <wbo>
 largest (>0.05) Wiberg bond orders for each atom
           total WBO             WBO to atom ...
     1  S   4.924    O    4 1.327    O    3 1.289    O    2 1.257    O    5 1.024
     2  O   1.671    S    1 1.257    O    3 0.112    O    4 0.110    O    5 0.075
     3  O   1.650    S    1 1.289    O    4 0.116    O    2 0.112    O    5 0.076
     4  O   1.687    S    1 1.327    O    3 0.116    O    2 0.110    O    5 0.057
     5  O   2.055    S    1 1.024    H    6 0.810    O    3 0.076    O    2 0.075    O    4 0.057
     6  H   0.852    O    5 0.810
     7  O   1.853    H    8 0.899    H    9 0.834    H   18 0.070
     8  H   0.911    O    7 0.899
     9  H   0.887    O    7 0.834
    10  O   1.823    H   12 0.913    H   11 0.870
    11  H   0.903    O   10 0.870
    12  H   0.919    O   10 0.913
    13  O   1.839    H   14 0.921    H   15 0.918
    14  H   0.921    O   13 0.921
    15  H   0.919    O   13 0.918
    16  O   2.361    H   17 0.781    H   19 0.773    H   18 0.740
    17  H   0.825    O   16 0.781
    18  H   0.816    O   16 0.740    O    7 0.070
    19  H   0.823    O   16 0.773
 MOs/occ written to file <molden.input>
 
molecular dipole:
                 x           y           z       tot (Debye)
 q only:        0.977      -0.364      -2.849
   full:        1.485      -0.737      -2.295       7.196
molecular quadrupole (traceless):
                xx          xy          yy          xz          yz          zz
 q only:      -11.414      -0.004      -1.057      12.030      -1.166      12.472
  q+dip:      -10.795       0.288       4.133      14.331      -1.764       6.662
   full:      -10.799       0.200       3.655      14.656      -1.338       7.144

SCC energy    :     -41.0689864
rep           :       0.2162995
ES            :       0.2534455
AES           :      -0.0496299
AXC           :      -0.0113317
disp          :      -0.0114785
XB            :       0.0000000
fix           :       0.0000000
total E       :     -40.8526449
atomizationE  :       3.6468321     2288.42
(atE without considering molecular charge,
 total energy contains solvation terms)
H-L gap (eV)  :          8.4155
           ------------------------------------------------- 
          |                 ===============                 |
          |                   A N C O P T                   |
          |                 ===============                 |
          |          Approximate Normal Coordinate          |
          |           Rational Function Optimizer           |
           ------------------------------------------------- 
dumping coords to <xtbopt.coord> and <xtbopt.log>
 optlevel               2
 Maxcycle             380
 Maxmicro              25
 Econv         1.000000000000000E-007
 Gconv         2.000000000000000E-004
 Maxdispl       1.00000000000000     
 Hlow          5.000000000000000E-003
 S6             20.0000000000000     
 Nvar               51

generating ANC from model Hessian ...
 Shifting diagonal of input Hessian by   5.088732075487831E-003
 Lowest  eigenvalues of input Hessian
    0.005000    0.005047   -0.000000   -0.000000   -0.000000   -0.000000
    0.000000    0.000000    0.005163    0.005228    0.005302    0.005477
    0.005547    0.005644    0.006208    0.006865    0.007132    0.008149
 Highest eigenvalues
    1.453881    1.541997    1.552589    3.132500    3.206942    3.308895
 
cpu  time for ANC gen    0.00 s
wall time for ANC gen    0.00 s
................................................................................
.............................. CYCLE    1 ......................................
................................................................................
   1    -41.0689864 -0.410690E+02  0.831E-05    8.42       0.0  T
   2    -41.0689864 -0.895994E-11  0.657E-05    8.42     349.3  T
   3    -41.0689864 -0.130314E-10  0.271E-05    8.42     846.3  T
speedup  1.00
cpu  time for SCC    0.00 s
wall time for SCC    0.00 s
speedup  0.97
cpu  time for grad    0.01 s
wall time for grad    0.01 s
 E :    -40.85264488  G :  0.134541    pred/act E change:  0.000D+00  0.342D-07
Maxdispl :   0.2989   ||displ|| :   0.5201   Lambda : -0.232D-01
Largest |displ|/coords:  0.2989 (  20)  0.2662 (  22)  0.1643 (  16)
................................................................................
.............................. CYCLE    2 ......................................
................................................................................
   1    -41.0814972 -0.410815E+02  0.468E-01    8.92       0.0  T
   2    -41.0816091 -0.111924E-03  0.351E-01    8.98       1.0  T
   3    -41.0816660 -0.568669E-04  0.101E-01    9.08       1.0  T
   4    -41.0816781 -0.120994E-04  0.192E-02    9.08       1.2  T
   5    -41.0816790 -0.917748E-06  0.799E-03    9.07       2.9  T
   6    -41.0816791 -0.110466E-06  0.482E-03    9.07       4.8  T
   7    -41.0816792 -0.880539E-07  0.226E-03    9.07      10.2  T
speedup  1.11
cpu  time for SCC    0.01 s
wall time for SCC    0.00 s
speedup  1.06
cpu  time for grad    0.01 s
wall time for grad    0.01 s
 E :    -40.87307179  G :  0.088267    pred/act E change:  0.000D+00 -0.204D-01
Maxdispl :   0.3704   ||displ|| :   0.5567   Lambda : -0.172D-01
Largest |displ|/coords:  0.3704 (  20)  0.2636 (  22)  0.1755 (  16)
................................................................................
.............................. CYCLE    3 ......................................
................................................................................
   1    -41.0870580 -0.410871E+02  0.496E-01    9.20       0.0  T
   2    -41.0874371 -0.379129E-03  0.364E-01    9.24       1.0  T
   3    -41.0876089 -0.171760E-03  0.132E-01    9.26       1.0  T
   4    -41.0876322 -0.233514E-04  0.220E-02    9.24       1.0  T
   5    -41.0876332 -0.989629E-06  0.117E-02    9.24       2.0  T
   6    -41.0876335 -0.269365E-06  0.637E-03    9.24       3.6  T
   7    -41.0876337 -0.151676E-06  0.306E-03    9.25       7.5  T
   8    -41.0876337 -0.457267E-07  0.871E-04    9.25      26.3  T
speedup  1.02
cpu  time for SCC    0.01 s
wall time for SCC    0.00 s
speedup  1.02
cpu  time for grad    0.01 s
wall time for grad    0.01 s
 E :    -40.88621475  G :  0.050953    pred/act E change: -0.147D-01 -0.131D-01
Maxdispl :   0.2250   ||displ|| :   0.4056   Lambda : -0.577D-02
Largest |displ|/coords:  0.2250 (  20)  0.1498 (  19)  0.1389 (  16)
................................................................................
.............................. CYCLE    4 ......................................
................................................................................
   1    -41.0861516 -0.410862E+02  0.403E-01    9.08       0.0  T
   2    -41.0864424 -0.290762E-03  0.295E-01    9.04       1.0  T
   3    -41.0865647 -0.122315E-03  0.112E-01    8.96       1.0  T
   4    -41.0865816 -0.169111E-04  0.195E-02    8.95       1.2  T
   5    -41.0865824 -0.781624E-06  0.889E-03    8.95       2.6  T
   6    -41.0865825 -0.132624E-06  0.479E-03    8.95       4.8  T
   7    -41.0865826 -0.757302E-07  0.223E-03    8.95      10.3  T
speedup  1.14
cpu  time for SCC    0.00 s
wall time for SCC    0.00 s
speedup  0.97
cpu  time for grad    0.01 s
wall time for grad    0.01 s
 E :    -40.88944411  G :  0.033216    pred/act E change: -0.113D-01 -0.323D-02
Maxdispl :   0.2471   ||displ|| :   0.3671   Lambda : -0.249D-02
Largest |displ|/coords:  0.2471 (  14)  0.1202 (  19)  0.1022 (  11)
................................................................................
.............................. CYCLE    5 ......................................
................................................................................
   1    -41.0851083 -0.410851E+02  0.308E-01    8.85       0.0  T
   2    -41.0851699 -0.615929E-04  0.234E-01    8.86       1.0  T
   3    -41.0851904 -0.204565E-04  0.617E-02    8.88       1.0  T
   4    -41.0851989 -0.854534E-05  0.183E-02    8.88       1.3  T
   5    -41.0851996 -0.624886E-06  0.394E-03    8.87       5.8  T
   6    -41.0851996 -0.122907E-07  0.178E-03    8.87      12.9  T
speedup  1.03
cpu  time for SCC    0.00 s
wall time for SCC    0.00 s
speedup  1.02
cpu  time for grad    0.01 s
wall time for grad    0.01 s
 E :    -40.89041679  G :  0.028080    pred/act E change: -0.336D-02 -0.973D-03
Maxdispl :   0.2285   ||displ|| :   0.4112   Lambda : -0.255D-02
Largest |displ|/coords:  0.2285 (  14)  0.1765 (   3)  0.1451 (   4)
................................................................................
.............................. CYCLE    6 ......................................
................................................................................
   1    -41.0906324 -0.410906E+02  0.514E-01    8.94       0.0  T
   2    -41.0907486 -0.116239E-03  0.391E-01    8.89       1.0  T
   3    -41.0908134 -0.647275E-04  0.730E-02    8.79       1.0  T
   4    -41.0908309 -0.174840E-04  0.261E-02    8.83       1.0  T
   5    -41.0908323 -0.142796E-05  0.584E-03    8.85       3.9  T
   6    -41.0908323 -0.117883E-07  0.311E-03    8.85       7.4  T
speedup  1.08
cpu  time for SCC    0.00 s
wall time for SCC    0.00 s
speedup  1.05
cpu  time for grad    0.01 s
wall time for grad    0.01 s
 E :    -40.89001538  G :  0.038358    pred/act E change: -0.141D-02  0.401D-03
Maxdispl :   0.1523   ||displ|| :   0.2898   Lambda : -0.313D-02
Largest |displ|/coords:  0.1523 (   3)  0.0978 (  11)  0.0930 (  13)
................................................................................
.............................. CYCLE    7 ......................................
................................................................................
   1    -41.0942165 -0.410942E+02  0.448E-01    8.80       0.0  T
   2    -41.0943020 -0.854228E-04  0.337E-01    8.82       1.0  T
   3    -41.0943528 -0.508284E-04  0.611E-02    8.88       1.0  T
   4    -41.0943656 -0.128271E-04  0.101E-02    8.86       2.3  T
   5    -41.0943658 -0.153362E-06  0.504E-03    8.86       4.5  T
   6    -41.0943658 -0.111727E-07  0.229E-03    8.86      10.0  T
speedup  1.08
cpu  time for SCC    0.00 s
wall time for SCC    0.00 s
speedup  1.02
cpu  time for grad    0.01 s
wall time for grad    0.01 s
 E :    -40.89066803  G :  0.026762    pred/act E change: -0.149D-02 -0.653D-03
Maxdispl :   0.2470   ||displ|| :   0.4010   Lambda : -0.309D-02
Largest |displ|/coords:  0.2470 (   3)  0.1495 (  15)  0.1346 (  13)
................................................................................
.............................. CYCLE    8 ......................................
................................................................................
   1    -41.0762690 -0.410763E+02  0.614E-01    8.70       0.0  T
   2    -41.0764629 -0.193881E-03  0.458E-01    8.79       1.0  T
   3    -41.0765519 -0.890540E-04  0.105E-01    8.95       1.0  T
   4    -41.0765771 -0.251634E-04  0.225E-02    8.90       1.0  T
   5    -41.0765786 -0.148676E-05  0.586E-03    8.88       3.9  T
   6    -41.0765786 -0.233586E-07  0.390E-03    8.88       5.9  T
speedup  1.05
cpu  time for SCC    0.00 s
wall time for SCC    0.00 s
speedup  1.02
cpu  time for grad    0.01 s
wall time for grad    0.01 s
 E :    -40.88858769  G :  0.067627    pred/act E change: -0.169D-02  0.208D-02
Maxdispl :   0.2589   ||displ|| :   0.4592   Lambda : -0.135D-01
Largest |displ|/coords:  0.2589 (   3)  0.1682 (  13)  0.1639 (   6)
................................................................................
.............................. CYCLE    9 ......................................
................................................................................
   1    -41.0991123 -0.410991E+02  0.773E-01    9.12       0.0  T
   2    -41.0994636 -0.351267E-03  0.576E-01    9.01       1.0  T
   3    -41.0996605 -0.196962E-03  0.131E-01    8.78       1.0  T
   4    -41.0997023 -0.417532E-04  0.253E-02    8.88       1.0  T
   5    -41.0997036 -0.129492E-05  0.108E-02    8.89       2.1  T
   6    -41.0997036 -0.375033E-07  0.554E-03    8.90       4.1  T
   7    -41.0997036 -0.317030E-07  0.105E-03    8.89      21.8  T
speedup  0.93
cpu  time for SCC    0.00 s
wall time for SCC    0.00 s
speedup  0.97
cpu  time for grad    0.01 s
wall time for grad    0.01 s
 E :    -40.88987873  G :  0.053449    pred/act E change: -0.179D-02 -0.129D-02
Maxdispl :   0.1268   ||displ|| :   0.3111   Lambda : -0.547D-02
Largest |displ|/coords:  0.1268 (  18)  0.1242 (  11)  0.1170 (  13)
................................................................................
.............................. CYCLE   10 ......................................
................................................................................
   1    -41.0898448 -0.410898E+02  0.456E-01    8.80       0.0  T
   2    -41.0899378 -0.929567E-04  0.341E-01    8.83       1.0  T
   3    -41.0899918 -0.539806E-04  0.685E-02    8.90       1.0  T
   4    -41.0900034 -0.116505E-04  0.196E-02    8.88       1.2  T
   5    -41.0900041 -0.738936E-06  0.554E-03    8.87       4.1  T
   6    -41.0900042 -0.192710E-07  0.341E-03    8.87       6.7  T
speedup  1.11
cpu  time for SCC    0.00 s
wall time for SCC    0.00 s
speedup  1.05
cpu  time for grad    0.01 s
wall time for grad    0.01 s
 E :    -40.89151876  G :  0.030380    pred/act E change: -0.816D-02 -0.164D-02
Maxdispl :   0.0846   ||displ|| :   0.1984   Lambda : -0.170D-02
Largest |displ|/coords:  0.0846 (  10)  0.0683 (   7)  0.0682 (  18)
................................................................................
.............................. CYCLE   11 ......................................
................................................................................
   1    -41.0926575 -0.410927E+02  0.205E-01    8.88       0.0  T
   2    -41.0926785 -0.210571E-04  0.152E-01    8.89       1.0  T
   3    -41.0926911 -0.125613E-04  0.315E-02    8.90       1.0  T
   4    -41.0926936 -0.255507E-05  0.750E-03    8.90       3.1  T
   5    -41.0926937 -0.723270E-07  0.320E-03    8.89       7.2  T
   6    -41.0926937 -0.863957E-08  0.173E-03    8.89      13.3  T
speedup  0.81
cpu  time for SCC    0.00 s
wall time for SCC    0.00 s
speedup  0.92
cpu  time for grad    0.01 s
wall time for grad    0.01 s
 E :    -40.89211939  G :  0.015338    pred/act E change: -0.300D-02 -0.601D-03
Maxdispl :   0.1125   ||displ|| :   0.2433   Lambda : -0.848D-03
Largest |displ|/coords:  0.1125 (   4)  0.0991 (  15)  0.0813 (   9)
................................................................................
.............................. CYCLE   12 ......................................
................................................................................
   1    -41.0934720 -0.410935E+02  0.215E-01    8.87       0.0  T
   2    -41.0934942 -0.222445E-04  0.163E-01    8.86       1.0  T
   3    -41.0935052 -0.109261E-04  0.326E-02    8.83       1.0  T
   4    -41.0935087 -0.357744E-05  0.121E-02    8.84       1.9  T
   5    -41.0935089 -0.184792E-06  0.328E-03    8.84       7.0  T
   6    -41.0935089 -0.125481E-07  0.180E-03    8.84      12.8  T
   7    -41.0935089 -0.500057E-08  0.535E-04    8.84      42.9  T
speedup  0.91
cpu  time for SCC    0.00 s
wall time for SCC    0.00 s
speedup  0.97
cpu  time for grad    0.01 s
wall time for grad    0.01 s
 E :    -40.89231203  G :  0.017068    pred/act E change: -0.882D-03 -0.193D-03
Maxdispl :   0.1138   ||displ|| :   0.2161   Lambda : -0.774D-03
Largest |displ|/coords:  0.1138 (   4)  0.0946 (   5)  0.0745 (   8)
................................................................................
.............................. CYCLE   13 ......................................
................................................................................
   1    -41.0919851 -0.410920E+02  0.198E-01    8.81       0.0  T
   2    -41.0919929 -0.781831E-05  0.150E-01    8.81       1.0  T
   3    -41.0919983 -0.539717E-05  0.204E-02    8.81       1.1  T
   4    -41.0919995 -0.116444E-05  0.798E-03    8.81       2.9  T
   5    -41.0919995 -0.673177E-07  0.223E-03    8.81      10.3  T
   6    -41.0919995 -0.258756E-08  0.128E-03    8.81      18.0  T
speedup  1.08
cpu  time for SCC    0.00 s
wall time for SCC    0.00 s
speedup  1.05
cpu  time for grad    0.01 s
wall time for grad    0.01 s
 E :    -40.89281533  G :  0.018996    pred/act E change: -0.449D-03 -0.503D-03
Maxdispl :   0.2857   ||displ|| :   0.4768   Lambda : -0.155D-02
Largest |displ|/coords:  0.2857 (   4)  0.1429 (  10)  0.1379 (   8)
................................................................................
.............................. CYCLE   14 ......................................
................................................................................
   1    -41.0902057 -0.410902E+02  0.412E-01    8.76       0.0  T
   2    -41.0902906 -0.848486E-04  0.314E-01    8.76       1.0  T
   3    -41.0903262 -0.356080E-04  0.666E-02    8.74       1.0  T
   4    -41.0903411 -0.148713E-04  0.233E-02    8.74       1.0  T
   5    -41.0903419 -0.794249E-06  0.622E-03    8.74       3.7  T
   6    -41.0903419 -0.348125E-07  0.344E-03    8.74       6.7  T
   7    -41.0903419 -0.184334E-07  0.951E-04    8.74      24.1  T
   8    -41.0903419 -0.166946E-08  0.275E-04    8.74      83.5  T
speedup  1.02
cpu  time for SCC    0.00 s
wall time for SCC    0.00 s
speedup  1.01
cpu  time for grad    0.01 s
wall time for grad    0.01 s
 E :    -40.89345237  G :  0.034365    pred/act E change: -0.405D-03 -0.637D-03
Maxdispl :   0.2637   ||displ|| :   0.3511   Lambda : -0.146D-02
Largest |displ|/coords:  0.2637 (   4)  0.1194 (  22)  0.1023 (   5)
................................................................................
.............................. CYCLE   15 ......................................
................................................................................
   1    -41.0949394 -0.410949E+02  0.206E-01    8.77       0.0  T
   2    -41.0949934 -0.539649E-04  0.158E-01    8.75       1.0  T
   3    -41.0950185 -0.250662E-04  0.524E-02    8.71       1.0  T
   4    -41.0950249 -0.645862E-05  0.172E-02    8.71       1.3  T
   5    -41.0950253 -0.409375E-06  0.503E-03    8.72       4.6  T
   6    -41.0950253 -0.226149E-07  0.249E-03    8.72       9.2  T
speedup  1.08
cpu  time for SCC    0.00 s
wall time for SCC    0.00 s
speedup  1.05
cpu  time for grad    0.01 s
wall time for grad    0.01 s
 E :    -40.89481739  G :  0.029772    pred/act E change: -0.950D-03 -0.137D-02
Maxdispl :   0.4839   ||displ|| :   0.7317   Lambda : -0.465D-02
Largest |displ|/coords:  0.4839 (   4)  0.3242 (  22)  0.1819 (  21)
................................................................................
.............................. CYCLE   16 ......................................
................................................................................
   1    -41.1139992 -0.411140E+02  0.530E-01    8.75       0.0  T
   2    -41.1144654 -0.466210E-03  0.401E-01    8.69       1.0  T
   3    -41.1147053 -0.239875E-03  0.151E-01    8.57       1.0  T
   4    -41.1147449 -0.396372E-04  0.446E-02    8.57       1.0  T
   5    -41.1147480 -0.307964E-05  0.144E-02    8.58       1.6  T
   6    -41.1147482 -0.173825E-06  0.755E-03    8.58       3.0  T
   7    -41.1147482 -0.453998E-07  0.181E-03    8.58      12.7  T
   8    -41.1147482 -0.951579E-08  0.615E-04    8.58      37.3  T
speedup  1.02
cpu  time for SCC    0.01 s
wall time for SCC    0.00 s
speedup  1.01
cpu  time for grad    0.01 s
wall time for grad    0.01 s
 E :    -40.89786275  G :  0.040355    pred/act E change: -0.818D-03 -0.305D-02
Maxdispl :   0.4359   ||displ|| :   0.7238   Lambda : -0.396D-02
Largest |displ|/coords:  0.4359 (   4)  0.2886 (   5)  0.2838 (  22)
................................................................................
.............................. CYCLE   17 ......................................
................................................................................
   1    -41.1142551 -0.411143E+02  0.558E-01    8.56       0.0  T
   2    -41.1145060 -0.250883E-03  0.422E-01    8.52       1.0  T
   3    -41.1146443 -0.138278E-03  0.116E-01    8.44       1.0  T
   4    -41.1146766 -0.322797E-04  0.309E-02    8.44       1.0  T
   5    -41.1146781 -0.156275E-05  0.129E-02    8.44       1.8  T
   6    -41.1146783 -0.114519E-06  0.659E-03    8.44       3.5  T
   7    -41.1146783 -0.622816E-07  0.163E-03    8.44      14.1  T
   8    -41.1146783 -0.391223E-08  0.477E-04    8.44      48.1  T
speedup  0.98
cpu  time for SCC    0.01 s
wall time for SCC    0.01 s
speedup  0.99
cpu  time for grad    0.01 s
wall time for grad    0.01 s
 E :    -40.89925712  G :  0.049105    pred/act E change: -0.357D-02 -0.139D-02
Maxdispl :   0.3021   ||displ|| :   0.5111   Lambda : -0.988D-02
Largest |displ|/coords:  0.3021 (  20)  0.2048 (   9)  0.1500 (  16)
................................................................................
.............................. CYCLE   18 ......................................
................................................................................
   1    -41.0938409 -0.410938E+02  0.655E-01    8.51       0.0  T
   2    -41.0942168 -0.375839E-03  0.482E-01    8.56       1.0  T
   3    -41.0944491 -0.232299E-03  0.148E-01    8.67       1.0  T
   4    -41.0944822 -0.331305E-04  0.461E-02    8.66       1.0  T
   5    -41.0944848 -0.257753E-05  0.136E-02    8.66       1.7  T
   6    -41.0944851 -0.311913E-06  0.830E-03    8.66       2.8  T
   7    -41.0944852 -0.930763E-07  0.249E-03    8.66       9.2  T
   8    -41.0944852 -0.106275E-07  0.851E-04    8.66      26.9  T
speedup  1.04
cpu  time for SCC    0.00 s
wall time for SCC    0.00 s
speedup  1.02
cpu  time for grad    0.01 s
wall time for grad    0.01 s
 E :    -40.88948606  G :  0.106468    pred/act E change: -0.301D-02  0.977D-02
Maxdispl :   0.2769   ||displ|| :   0.5939   Lambda : -0.371D-01
Largest |displ|/coords:  0.2769 (   9)  0.2555 (  20)  0.1744 (   5)
................................................................................
.............................. CYCLE   19 ......................................
................................................................................
   1    -41.1249052 -0.411249E+02  0.832E-01    8.39       0.0  T
   2    -41.1253963 -0.491106E-03  0.614E-01    8.32       1.0  T
   3    -41.1257753 -0.379072E-03  0.180E-01    8.19       1.0  T
   4    -41.1258154 -0.400625E-04  0.501E-02    8.22       1.0  T
   5    -41.1258185 -0.309782E-05  0.186E-02    8.22       1.2  T
   6    -41.1258188 -0.255233E-06  0.924E-03    8.22       2.5  T
   7    -41.1258189 -0.108573E-06  0.269E-03    8.22       8.5  T
   8    -41.1258189 -0.783965E-08  0.790E-04    8.22      29.0  T
speedup  1.04
cpu  time for SCC    0.00 s
wall time for SCC    0.00 s
speedup  1.02
cpu  time for grad    0.01 s
wall time for grad    0.01 s
 E :    -40.89665672  G :  0.094306    pred/act E change: -0.623D-02 -0.717D-02
Maxdispl :   0.2133   ||displ|| :   0.3970   Lambda : -0.195D-01
Largest |displ|/coords:  0.2133 (  12)  0.1465 (  20)  0.1184 (  21)
................................................................................
.............................. CYCLE   20 ......................................
................................................................................
   1    -41.1048964 -0.411049E+02  0.633E-01    8.30       0.0  T
   2    -41.1051907 -0.294291E-03  0.469E-01    8.34       1.0  T
   3    -41.1054003 -0.209608E-03  0.133E-01    8.43       1.0  T
   4    -41.1054267 -0.263830E-04  0.356E-02    8.41       1.0  T
   5    -41.1054282 -0.149526E-05  0.115E-02    8.41       2.0  T
   6    -41.1054284 -0.174017E-06  0.709E-03    8.41       3.2  T
   7    -41.1054284 -0.591866E-07  0.165E-03    8.41      13.9  T
   8    -41.1054284 -0.566799E-08  0.480E-04    8.41      47.8  T
speedup  1.00
cpu  time for SCC    0.00 s
wall time for SCC    0.00 s
speedup  1.01
cpu  time for grad    0.01 s
wall time for grad    0.01 s
 E :    -40.89776220  G :  0.071194    pred/act E change: -0.251D-01 -0.111D-02
Maxdispl :   0.3197   ||displ|| :   0.4712   Lambda : -0.159D-01
Largest |displ|/coords:  0.3197 (  12)  0.1610 (  17)  0.1087 (  21)
................................................................................
.............................. CYCLE   21 ......................................
................................................................................
   1    -41.1208219 -0.411208E+02  0.808E-01    8.37       0.0  T
   2    -41.1211873 -0.365434E-03  0.614E-01    8.36       1.0  T
   3    -41.1214468 -0.259456E-03  0.144E-01    8.32       1.0  T
   4    -41.1214924 -0.456436E-04  0.450E-02    8.32       1.0  T
   5    -41.1214948 -0.243787E-05  0.150E-02    8.32       1.5  T
   6    -41.1214950 -0.116997E-06  0.736E-03    8.32       3.1  T
   7    -41.1214950 -0.771328E-07  0.171E-03    8.32      13.4  T
   8    -41.1214950 -0.676689E-08  0.703E-04    8.32      32.6  T
speedup  0.82
cpu  time for SCC    0.00 s
wall time for SCC    0.00 s
speedup  0.92
cpu  time for grad    0.01 s
wall time for grad    0.01 s
 E :    -40.89713985  G :  0.106660    pred/act E change: -0.113D-01  0.622D-03
Maxdispl :   0.2064   ||displ|| :   0.4059   Lambda : -0.161D-01
Largest |displ|/coords:  0.2064 (  12)  0.1317 (  13)  0.1200 (  15)
................................................................................
.............................. CYCLE   22 ......................................
................................................................................
   1    -41.1172500 -0.411173E+02  0.692E-01    8.36       0.0  T
   2    -41.1175019 -0.251939E-03  0.523E-01    8.33       1.0  T
   3    -41.1176685 -0.166503E-03  0.112E-01    8.27       1.0  T
   4    -41.1177011 -0.326713E-04  0.346E-02    8.30       1.0  T
   5    -41.1177029 -0.181075E-05  0.107E-02    8.31       2.1  T
   6    -41.1177030 -0.944326E-07  0.668E-03    8.31       3.4  T
   7    -41.1177031 -0.562794E-07  0.154E-03    8.31      14.9  T
   8    -41.1177031 -0.477138E-08  0.628E-04    8.31      36.5  T
speedup  0.98
cpu  time for SCC    0.00 s
wall time for SCC    0.01 s
speedup  0.89
cpu  time for grad    0.01 s
wall time for grad    0.01 s
 E :    -40.89997547  G :  0.062847    pred/act E change: -0.969D-02 -0.284D-02
Maxdispl :   0.1524   ||displ|| :   0.3579   Lambda : -0.843D-02
Largest |displ|/coords:  0.1524 (   7)  0.1344 (  10)  0.1285 (   8)
................................................................................
.............................. CYCLE   23 ......................................
................................................................................
   1    -41.1167754 -0.411168E+02  0.507E-01    8.29       0.0  T
   2    -41.1169589 -0.183534E-03  0.378E-01    8.34       1.0  T
   3    -41.1170654 -0.106475E-03  0.924E-02    8.43       1.0  T
   4    -41.1170865 -0.211262E-04  0.256E-02    8.39       1.0  T
   5    -41.1170876 -0.109172E-05  0.932E-03    8.38       2.5  T
   6    -41.1170876 -0.529500E-07  0.529E-03    8.38       4.3  T
   7    -41.1170877 -0.285469E-07  0.118E-03    8.38      19.5  T
speedup  1.14
cpu  time for SCC    0.01 s
wall time for SCC    0.00 s
speedup  1.05
cpu  time for grad    0.01 s
wall time for grad    0.01 s
 E :    -40.90078661  G :  0.055628    pred/act E change: -0.938D-02 -0.811D-03
Maxdispl :   0.1671   ||displ|| :   0.3436   Lambda : -0.630D-02
Largest |displ|/coords:  0.1671 (   7)  0.1594 (  10)  0.1355 (   4)
................................................................................
.............................. CYCLE   24 ......................................
................................................................................
   1    -41.1211003 -0.411211E+02  0.411E-01    8.37       0.0  T
   2    -41.1211937 -0.933915E-04  0.304E-01    8.31       1.0  T
   3    -41.1212530 -0.593411E-04  0.648E-02    8.20       1.0  T
   4    -41.1212633 -0.102708E-04  0.167E-02    8.24       1.4  T
   5    -41.1212636 -0.372356E-06  0.753E-03    8.25       3.0  T
   6    -41.1212637 -0.261888E-07  0.353E-03    8.25       6.5  T
   7    -41.1212637 -0.189672E-07  0.725E-04    8.25      31.6  T
speedup  1.14
cpu  time for SCC    0.01 s
wall time for SCC    0.00 s
speedup  1.06
cpu  time for grad    0.01 s
wall time for grad    0.01 s
 E :    -40.90190354  G :  0.040977    pred/act E change: -0.475D-02 -0.112D-02
Maxdispl :   0.0944   ||displ|| :   0.1891   Lambda : -0.211D-02
Largest |displ|/coords:  0.0944 (   4)  0.0891 (  17)  0.0700 (   8)
................................................................................
.............................. CYCLE   25 ......................................
................................................................................
   1    -41.1205186 -0.411205E+02  0.211E-01    8.21       0.0  T
   2    -41.1205311 -0.124660E-04  0.159E-01    8.22       1.0  T
   3    -41.1205411 -0.100169E-04  0.232E-02    8.26       1.0  T
   4    -41.1205427 -0.160310E-05  0.606E-03    8.24       3.8  T
   5    -41.1205427 -0.228330E-07  0.311E-03    8.24       7.4  T
   6    -41.1205427 -0.823866E-08  0.113E-03    8.24      20.3  T
speedup  0.81
cpu  time for SCC    0.00 s
wall time for SCC    0.00 s
speedup  0.91
cpu  time for grad    0.01 s
wall time for grad    0.01 s
 E :    -40.90304756  G :  0.011433    pred/act E change: -0.352D-02 -0.114D-02
Maxdispl :   0.1965   ||displ|| :   0.2492   Lambda : -0.523D-03
Largest |displ|/coords:  0.1965 (   4)  0.0809 (   1)  0.0662 (   2)

generating ANC from model Hessian ...
 Shifting diagonal of input Hessian by   5.204860775559646E-003
 Lowest  eigenvalues of input Hessian
    0.005000    0.005159   -0.000000   -0.000000   -0.000000   -0.000000
    0.000000    0.000000    0.005270    0.005531    0.005585    0.005697
    0.006061    0.006243    0.006617    0.006931    0.007313    0.008041
 Highest eigenvalues
    1.409224    1.420396    1.442643    2.590893    3.241040    3.840074
 
cpu  time for ANC gen    0.00 s
wall time for ANC gen    0.00 s
................................................................................
.............................. CYCLE   26 ......................................
................................................................................
   1    -41.1206803 -0.411207E+02  0.128E-01    8.19       0.0  T
   2    -41.1206867 -0.644346E-05  0.967E-02    8.18       1.0  T
   3    -41.1206900 -0.332464E-05  0.176E-02    8.18       1.3  T
   4    -41.1206910 -0.102934E-05  0.648E-03    8.18       3.5  T
   5    -41.1206911 -0.500843E-07  0.168E-03    8.18      13.7  T
   6    -41.1206911 -0.187022E-08  0.107E-03    8.18      21.4  T
   7    -41.1206911 -0.126968E-08  0.260E-04    8.18      88.3  T
   8    -41.1206911 -0.111726E-09  0.737E-05    8.18     311.1  T
speedup  0.98
cpu  time for SCC    0.00 s
wall time for SCC    0.01 s
speedup  0.96
cpu  time for grad    0.01 s
wall time for grad    0.01 s
 E :    -40.90337602  G :  0.014709    pred/act E change:  0.000D+00 -0.328D-03
Maxdispl :   0.2723   ||displ|| :   0.3679   Lambda : -0.160D-02
Largest |displ|/coords:  0.2723 (   3)  0.0966 (  16)  0.0942 (  13)
................................................................................
.............................. CYCLE   27 ......................................
................................................................................
   1    -41.1160509 -0.411161E+02  0.650E-01    8.05       0.0  T
   2    -41.1161035 -0.526693E-04  0.496E-01    8.08       1.0  T
   3    -41.1161546 -0.510393E-04  0.387E-02    8.15       1.0  T
   4    -41.1161601 -0.553031E-05  0.134E-02    8.14       1.7  T
   5    -41.1161603 -0.236885E-06  0.464E-03    8.13       4.9  T
   6    -41.1161603 -0.709427E-09  0.233E-03    8.13       9.8  T
   7    -41.1161603 -0.762302E-08  0.453E-04    8.13      50.7  T
speedup  0.93
cpu  time for SCC    0.00 s
wall time for SCC    0.00 s
speedup  1.08
cpu  time for grad    0.01 s
wall time for grad    0.01 s
 E :    -40.90387288  G :  0.031085    pred/act E change:  0.000D+00 -0.497D-03
Maxdispl :   0.2032   ||displ|| :   0.3693   Lambda : -0.270D-02
Largest |displ|/coords:  0.2032 (   3)  0.1335 (  16)  0.1333 (  13)
................................................................................
.............................. CYCLE   28 ......................................
................................................................................
   1    -41.1208884 -0.411209E+02  0.510E-01    8.21       0.0  T
   2    -41.1209728 -0.844054E-04  0.387E-01    8.16       1.0  T
   3    -41.1210224 -0.495860E-04  0.607E-02    8.04       1.0  T
   4    -41.1210364 -0.139999E-04  0.159E-02    8.09       1.4  T
   5    -41.1210369 -0.549572E-06  0.514E-03    8.10       4.5  T
   6    -41.1210370 -0.642507E-08  0.296E-03    8.10       7.7  T
speedup  1.00
cpu  time for SCC    0.00 s
wall time for SCC    0.00 s
speedup  1.00
cpu  time for grad    0.01 s
wall time for grad    0.01 s
 E :    -40.90443311  G :  0.019889    pred/act E change: -0.909D-03 -0.560D-03
Maxdispl :   0.1033   ||displ|| :   0.2030   Lambda : -0.100D-02
Largest |displ|/coords:  0.1033 (  10)  0.0738 (  17)  0.0611 (   9)
................................................................................
.............................. CYCLE   29 ......................................
................................................................................
   1    -41.1233644 -0.411234E+02  0.224E-01    8.09       0.0  T
   2    -41.1233737 -0.937426E-05  0.169E-01    8.10       1.0  T
   3    -41.1233815 -0.776131E-05  0.207E-02    8.11       1.1  T
   4    -41.1233827 -0.119135E-05  0.736E-03    8.11       3.1  T
   5    -41.1233828 -0.808745E-07  0.249E-03    8.10       9.2  T
   6    -41.1233828 -0.270560E-08  0.144E-03    8.10      16.0  T
speedup  1.08
cpu  time for SCC    0.00 s
wall time for SCC    0.00 s
speedup  1.02
cpu  time for grad    0.01 s
wall time for grad    0.01 s
 E :    -40.90494676  G :  0.007048    pred/act E change: -0.153D-02 -0.514D-03
Maxdispl :   0.1395   ||displ|| :   0.2813   Lambda : -0.591D-03
Largest |displ|/coords:  0.1395 (   9)  0.1121 (   2)  0.0981 (   1)
................................................................................
.............................. CYCLE   30 ......................................
................................................................................
   1    -41.1199578 -0.411200E+02  0.279E-01    8.05       0.0  T
   2    -41.1199697 -0.119087E-04  0.212E-01    8.06       1.0  T
   3    -41.1199817 -0.120083E-04  0.205E-02    8.08       1.1  T
   4    -41.1199830 -0.127057E-05  0.640E-03    8.07       3.6  T
   5    -41.1199830 -0.277924E-07  0.296E-03    8.07       7.8  T
   6    -41.1199830 -0.668046E-08  0.137E-03    8.07      16.8  T
speedup  1.05
cpu  time for SCC    0.00 s
wall time for SCC    0.00 s
speedup  1.01
cpu  time for grad    0.01 s
wall time for grad    0.01 s
 E :    -40.90531649  G :  0.013271    pred/act E change: -0.522D-03 -0.370D-03
Maxdispl :   0.1434   ||displ|| :   0.2889   Lambda : -0.445D-03
Largest |displ|/coords:  0.1434 (   2)  0.1383 (   7)  0.1137 (   1)
................................................................................
.............................. CYCLE   31 ......................................
................................................................................
   1    -41.1199016 -0.411199E+02  0.199E-01    8.04       0.0  T
   2    -41.1199094 -0.779758E-05  0.151E-01    8.05       1.0  T
   3    -41.1199161 -0.671014E-05  0.177E-02    8.07       1.3  T
   4    -41.1199172 -0.104905E-05  0.554E-03    8.06       4.1  T
   5    -41.1199172 -0.264489E-07  0.218E-03    8.06      10.5  T
   6    -41.1199172 -0.334627E-08  0.125E-03    8.06      18.3  T
speedup  1.05
cpu  time for SCC    0.00 s
wall time for SCC    0.00 s
speedup  1.01
cpu  time for grad    0.01 s
wall time for grad    0.01 s
 E :    -40.90558816  G :  0.015309    pred/act E change: -0.319D-03 -0.272D-03
Maxdispl :   0.2271   ||displ|| :   0.3846   Lambda : -0.598D-03
Largest |displ|/coords:  0.2271 (   2)  0.1862 (   7)  0.1643 (   1)
................................................................................
.............................. CYCLE   32 ......................................
................................................................................
   1    -41.1210387 -0.411210E+02  0.231E-01    8.08       0.0  T
   2    -41.1210506 -0.119431E-04  0.175E-01    8.07       1.0  T
   3    -41.1210612 -0.105032E-04  0.232E-02    8.05       1.0  T
   4    -41.1210627 -0.152406E-05  0.875E-03    8.06       2.6  T
   5    -41.1210628 -0.826900E-07  0.285E-03    8.06       8.0  T
   6    -41.1210628 -0.662459E-08  0.169E-03    8.06      13.6  T
speedup  0.81
cpu  time for SCC    0.00 s
wall time for SCC    0.00 s
speedup  0.91
cpu  time for grad    0.01 s
wall time for grad    0.01 s
 E :    -40.90594724  G :  0.010658    pred/act E change: -0.241D-03 -0.359D-03
Maxdispl :   0.3480   ||displ|| :   0.4843   Lambda : -0.665D-03
Largest |displ|/coords:  0.3480 (   2)  0.1890 (   7)  0.1611 (   1)
................................................................................
.............................. CYCLE   33 ......................................
................................................................................
   1    -41.1218809 -0.411219E+02  0.276E-01    8.04       0.0  T
   2    -41.1219090 -0.280686E-04  0.207E-01    8.03       1.0  T
   3    -41.1219284 -0.193720E-04  0.357E-02    8.01       1.0  T
   4    -41.1219323 -0.394471E-05  0.861E-03    8.02       2.7  T
   5    -41.1219324 -0.720875E-07  0.458E-03    8.02       5.0  T
   6    -41.1219324 -0.209738E-07  0.221E-03    8.02      10.4  T
   7    -41.1219324 -0.730966E-08  0.549E-04    8.02      41.8  T
speedup  1.14
cpu  time for SCC    0.00 s
wall time for SCC    0.00 s
speedup  1.05
cpu  time for grad    0.01 s
wall time for grad    0.01 s
 E :    -40.90628452  G :  0.020550    pred/act E change: -0.343D-03 -0.337D-03
Maxdispl :   0.4002   ||displ|| :   0.4575   Lambda : -0.803D-03
Largest |displ|/coords:  0.4002 (   2)  0.1366 (   1)  0.1033 (   7)
................................................................................
.............................. CYCLE   34 ......................................
................................................................................
   1    -41.1240895 -0.411241E+02  0.172E-01    7.96       0.0  T
   2    -41.1240955 -0.598313E-05  0.129E-01    7.97       1.0  T
   3    -41.1241017 -0.624898E-05  0.172E-02    7.97       1.3  T
   4    -41.1241022 -0.494954E-06  0.586E-03    7.97       3.9  T
   5    -41.1241022 -0.371200E-07  0.215E-03    7.97      10.7  T
speedup  0.97
cpu  time for SCC    0.00 s
wall time for SCC    0.00 s
speedup  0.98
cpu  time for grad    0.01 s
wall time for grad    0.01 s
 E :    -40.90680236  G :  0.018989    pred/act E change: -0.410D-03 -0.518D-03
Maxdispl :   0.5676   ||displ|| :   0.6469   Lambda : -0.127D-02
Largest |displ|/coords:  0.5676 (   2)  0.1604 (   7)  0.1522 (   4)
................................................................................
.............................. CYCLE   35 ......................................
................................................................................
   1    -41.1176412 -0.411176E+02  0.327E-01    7.88       0.0  T
   2    -41.1176608 -0.195164E-04  0.247E-01    7.89       1.0  T
   3    -41.1176808 -0.200543E-04  0.289E-02    7.93       1.0  T
   4    -41.1176829 -0.210434E-05  0.825E-03    7.91       2.8  T
   5    -41.1176830 -0.580357E-07  0.428E-03    7.91       5.4  T
   6    -41.1176830 -0.198290E-07  0.172E-03    7.91      13.4  T
   7    -41.1176830 -0.595000E-08  0.459E-04    7.91      50.0  T
speedup  0.93
cpu  time for SCC    0.00 s
wall time for SCC    0.00 s
speedup  1.04
cpu  time for grad    0.01 s
wall time for grad    0.01 s
 E :    -40.90769643  G :  0.017505    pred/act E change: -0.486D-03 -0.894D-03
Maxdispl :   0.5443   ||displ|| :   0.6269   Lambda : -0.142D-02
Largest |displ|/coords:  0.5443 (   2)  0.1955 (   7)  0.1082 (   5)
................................................................................
.............................. CYCLE   36 ......................................
................................................................................
   1    -41.1178540 -0.411179E+02  0.258E-01    7.89       0.0  T
   2    -41.1178698 -0.158281E-04  0.194E-01    7.89       1.0  T
   3    -41.1178872 -0.173390E-04  0.281E-02    7.89       1.0  T
   4    -41.1178887 -0.155361E-05  0.807E-03    7.89       2.8  T
   5    -41.1178888 -0.779146E-07  0.414E-03    7.89       5.5  T
   6    -41.1178888 -0.238731E-07  0.164E-03    7.89      14.0  T
   7    -41.1178888 -0.332001E-08  0.396E-04    7.89      58.0  T
speedup  0.93
cpu  time for SCC    0.00 s
wall time for SCC    0.00 s
speedup  0.95
cpu  time for grad    0.01 s
wall time for grad    0.01 s
 E :    -40.90847499  G :  0.027739    pred/act E change: -0.903D-03 -0.779D-03
Maxdispl :   0.4648   ||displ|| :   0.5450   Lambda : -0.178D-02
Largest |displ|/coords:  0.4648 (   2)  0.1343 (   7)  0.1217 (   3)
................................................................................
.............................. CYCLE   37 ......................................
................................................................................
   1    -41.1220884 -0.411221E+02  0.310E-01    7.96       0.0  T
   2    -41.1221161 -0.276885E-04  0.234E-01    7.92       1.0  T
   3    -41.1221347 -0.185869E-04  0.365E-02    7.83       1.0  T
   4    -41.1221388 -0.408384E-05  0.112E-02    7.86       2.1  T
   5    -41.1221389 -0.154510E-06  0.366E-03    7.87       6.3  T
   6    -41.1221389 -0.705475E-08  0.213E-03    7.87      10.8  T
speedup  1.05
cpu  time for SCC    0.00 s
wall time for SCC    0.00 s
speedup  1.01
cpu  time for grad    0.01 s
wall time for grad    0.01 s
 E :    -40.90948009  G :  0.020927    pred/act E change: -0.989D-03 -0.101D-02
Maxdispl :   0.3935   ||displ|| :   0.5259   Lambda : -0.151D-02
Largest |displ|/coords:  0.3935 (   2)  0.1815 (   8)  0.1549 (   7)
................................................................................
.............................. CYCLE   38 ......................................
................................................................................
   1    -41.1276711 -0.411277E+02  0.219E-01    7.84       0.0  T
   2    -41.1276869 -0.158375E-04  0.162E-01    7.81       1.0  T
   3    -41.1276954 -0.845376E-05  0.283E-02    7.75       1.0  T
   4    -41.1276976 -0.225027E-05  0.569E-03    7.76       4.0  T
   5    -41.1276977 -0.473741E-07  0.302E-03    7.76       7.6  T
speedup  0.97
cpu  time for SCC    0.00 s
wall time for SCC    0.00 s
speedup  0.96
cpu  time for grad    0.01 s
wall time for grad    0.01 s
 E :    -40.91026335  G :  0.019829    pred/act E change: -0.116D-02 -0.783D-03
Maxdispl :   0.3218   ||displ|| :   0.4388   Lambda : -0.967D-03
Largest |displ|/coords:  0.3218 (   2)  0.2255 (   7)  0.1258 (   9)
................................................................................
.............................. CYCLE   39 ......................................
................................................................................
   1    -41.1248284 -0.411248E+02  0.174E-01    7.73       0.0  T
   2    -41.1248354 -0.701354E-05  0.131E-01    7.72       1.0  T
   3    -41.1248416 -0.624560E-05  0.189E-02    7.68       1.2  T
   4    -41.1248425 -0.911612E-06  0.743E-03    7.68       3.1  T
   5    -41.1248426 -0.703505E-07  0.265E-03    7.68       8.6  T
   6    -41.1248426 -0.615084E-08  0.134E-03    7.69      17.1  T
speedup  1.05
cpu  time for SCC    0.00 s
wall time for SCC    0.00 s
speedup  1.00
cpu  time for grad    0.01 s
wall time for grad    0.01 s
 E :    -40.91058034  G :  0.012157    pred/act E change: -0.966D-03 -0.317D-03
Maxdispl :   0.3070   ||displ|| :   0.5002   Lambda : -0.941D-03
Largest |displ|/coords:  0.3070 (   1)  0.2446 (   2)  0.1408 (   7)
................................................................................
.............................. CYCLE   40 ......................................
................................................................................
   1    -41.1320435 -0.411320E+02  0.333E-01    7.95       0.0  T
   2    -41.1320879 -0.444684E-04  0.246E-01    7.97       1.0  T
   3    -41.1321168 -0.288990E-04  0.510E-02    8.03       1.0  T
   4    -41.1321222 -0.532184E-05  0.167E-02    8.01       1.4  T
   5    -41.1321225 -0.381653E-06  0.515E-03    8.00       4.5  T
   6    -41.1321226 -0.262795E-07  0.308E-03    8.00       7.4  T
   7    -41.1321226 -0.141417E-07  0.971E-04    8.00      23.6  T
   8    -41.1321226 -0.107344E-08  0.221E-04    8.00     104.0  T
speedup  0.98
cpu  time for SCC    0.00 s
wall time for SCC    0.01 s
speedup  1.07
cpu  time for grad    0.01 s
wall time for grad    0.01 s
 E :    -40.91025366  G :  0.027472    pred/act E change: -0.577D-03  0.327D-03
Maxdispl :   0.2369   ||displ|| :   0.3712   Lambda : -0.189D-02
Largest |displ|/coords:  0.2369 (   2)  0.1401 (   1)  0.0953 (  19)
................................................................................
.............................. CYCLE   41 ......................................
................................................................................
   1    -41.1224560 -0.411225E+02  0.360E-01    7.73       0.0  T
   2    -41.1225108 -0.547644E-04  0.268E-01    7.73       1.0  T
   3    -41.1225436 -0.328023E-04  0.515E-02    7.74       1.0  T
   4    -41.1225507 -0.707683E-05  0.137E-02    7.73       1.7  T
   5    -41.1225509 -0.243415E-06  0.494E-03    7.73       4.6  T
   6    -41.1225510 -0.288518E-07  0.298E-03    7.73       7.7  T
speedup  0.79
cpu  time for SCC    0.00 s
wall time for SCC    0.00 s
speedup  1.00
cpu  time for grad    0.01 s
wall time for grad    0.01 s
 E :    -40.91036320  G :  0.024488    pred/act E change: -0.588D-03 -0.110D-03
Maxdispl :   0.1084   ||displ|| :   0.2434   Lambda : -0.196D-02
Largest |displ|/coords:  0.1084 (  10)  0.0872 (  12)  0.0824 (   6)
................................................................................
.............................. CYCLE   42 ......................................
................................................................................
   1    -41.1248671 -0.411249E+02  0.316E-01    7.69       0.0  T
   2    -41.1248920 -0.249017E-04  0.237E-01    7.67       1.0  T
   3    -41.1249052 -0.131711E-04  0.381E-02    7.63       1.0  T
   4    -41.1249089 -0.370027E-05  0.927E-03    7.65       2.5  T
   5    -41.1249091 -0.166634E-06  0.307E-03    7.65       7.5  T
   6    -41.1249091 -0.226881E-08  0.170E-03    7.65      13.5  T
speedup  0.79
cpu  time for SCC    0.00 s
wall time for SCC    0.00 s
speedup  0.96
cpu  time for grad    0.01 s
wall time for grad    0.01 s
 E :    -40.91090408  G :  0.012439    pred/act E change: -0.108D-02 -0.541D-03
Maxdispl :   0.1056   ||displ|| :   0.2345   Lambda : -0.598D-03
Largest |displ|/coords:  0.1056 (   2)  0.1002 (   9)  0.0985 (   1)
................................................................................
.............................. CYCLE   43 ......................................
................................................................................
   1    -41.1251403 -0.411251E+02  0.174E-01    7.74       0.0  T
   2    -41.1251484 -0.811107E-05  0.130E-01    7.74       1.0  T
   3    -41.1251548 -0.637477E-05  0.227E-02    7.75       1.0  T
   4    -41.1251558 -0.996254E-06  0.795E-03    7.74       2.9  T
   5    -41.1251559 -0.883941E-07  0.253E-03    7.74       9.1  T
   6    -41.1251559 -0.498329E-08  0.148E-03    7.74      15.5  T
speedup  1.08
cpu  time for SCC    0.00 s
wall time for SCC    0.00 s
speedup  1.01
cpu  time for grad    0.01 s
wall time for grad    0.01 s
 E :    -40.91111752  G :  0.010777    pred/act E change: -0.104D-02 -0.213D-03
Maxdispl :   0.0543   ||displ|| :   0.0958   Lambda : -0.190D-03
Largest |displ|/coords:  0.0543 (  11)  0.0378 (  12)  0.0337 (   9)
................................................................................
.............................. CYCLE   44 ......................................
................................................................................
   1    -41.1267388 -0.411267E+02  0.803E-02    7.76       0.0  T
   2    -41.1267414 -0.253585E-05  0.601E-02    7.76       1.0  T
   3    -41.1267431 -0.168629E-05  0.109E-02    7.78       2.1  T
   4    -41.1267434 -0.345257E-06  0.258E-03    7.78       8.9  T
   5    -41.1267434 -0.654663E-08  0.121E-03    7.78      18.9  T
speedup  0.94
cpu  time for SCC    0.00 s
wall time for SCC    0.00 s
speedup  0.95
cpu  time for grad    0.01 s
wall time for grad    0.01 s
 E :    -40.91116666  G :  0.007417    pred/act E change: -0.316D-03 -0.491D-04
Maxdispl :   0.0712   ||displ|| :   0.0977   Lambda : -0.117D-03
Largest |displ|/coords:  0.0712 (   2)  0.0311 (   6)  0.0308 (   1)
................................................................................
.............................. CYCLE   45 ......................................
................................................................................
   1    -41.1251101 -0.411251E+02  0.575E-02    7.75       0.0  T
   2    -41.1251110 -0.828350E-06  0.430E-02    7.75       1.0  T
   3    -41.1251116 -0.657134E-06  0.645E-03    7.75       3.6  T
   4    -41.1251117 -0.103127E-06  0.192E-03    7.75      11.9  T
   5    -41.1251117 -0.363678E-08  0.824E-04    7.75      27.8  T
speedup  1.21
cpu  time for SCC    0.00 s
wall time for SCC    0.00 s
speedup  1.06
cpu  time for grad    0.01 s
wall time for grad    0.01 s
 E :    -40.91122460  G :  0.003968    pred/act E change: -0.960D-04 -0.579D-04
Maxdispl :   0.0985   ||displ|| :   0.1388   Lambda : -0.892D-04
Largest |displ|/coords:  0.0985 (   2)  0.0575 (   9)  0.0496 (   4)
................................................................................
.............................. CYCLE   46 ......................................
................................................................................
   1    -41.1244671 -0.411245E+02  0.897E-02    7.73       0.0  T
   2    -41.1244679 -0.832905E-06  0.677E-02    7.73       1.0  T
   3    -41.1244688 -0.945837E-06  0.548E-03    7.72       4.2  T
   4    -41.1244689 -0.780660E-07  0.262E-03    7.72       8.7  T
   5    -41.1244689 -0.767306E-08  0.935E-04    7.72      24.5  T
   6    -41.1244689 -0.914333E-09  0.468E-04    7.72      49.1  T
speedup  1.08
cpu  time for SCC    0.00 s
wall time for SCC    0.00 s
speedup  0.98
cpu  time for grad    0.01 s
wall time for grad    0.01 s
 E :    -40.91127102  G :  0.007039    pred/act E change: -0.590D-04 -0.464D-04
Maxdispl :   0.0882   ||displ|| :   0.1526   Lambda : -0.102D-03
Largest |displ|/coords:  0.0882 (   2)  0.0732 (   4)  0.0555 (   6)
................................................................................
.............................. CYCLE   47 ......................................
................................................................................
   1    -41.1245520 -0.411246E+02  0.836E-02    7.75       0.0  T
   2    -41.1245529 -0.895645E-06  0.632E-02    7.75       1.0  T
   3    -41.1245539 -0.975183E-06  0.621E-03    7.75       3.7  T
   4    -41.1245539 -0.917913E-07  0.323E-03    7.75       7.1  T
   5    -41.1245540 -0.863675E-08  0.838E-04    7.75      27.4  T
   6    -41.1245540 -0.615969E-09  0.506E-04    7.75      45.3  T
speedup  1.08
cpu  time for SCC    0.00 s
wall time for SCC    0.00 s
speedup  1.01
cpu  time for grad    0.01 s
wall time for grad    0.01 s
 E :    -40.91135440  G :  0.006231    pred/act E change: -0.455D-04 -0.834D-04
Maxdispl :   0.2537   ||displ|| :   0.4155   Lambda : -0.244D-03
Largest |displ|/coords:  0.2537 (   2)  0.2126 (   4)  0.1366 (   6)
................................................................................
.............................. CYCLE   48 ......................................
................................................................................
   1    -41.1259698 -0.411260E+02  0.201E-01    7.82       0.0  T
   2    -41.1259752 -0.540307E-05  0.152E-01    7.82       1.0  T
   3    -41.1259796 -0.439886E-05  0.161E-02    7.82       1.4  T
   4    -41.1259803 -0.781128E-06  0.698E-03    7.82       3.3  T
   5    -41.1259804 -0.464770E-07  0.194E-03    7.82      11.8  T
   6    -41.1259804 -0.295102E-08  0.115E-03    7.82      20.0  T
speedup  0.81
cpu  time for SCC    0.00 s
wall time for SCC    0.00 s
speedup  1.01
cpu  time for grad    0.01 s
wall time for grad    0.01 s
 E :    -40.91151857  G :  0.005298    pred/act E change: -0.521D-04 -0.164D-03
Maxdispl :   0.2618   ||displ|| :   0.4677   Lambda : -0.220D-03
Largest |displ|/coords:  0.2618 (   4)  0.2213 (   2)  0.1502 (   6)
................................................................................
.............................. CYCLE   49 ......................................
................................................................................
   1    -41.1217524 -0.411218E+02  0.297E-01    7.78       0.0  T
   2    -41.1217627 -0.103140E-04  0.225E-01    7.80       1.0  T
   3    -41.1217715 -0.881377E-05  0.197E-02    7.83       1.2  T
   4    -41.1217729 -0.137357E-05  0.812E-03    7.82       2.8  T
   5    -41.1217730 -0.855361E-07  0.286E-03    7.81       8.0  T
   6    -41.1217730 -0.368058E-08  0.155E-03    7.81      14.8  T
speedup  1.08
cpu  time for SCC    0.00 s
wall time for SCC    0.00 s
speedup  1.01
cpu  time for grad    0.01 s
wall time for grad    0.01 s
 E :    -40.91152090  G :  0.015853    pred/act E change: -0.143D-03 -0.233D-05
Maxdispl :   0.0724   ||displ|| :   0.1041   Lambda : -0.320D-03
Largest |displ|/coords:  0.0724 (   7)  0.0443 (   5)  0.0356 (   8)
................................................................................
.............................. CYCLE   50 ......................................
................................................................................
   1    -41.1260480 -0.411260E+02  0.860E-02    7.84       0.0  T
   2    -41.1260526 -0.459264E-05  0.629E-02    7.82       1.0  T
   3    -41.1260548 -0.223325E-05  0.139E-02    7.79       1.7  T
   4    -41.1260553 -0.465034E-06  0.245E-03    7.80       9.4  T
   5    -41.1260553 -0.722408E-08  0.108E-03    7.80      21.2  T
speedup  0.94
cpu  time for SCC    0.00 s
wall time for SCC    0.00 s
speedup  1.07
cpu  time for grad    0.01 s
wall time for grad    0.01 s
 E :    -40.91167135  G :  0.006268    pred/act E change: -0.134D-03 -0.150D-03
Maxdispl :   0.0731   ||displ|| :   0.1534   Lambda : -0.118D-03
Largest |displ|/coords:  0.0731 (   4)  0.0663 (   2)  0.0643 (   1)
................................................................................
.............................. CYCLE   51 ......................................
................................................................................
   1    -41.1257353 -0.411257E+02  0.122E-01    7.81       0.0  T
   2    -41.1257379 -0.263017E-05  0.917E-02    7.81       1.0  T
   3    -41.1257400 -0.207915E-05  0.117E-02    7.81       2.0  T
   4    -41.1257404 -0.338455E-06  0.284E-03    7.81       8.1  T
   5    -41.1257404 -0.111111E-07  0.125E-03    7.81      18.3  T
speedup  1.29
cpu  time for SCC    0.00 s
wall time for SCC    0.00 s
speedup  1.08
cpu  time for grad    0.01 s
wall time for grad    0.01 s
 E :    -40.91172668  G :  0.008859    pred/act E change: -0.162D-03 -0.553D-04
Maxdispl :   0.1512   ||displ|| :   0.2705   Lambda : -0.144D-03
Largest |displ|/coords:  0.1512 (   1)  0.1220 (   4)  0.1063 (   2)
................................................................................
.............................. CYCLE   52 ......................................
................................................................................
   1    -41.1259730 -0.411260E+02  0.171E-01    7.81       0.0  T
   2    -41.1259765 -0.352323E-05  0.129E-01    7.81       1.0  T
   3    -41.1259797 -0.321903E-05  0.125E-02    7.82       1.8  T
   4    -41.1259802 -0.413138E-06  0.495E-03    7.82       4.6  T
   5    -41.1259802 -0.203236E-07  0.146E-03    7.82      15.7  T
   6    -41.1259802 -0.123756E-08  0.850E-04    7.82      27.0  T
speedup  0.81
cpu  time for SCC    0.00 s
wall time for SCC    0.00 s
speedup  0.90
cpu  time for grad    0.01 s
wall time for grad    0.01 s
 E :    -40.91183113  G :  0.006439    pred/act E change: -0.604D-04 -0.104D-03
Maxdispl :   0.2401   ||displ|| :   0.3497   Lambda : -0.189D-03
Largest |displ|/coords:  0.2401 (   1)  0.1440 (   4)  0.0801 (   2)

generating ANC from model Hessian ...
 Shifting diagonal of input Hessian by   5.030317852863833E-003
 Lowest  eigenvalues of input Hessian
    0.005000   -0.000000   -0.000000   -0.000000    0.000000    0.000000
    0.000000    0.005396    0.005472    0.005520    0.005906    0.006215
    0.006574    0.007152    0.007987    0.008944    0.010877    0.011088
 Highest eigenvalues
    1.398968    1.411116    1.418277    2.641181    3.244276    3.802571
 
cpu  time for ANC gen    0.01 s
wall time for ANC gen    0.01 s
................................................................................
.............................. CYCLE   53 ......................................
................................................................................
   1    -41.1246485 -0.411246E+02  0.236E-01    7.80       0.0  T
   2    -41.1246531 -0.454927E-05  0.178E-01    7.81       1.0  T
   3    -41.1246581 -0.504028E-05  0.158E-02    7.81       1.5  T
   4    -41.1246584 -0.344228E-06  0.803E-03    7.81       2.9  T
   5    -41.1246585 -0.308859E-07  0.187E-03    7.81      12.3  T
   6    -41.1246585 -0.188627E-08  0.121E-03    7.81      18.9  T
   7    -41.1246585 -0.112610E-08  0.176E-04    7.81     130.3  T
   8    -41.1246585 -0.727809E-10  0.869E-05    7.81     264.0  T
speedup  1.02
cpu  time for SCC    0.00 s
wall time for SCC    0.00 s
speedup  0.96
cpu  time for grad    0.01 s
wall time for grad    0.01 s
 E :    -40.91191776  G :  0.009892    pred/act E change:  0.000D+00 -0.866D-04
Maxdispl :   0.1103   ||displ|| :   0.1783   Lambda : -0.361D-03
Largest |displ|/coords:  0.1103 (   4)  0.0781 (   3)  0.0709 (   5)
................................................................................
.............................. CYCLE   54 ......................................
................................................................................
   1    -41.1250541 -0.411251E+02  0.329E-01    7.82       0.0  T
   2    -41.1250627 -0.857886E-05  0.251E-01    7.82       1.0  T
   3    -41.1250742 -0.114869E-04  0.107E-02    7.84       2.1  T
   4    -41.1250744 -0.157917E-06  0.499E-03    7.84       4.6  T
   5    -41.1250744 -0.364872E-08  0.172E-03    7.84      13.3  T
   6    -41.1250744 -0.172675E-08  0.462E-04    7.84      49.7  T
speedup  1.08
cpu  time for SCC    0.00 s
wall time for SCC    0.00 s
speedup  0.99
cpu  time for grad    0.01 s
wall time for grad    0.01 s
 E :    -40.91208103  G :  0.009493    pred/act E change:  0.000D+00 -0.163D-03
Maxdispl :   0.1211   ||displ|| :   0.2382   Lambda : -0.479D-03
Largest |displ|/coords:  0.1211 (   7)  0.1108 (   2)  0.0765 (   8)
................................................................................
.............................. CYCLE   55 ......................................
................................................................................
   1    -41.1268932 -0.411269E+02  0.315E-01    7.88       0.0  T
   2    -41.1269023 -0.913549E-05  0.238E-01    7.87       1.0  T
   3    -41.1269110 -0.873275E-05  0.188E-02    7.84       1.2  T
   4    -41.1269120 -0.934643E-06  0.589E-03    7.85       3.9  T
   5    -41.1269120 -0.296315E-07  0.268E-03    7.86       8.6  T
   6    -41.1269120 -0.171689E-08  0.118E-03    7.86      19.5  T
speedup  1.05
cpu  time for SCC    0.00 s
wall time for SCC    0.00 s
speedup  1.00
cpu  time for grad    0.01 s
wall time for grad    0.01 s
 E :    -40.91223585  G :  0.011623    pred/act E change: -0.186D-03 -0.155D-03
Maxdispl :   0.0647   ||displ|| :   0.1167   Lambda : -0.262D-03
Largest |displ|/coords:  0.0647 (   4)  0.0594 (   1)  0.0312 (  13)
................................................................................
.............................. CYCLE   56 ......................................
................................................................................
   1    -41.1277891 -0.411278E+02  0.146E-01    7.87       0.0  T
   2    -41.1277932 -0.408187E-05  0.110E-01    7.87       1.0  T
   3    -41.1277961 -0.290313E-05  0.138E-02    7.88       1.7  T
   4    -41.1277967 -0.559828E-06  0.440E-03    7.88       5.2  T
   5    -41.1277967 -0.386850E-07  0.142E-03    7.88      16.2  T
   6    -41.1277967 -0.514795E-09  0.819E-04    7.88      28.0  T
speedup  1.08
cpu  time for SCC    0.00 s
wall time for SCC    0.00 s
speedup  1.01
cpu  time for grad    0.01 s
wall time for grad    0.01 s
 E :    -40.91236582  G :  0.004881    pred/act E change: -0.253D-03 -0.130D-03
Maxdispl :   0.1181   ||displ|| :   0.1998   Lambda : -0.169D-03
Largest |displ|/coords:  0.1181 (   4)  0.0899 (   1)  0.0880 (   2)
................................................................................
.............................. CYCLE   57 ......................................
................................................................................
   1    -41.1254237 -0.411254E+02  0.227E-01    7.88       0.0  T
   2    -41.1254281 -0.435121E-05  0.172E-01    7.89       1.0  T
   3    -41.1254324 -0.435400E-05  0.117E-02    7.91       2.0  T
   4    -41.1254328 -0.425797E-06  0.365E-03    7.90       6.3  T
   5    -41.1254328 -0.649390E-08  0.180E-03    7.90      12.7  T
   6    -41.1254328 -0.193593E-08  0.793E-04    7.90      28.9  T
speedup  1.08
cpu  time for SCC    0.00 s
wall time for SCC    0.00 s
speedup  1.00
cpu  time for grad    0.01 s
wall time for grad    0.01 s
 E :    -40.91245506  G :  0.008970    pred/act E change: -0.133D-03 -0.892D-04
Maxdispl :   0.1387   ||displ|| :   0.2017   Lambda : -0.175D-03
Largest |displ|/coords:  0.1387 (   1)  0.1182 (   2)  0.0466 (  14)
................................................................................
.............................. CYCLE   58 ......................................
................................................................................
   1    -41.1255133 -0.411255E+02  0.165E-01    7.91       0.0  T
   2    -41.1255161 -0.279371E-05  0.124E-01    7.91       1.0  T
   3    -41.1255194 -0.330244E-05  0.111E-02    7.90       2.1  T
   4    -41.1255196 -0.218486E-06  0.421E-03    7.90       5.5  T
   5    -41.1255196 -0.166990E-07  0.164E-03    7.90      14.0  T
   6    -41.1255196 -0.232842E-08  0.783E-04    7.90      29.3  T
speedup  0.79
cpu  time for SCC    0.00 s
wall time for SCC    0.00 s
speedup  1.00
cpu  time for grad    0.01 s
wall time for grad    0.01 s
 E :    -40.91255234  G :  0.008921    pred/act E change: -0.879D-04 -0.973D-04
Maxdispl :   0.1409   ||displ|| :   0.2456   Lambda : -0.205D-03
Largest |displ|/coords:  0.1409 (   1)  0.1021 (   2)  0.0981 (   4)
................................................................................
.............................. CYCLE   59 ......................................
................................................................................
   1    -41.1261551 -0.411262E+02  0.174E-01    7.90       0.0  T
   2    -41.1261574 -0.229507E-05  0.131E-01    7.90       1.0  T
   3    -41.1261602 -0.281585E-05  0.124E-02    7.90       1.8  T
   4    -41.1261603 -0.103946E-06  0.314E-03    7.90       7.3  T
   5    -41.1261603 -0.933737E-08  0.124E-03    7.90      18.5  T
   6    -41.1261603 -0.812143E-09  0.671E-04    7.90      34.2  T
speedup  0.79
cpu  time for SCC    0.00 s
wall time for SCC    0.00 s
speedup  1.00
cpu  time for grad    0.01 s
wall time for grad    0.01 s
 E :    -40.91269960  G :  0.006352    pred/act E change: -0.912D-04 -0.147D-03
Maxdispl :   0.2590   ||displ|| :   0.4569   Lambda : -0.245D-03
Largest |displ|/coords:  0.2590 (   1)  0.2273 (   2)  0.1933 (   4)
................................................................................
.............................. CYCLE   60 ......................................
................................................................................
   1    -41.1236436 -0.411236E+02  0.330E-01    7.88       0.0  T
   2    -41.1236509 -0.729968E-05  0.249E-01    7.88       1.0  T
   3    -41.1236598 -0.892442E-05  0.200E-02    7.88       1.1  T
   4    -41.1236602 -0.351543E-06  0.387E-03    7.88       5.9  T
   5    -41.1236602 -0.680380E-08  0.243E-03    7.88       9.4  T
   6    -41.1236602 -0.590730E-08  0.741E-04    7.88      30.9  T
speedup  0.81
cpu  time for SCC    0.00 s
wall time for SCC    0.00 s
speedup  0.89
cpu  time for grad    0.01 s
wall time for grad    0.01 s
 E :    -40.91286032  G :  0.010378    pred/act E change: -0.109D-03 -0.161D-03
Maxdispl :   0.2219   ||displ|| :   0.3986   Lambda : -0.372D-03
Largest |displ|/coords:  0.2219 (   1)  0.1777 (   6)  0.1738 (   2)
................................................................................
.............................. CYCLE   61 ......................................
................................................................................
   1    -41.1266302 -0.411266E+02  0.216E-01    7.91       0.0  T
   2    -41.1266387 -0.848342E-05  0.162E-01    7.90       1.0  T
   3    -41.1266469 -0.827980E-05  0.224E-02    7.88       1.0  T
   4    -41.1266477 -0.778247E-06  0.472E-03    7.90       4.9  T
   5    -41.1266477 -0.210413E-07  0.234E-03    7.90       9.8  T
   6    -41.1266477 -0.569360E-08  0.115E-03    7.89      20.0  T
speedup  1.05
cpu  time for SCC    0.00 s
wall time for SCC    0.00 s
speedup  0.99
cpu  time for grad    0.01 s
wall time for grad    0.01 s
 E :    -40.91294630  G :  0.015963    pred/act E change: -0.148D-03 -0.860D-04
Maxdispl :   0.1741   ||displ|| :   0.3186   Lambda : -0.371D-03
Largest |displ|/coords:  0.1741 (   2)  0.1684 (   1)  0.1349 (   4)
................................................................................
.............................. CYCLE   62 ......................................
................................................................................
   1    -41.1233257 -0.411233E+02  0.246E-01    7.91       0.0  T
   2    -41.1233354 -0.964801E-05  0.185E-01    7.92       1.0  T
   3    -41.1233442 -0.881636E-05  0.236E-02    7.93       1.0  T
   4    -41.1233452 -0.104692E-05  0.688E-03    7.92       3.3  T
   5    -41.1233453 -0.665114E-07  0.267E-03    7.92       8.6  T
   6    -41.1233453 -0.325468E-08  0.146E-03    7.92      15.7  T
speedup  1.05
cpu  time for SCC    0.00 s
wall time for SCC    0.00 s
speedup  1.00
cpu  time for grad    0.01 s
wall time for grad    0.01 s
 E :    -40.91314018  G :  0.011523    pred/act E change: -0.215D-03 -0.194D-03
Maxdispl :   0.0984   ||displ|| :   0.1421   Lambda : -0.302D-03
Largest |displ|/coords:  0.0984 (   5)  0.0429 (   7)  0.0404 (   2)
................................................................................
.............................. CYCLE   63 ......................................
................................................................................
   1    -41.1269079 -0.411269E+02  0.134E-01    8.07       0.0  T
   2    -41.1269150 -0.710336E-05  0.100E-01    8.07       1.0  T
   3    -41.1269205 -0.541887E-05  0.217E-02    8.05       1.1  T
   4    -41.1269212 -0.759680E-06  0.621E-03    8.06       3.7  T
   5    -41.1269213 -0.623444E-07  0.206E-03    8.06      11.1  T
   6    -41.1269213 -0.266922E-08  0.116E-03    8.06      19.7  T
speedup  1.08
cpu  time for SCC    0.00 s
wall time for SCC    0.00 s
speedup  1.00
cpu  time for grad    0.01 s
wall time for grad    0.01 s
 E :    -40.91305179  G :  0.017685    pred/act E change: -0.204D-03  0.884D-04
Maxdispl :   0.0480   ||displ|| :   0.1059   Lambda : -0.499D-03
Largest |displ|/coords:  0.0480 (   3)  0.0436 (  15)  0.0425 (   4)
................................................................................
.............................. CYCLE   64 ......................................
................................................................................
   1    -41.1280519 -0.411281E+02  0.112E-01    8.07       0.0  T
   2    -41.1280576 -0.569664E-05  0.834E-02    8.07       1.0  T
   3    -41.1280612 -0.357960E-05  0.160E-02    8.09       1.4  T
   4    -41.1280619 -0.713047E-06  0.354E-03    8.08       6.5  T
   5    -41.1280619 -0.137005E-07  0.160E-03    8.08      14.3  T
   6    -41.1280619 -0.165392E-08  0.751E-04    8.08      30.5  T
speedup  0.75
cpu  time for SCC    0.00 s
wall time for SCC    0.00 s
speedup  0.97
cpu  time for grad    0.01 s
wall time for grad    0.01 s
 E :    -40.91329025  G :  0.006614    pred/act E change: -0.154D-03 -0.238D-03
Maxdispl :   0.2591   ||displ|| :   0.4468   Lambda : -0.296D-03
Largest |displ|/coords:  0.2591 (   2)  0.2435 (   1)  0.1548 (   6)
................................................................................
.............................. CYCLE   65 ......................................
................................................................................
   1    -41.1222260 -0.411222E+02  0.293E-01    7.98       0.0  T
   2    -41.1222346 -0.857344E-05  0.219E-01    7.98       1.0  T
   3    -41.1222438 -0.923343E-05  0.252E-02    7.99       1.0  T
   4    -41.1222444 -0.639643E-06  0.709E-03    7.99       3.2  T
   5    -41.1222445 -0.470123E-07  0.261E-03    7.99       8.8  T
   6    -41.1222445 -0.549208E-08  0.154E-03    7.99      14.9  T
speedup  0.81
cpu  time for SCC    0.00 s
wall time for SCC    0.00 s
speedup  1.00
cpu  time for grad    0.01 s
wall time for grad    0.01 s
[...]
.............................. CYCLE  105 ......................................
................................................................................
   1    -41.1267794 -0.411268E+02  0.110E-01    9.19       0.0  T
   2    -41.1267804 -0.103315E-05  0.831E-02    9.19       1.0  T
   3    -41.1267815 -0.106957E-05  0.605E-03    9.18       3.8  T
   4    -41.1267816 -0.100467E-06  0.263E-03    9.18       8.7  T
   5    -41.1267816 -0.545921E-08  0.914E-04    9.18      25.1  T
   6    -41.1267816 -0.833467E-09  0.489E-04    9.18      46.9  T
speedup  1.05
cpu  time for SCC    0.00 s
wall time for SCC    0.00 s
speedup  0.96
cpu  time for grad    0.01 s
wall time for grad    0.01 s
 E :    -40.92243936  G :  0.005600    pred/act E change: -0.155D-04  0.253D-05
Maxdispl :   0.0267   ||displ|| :   0.0430   Lambda : -0.433D-04
Largest |displ|/coords:  0.0267 (   1)  0.0153 (   5)  0.0141 (   4)
................................................................................
.............................. CYCLE  106 ......................................
................................................................................
   1    -41.1277267 -0.411277E+02  0.390E-02    9.19       0.0  T
   2    -41.1277271 -0.352928E-06  0.293E-02    9.19       1.0  T
   3    -41.1277274 -0.292241E-06  0.452E-03    9.19       5.1  T
   4    -41.1277274 -0.358374E-07  0.158E-03    9.19      14.5  T
   5    -41.1277274 -0.266338E-08  0.447E-04    9.19      51.3  T
speedup  0.97
cpu  time for SCC    0.00 s
wall time for SCC    0.00 s
speedup  1.07
cpu  time for grad    0.01 s
wall time for grad    0.01 s
 E :    -40.92245589  G :  0.002225    pred/act E change: -0.119D-04 -0.165D-04
Maxdispl :   0.0093   ||displ|| :   0.0189   Lambda : -0.105D-04
Largest |displ|/coords:  0.0093 (   6)  0.0066 (   9)  0.0065 (   8)
................................................................................
.............................. CYCLE  107 ......................................
................................................................................
   1    -41.1276144 -0.411276E+02  0.154E-02    9.19       0.0  T
   2    -41.1276145 -0.813975E-07  0.114E-02    9.19       2.0  T
   3    -41.1276146 -0.710624E-07  0.260E-03    9.19       8.8  T
   4    -41.1276146 -0.888819E-08  0.710E-04    9.19      32.3  T
   5    -41.1276146 -0.627310E-09  0.236E-04    9.19      97.3  T
speedup  0.94
cpu  time for SCC    0.00 s
wall time for SCC    0.00 s
speedup  0.92
cpu  time for grad    0.01 s
wall time for grad    0.01 s
 E :    -40.92246098  G :  0.001146    pred/act E change: -0.217D-04 -0.510D-05
Maxdispl :   0.0363   ||displ|| :   0.0501   Lambda : -0.564D-05
Largest |displ|/coords:  0.0363 (   2)  0.0182 (   1)  0.0167 (   4)
................................................................................
.............................. CYCLE  108 ......................................
................................................................................
   1    -41.1276140 -0.411276E+02  0.311E-02    9.19       0.0  T
   2    -41.1276141 -0.103504E-06  0.234E-02    9.19       1.0  T
   3    -41.1276142 -0.903215E-07  0.217E-03    9.18      10.6  T
   4    -41.1276142 -0.131352E-07  0.690E-04    9.18      33.2  T
   5    -41.1276142 -0.537341E-09  0.282E-04    9.18      81.3  T
speedup  1.25
cpu  time for SCC    0.00 s
wall time for SCC    0.00 s
speedup  1.02
cpu  time for grad    0.01 s
wall time for grad    0.01 s
 E :    -40.92246487  G :  0.001145    pred/act E change: -0.527D-05 -0.389D-05
Maxdispl :   0.0462   ||displ|| :   0.0650   Lambda : -0.423D-05
Largest |displ|/coords:  0.0462 (   2)  0.0247 (   1)  0.0196 (   4)
................................................................................
.............................. CYCLE  109 ......................................
................................................................................
   1    -41.1275362 -0.411275E+02  0.395E-02    9.18       0.0  T
   2    -41.1275363 -0.153114E-06  0.297E-02    9.18       1.0  T
   3    -41.1275364 -0.138294E-06  0.264E-03    9.18       8.7  T
   4    -41.1275365 -0.187457E-07  0.105E-03    9.18      21.9  T
   5    -41.1275365 -0.970196E-09  0.339E-04    9.18      67.7  T
   6    -41.1275365 -0.995968E-10  0.201E-04    9.18     114.3  T
speedup  1.08
cpu  time for SCC    0.00 s
wall time for SCC    0.00 s
speedup  1.08
cpu  time for grad    0.01 s
wall time for grad    0.01 s
 E :    -40.92246708  G :  0.000968    pred/act E change: -0.283D-05 -0.220D-05
Maxdispl :   0.0059   ||displ|| :   0.0092   Lambda : -0.148D-05
Largest |displ|/coords:  0.0059 (   1)  0.0042 (   2)  0.0030 (  13)
................................................................................
.............................. CYCLE  110 ......................................
................................................................................
   1    -41.1277434 -0.411277E+02  0.803E-03    9.18       0.0  T
   2    -41.1277434 -0.166998E-07  0.595E-03    9.18       3.9  T
   3    -41.1277434 -0.100336E-07  0.104E-03    9.18      22.0  T
   4    -41.1277434 -0.210530E-08  0.275E-04    9.18      83.5  T
   5    -41.1277434 -0.867004E-10  0.771E-05    9.18     297.7  T
speedup  0.97
cpu  time for SCC    0.00 s
wall time for SCC    0.00 s
speedup  0.92
cpu  time for grad    0.01 s
wall time for grad    0.01 s
 E :    -40.92246784  G :  0.000568    pred/act E change: -0.212D-05 -0.767D-06
Maxdispl :   0.0065   ||displ|| :   0.0099   Lambda : -0.516D-06
Largest |displ|/coords:  0.0065 (   2)  0.0038 (   4)  0.0026 (   1)
................................................................................
.............................. CYCLE  111 ......................................
................................................................................
   1    -41.1277528 -0.411278E+02  0.607E-03    9.18       0.0  T
   2    -41.1277528 -0.428240E-08  0.456E-03    9.18       5.0  T
   3    -41.1277528 -0.336351E-08  0.542E-04    9.18      42.4  T
   4    -41.1277528 -0.556561E-09  0.188E-04    9.18     122.1  T
speedup  1.15
cpu  time for SCC    0.00 s
wall time for SCC    0.00 s
speedup  1.10
cpu  time for grad    0.01 s
wall time for grad    0.01 s
 E :    -40.92246824  G :  0.000338    pred/act E change: -0.741D-06 -0.398D-06
Maxdispl :   0.0128   ||displ|| :   0.0196   Lambda : -0.769D-06
Largest |displ|/coords:  0.0128 (   2)  0.0067 (   5)  0.0057 (   4)
................................................................................
.............................. CYCLE  112 ......................................
................................................................................
   1    -41.1277390 -0.411277E+02  0.149E-02    9.18       0.0  T
   2    -41.1277390 -0.186312E-07  0.112E-02    9.18       2.1  T
   3    -41.1277390 -0.173100E-07  0.111E-03    9.18      20.7  T
   4    -41.1277390 -0.201759E-08  0.364E-04    9.18      63.0  T
   5    -41.1277390 -0.934293E-10  0.105E-04    9.18     218.8  T
speedup  0.97
cpu  time for SCC    0.00 s
wall time for SCC    0.00 s
speedup  0.92
cpu  time for grad    0.01 s
wall time for grad    0.01 s
 E :    -40.92246873  G :  0.000270    pred/act E change: -0.258D-06 -0.487D-06
Maxdispl :   0.0093   ||displ|| :   0.0128   Lambda : -0.290D-06
Largest |displ|/coords:  0.0093 (   2)  0.0042 (   5)  0.0034 (   8)

generating ANC from model Hessian ...
 Shifting diagonal of input Hessian by   4.688113300204258E-003
 Lowest  eigenvalues of input Hessian
   -0.000000   -0.000000   -0.000000   -0.000000   -0.000000    0.000000
    0.005000    0.005446    0.006010    0.006518    0.007099    0.007394
    0.009566    0.010554    0.013567    0.014895    0.016607    0.017149
 Highest eigenvalues
    1.406036    1.409999    1.415551    2.713853    3.283955    3.742659
 
cpu  time for ANC gen    0.01 s
wall time for ANC gen    0.01 s
................................................................................
.............................. CYCLE  113 ......................................
................................................................................
   1    -41.1277449 -0.411277E+02  0.925E-03    9.18       0.0  T
   2    -41.1277449 -0.483593E-08  0.694E-03    9.18       3.3  T
   3    -41.1277449 -0.519713E-08  0.554E-04    9.18      41.4  T
   4    -41.1277449 -0.381192E-09  0.164E-04    9.18     140.1  T
speedup  1.15
cpu  time for SCC    0.00 s
wall time for SCC    0.00 s
speedup  1.10
cpu  time for grad    0.01 s
wall time for grad    0.01 s
 E :    -40.92246894  G :  0.000249    pred/act E change:  0.000D+00 -0.210D-06
Maxdispl :   0.0017   ||displ|| :   0.0030   Lambda : -0.156D-06
Largest |displ|/coords:  0.0017 (   2)  0.0012 (   8)  0.0009 (   7)
................................................................................
.............................. CYCLE  114 ......................................
................................................................................
   1    -41.1277623 -0.411278E+02  0.269E-03    9.18       0.0  T
   2    -41.1277623 -0.115555E-08  0.202E-03    9.18      11.3  T
   3    -41.1277623 -0.985743E-09  0.235E-04    9.18      97.5  T
   4    -41.1277623 -0.147423E-09  0.701E-05    9.18     327.5  T
speedup  0.80
cpu  time for SCC    0.00 s
wall time for SCC    0.00 s
speedup  0.99
cpu  time for grad    0.01 s
wall time for grad    0.01 s
 E :    -40.92246904  G :  0.000167    pred/act E change:  0.000D+00 -0.106D-06
Maxdispl :   0.0030   ||displ|| :   0.0043   Lambda : -0.139D-06
Largest |displ|/coords:  0.0030 (   2)  0.0014 (   5)  0.0012 (  11)
................................................................................
.............................. CYCLE  115 ......................................
................................................................................
   1    -41.1277839 -0.411278E+02  0.357E-03    9.18       0.0  T
   2    -41.1277839 -0.260636E-08  0.265E-03    9.18       8.7  T
   3    -41.1277839 -0.162208E-08  0.393E-04    9.18      58.3  T
   4    -41.1277839 -0.362178E-09  0.102E-04    9.18     224.5  T
speedup  0.77
cpu  time for SCC    0.00 s
wall time for SCC    0.00 s
speedup  0.99
cpu  time for grad    0.01 s
wall time for grad    0.01 s
 E :    -40.92246914  G :  0.000115    pred/act E change: -0.782D-07 -0.960D-07
Maxdispl :   0.0030   ||displ|| :   0.0041   Lambda : -0.835D-07
Largest |displ|/coords:  0.0030 (   2)  0.0013 (  11)  0.0011 (   4)

   *** GEOMETRY OPTIMIZATION CONVERGED AFTER 115 ITERATIONS ***

------------------------------------------------------------------------
 total energy gain (kcal):     -0.0001
------------------------------------------------------------------------
================
 final structure:
================
$coord
        0.09567609413036       -0.74217162254632        1.88060120337665      S 
        1.05588666646784       -3.11438771142016        0.93185064075860      O 
        1.64114861021531        1.41582507070660        0.74991948191864      O 
       -2.54901943952525       -0.33124731036686        1.48572120704409      O 
        0.68751189175760       -0.52480194526571        4.72987763407142      O 
        2.50830919345360       -0.93924993016710        4.84390341324434      H 
       -1.25651560143505       -2.56320871815020       -3.58297359110765      O 
       -3.01085960700520       -2.65561506065300       -3.12697510502632      H 
       -0.32211344585496       -3.15068910884063       -2.11352250032785      H 
        5.26005929236776       -1.82743595546343        3.48869201596933      O 
        4.31653186294125       -2.89716502410132        2.33439314346227      H 
        5.89909013799560       -0.44211430838439        2.50220269572422      H 
       -4.44409597116481        3.32937239019948       -1.48579910970167      O 
       -4.84051231222311        4.78179052568281       -0.47836854474152      H 
       -4.07927849878232        1.95805878579803       -0.30740927615061      H 
        0.00938889942899        2.27850628613565       -3.52537062452676      O 
        1.03359317360714        1.90577055671942       -1.17503122516972      H 
       -0.34442609420505        0.51610128585635       -4.03030119737451      H 
       -1.66037483329955        3.00266177520754       -3.12141022374791      H 
$end
 
 Bond Distances (Angstroems)
 ---------------------------
S1-O2=1.4443         S1-O3=1.5267         S1-O4=1.4316         S1-O5=1.5442         O2-S1=1.4443         O3-S1=1.5267         
O3-H17=1.0992        O4-S1=1.4316         O5-S1=1.5442         O5-H6=0.9900         H6-O5=0.9900         O7-H8=0.9605         
O7-H9=0.9725         H8-O7=0.9605         H9-O7=0.9725         O10-H11=0.9710       O10-H12=0.9614       H11-O10=0.9710       
H12-O10=0.9614       O13-H14=0.9586       O13-H15=0.9761       H14-O13=0.9586       H15-O13=0.9761       O16-H18=0.9880       
O16-H19=0.9866       H17-O3=1.0992        H18-O16=0.9880       H19-O16=0.9866       
 O  H  Rav=0.9864 sigma=0.0392  Rmin=0.9586  Rmax=1.0992    10
 S  O  Rav=1.4867 sigma=0.0493  Rmin=1.4316  Rmax=1.5442     4
 
 selected bond angles (degree)
 --------------------
O3-S1-O2=108.99                O4-S1-O2=115.16                O4-S1-O3=110.66                O5-S1-O2=109.44                
O5-S1-O3=102.61                O5-S1-O4=109.24                H17-O3-S1=112.52               H6-O5-S1=103.91                
H9-O7-H8=105.92                H12-O10-H11=106.49             
 
 selected dihedral angles (degree)
 ---------------------------------
H17-O3-S1-O2= 80.85           H17-O3-S1-O4=313.24           H17-O3-S1-O5=196.81           H6-O5-S1-O2= 49.56            
H6-O5-S1-O3=293.93            H6-O5-S1-O4=176.48            
 
 CMA Distance (Angstroems)
 ---------------------------
R(CMA):  1.7915

========================================================================
 FINAL SINGLEPOINT CALCULATION ON OPTIMIZED GEOMETRY
========================================================================

 Ncao       : 52
 Nao        : 51
 Nshell     : 29
 Nel        : 64
 T(el)      :   300.0
 intcut     :    25.0
 scfconv/Eh :  0.100E-05
   qconv/e  :  0.100E-03
 intneglect :  0.100E-07
 broydamp   :      0.250
 iter      E             dE          RMSdq      gap      omega  full diag
   1    -41.1277839 -0.411278E+02  0.414E-05    9.18       0.0  T
   2    -41.1277839 -0.135714E-11  0.254E-05    9.18     904.9  T
   3    -41.1277839 -0.525802E-12  0.560E-06    9.18    4096.0  T
speedup  1.05
cpu  time for SCC    0.00 s
wall time for SCC    0.00 s

   *** convergence criteria satisfied after 3 iterations ***

          eigenvalues
 #    :          20         21         22         23         24         25         26         27
 occ. :        2.000      2.000      2.000      2.000      2.000      2.000      2.000      2.000
 eps  :       -14.532    -14.307    -14.235    -14.025    -13.570    -13.169    -13.064    -12.910
 #    :          28         29         30         31         32         33         34         35
 occ. :        2.000      2.000      2.000      2.000      2.000      0.000      0.000      0.000
 eps  :       -12.876    -12.760    -12.666    -12.466    -12.414     -3.235     -1.071     -0.740
 #    :          36         37         38         39         40         41         42         43
 occ. :        0.000      0.000      0.000      0.000      0.000      0.000      0.000      0.000
 eps  :         0.458      0.710      1.405      2.480      3.640      4.501      5.353      6.457


   #   Z            q   n(s)   n(p)   n(d)      C6AA      α(0)
   1  16 S      1.732  1.580  1.753  0.935    88.043    15.792
   2   8 O     -0.734  1.772  4.963  0.000    29.663     7.302
   3   8 O     -0.670  1.770  4.901  0.000    26.936     7.005
   4   8 O     -0.696  1.750  4.945  0.000    28.586     7.168
   5   8 O     -0.590  1.751  4.839  0.000    24.928     6.740
   6   1 H      0.387  0.613  0.000  0.000     0.502     1.109
   7   8 O     -0.602  1.737  4.864  0.000    25.224     6.778
   8   1 H      0.302  0.698  0.000  0.000     0.715     1.328
   9   1 H      0.314  0.686  0.000  0.000     0.679     1.295
  10   8 O     -0.590  1.738  4.851  0.000    24.941     6.740
  11   1 H      0.320  0.680  0.000  0.000     0.665     1.281
  12   1 H      0.307  0.693  0.000  0.000     0.701     1.315
  13   8 O     -0.602  1.739  4.863  0.000    25.243     6.781
  14   1 H      0.291  0.709  0.000  0.000     0.748     1.358
  15   1 H      0.325  0.675  0.000  0.000     0.650     1.267
  16   8 O     -0.586  1.760  4.826  0.000    24.785     6.722
  17   1 H      0.398  0.602  0.000  0.000     0.481     1.085
  18   1 H      0.345  0.655  0.000  0.000     0.600     1.217
  19   1 H      0.348  0.652  0.000  0.000     0.593     1.210

 Mol. C6AA /au·bohr⁶  :       3367.529057
 Mol. C8AA /au·bohr⁸  :      76117.032144
 Mol. α(0) /au        :         83.493787

 
 Wiberg/Mayer (AO) data. WBOs > 0.1 written file <wbo>
 largest (>0.05) Wiberg bond orders for each atom
           total WBO             WBO to atom ...
     1  S   4.805    O    4 1.407    O    2 1.325    O    3 1.039    O    5 0.992
     2  O   1.730    S    1 1.325    O    4 0.117    O    3 0.094    O    5 0.087
     3  O   1.908    S    1 1.039    H   17 0.544    O    4 0.098    O    2 0.094    O   16 0.072    O    5 0.057
     4  O   1.764    S    1 1.407    O    2 0.117    O    3 0.098    O    5 0.071
     5  O   2.000    S    1 0.992    H    6 0.746    O    2 0.087    O    4 0.071    O    3 0.057
     6  H   0.850    O    5 0.746    O   10 0.086
     7  O   1.884    H    8 0.905    H    9 0.856    H   18 0.066
     8  H   0.909    O    7 0.905
     9  H   0.901    O    7 0.856
    10  O   1.908    H   12 0.903    H   11 0.867    H    6 0.086
    11  H   0.898    O   10 0.867
    12  H   0.906    O   10 0.903
    13  O   1.875    H   14 0.911    H   15 0.848    H   19 0.063
    14  H   0.915    O   13 0.911
    15  H   0.894    O   13 0.848
    16  O   2.054    H   19 0.813    H   18 0.813    H   17 0.280    O    3 0.072
    17  H   0.842    O    3 0.544    O   16 0.280
    18  H   0.881    O   16 0.813    O    7 0.066
    19  H   0.879    O   16 0.813    O   13 0.063
 MOs/occ written to file <molden.input>
 
molecular dipole:
                 x           y           z       tot (Debye)
 q only:        0.111       0.666      -0.101
   full:       -0.010       0.601       0.291       1.696
molecular quadrupole (traceless):
                xx          xy          yy          xz          yz          zz
 q only:        3.365      -0.508       1.254       0.581       2.001      -4.619
  q+dip:        5.028      -0.468       3.105      -1.334       3.912      -8.133
   full:        4.915      -0.459       2.931      -1.041       3.701      -7.846

SCC energy    :     -41.1277839
rep           :       0.2052430
ES            :       0.1848424
AES           :      -0.0458472
AXC           :      -0.0107348
disp          :      -0.0135657
XB            :       0.0000000
fix           :       0.0000000
total E       :     -40.9224691
atomizationE  :       3.7166563     2332.24
(atE without considering molecular charge,
 total energy contains solvation terms)
H-L gap (eV)  :          9.1785
optimized geometry written to: xtbopt.xyz


------------------------------------------------------------------------
 * finished run on 2019/09/03 at 10:03:59.942     
------------------------------------------------------------------------
 total:
 * wall-time:     0 d,  0 h,  0 min,  1.779 sec
 *  cpu-time:     0 d,  0 h,  0 min,  1.731 sec
 * ratio c/w:     0.973 speedup
 SCF:
 * wall-time:     0 d,  0 h,  0 min,  0.110 sec
 *  cpu-time:     0 d,  0 h,  0 min,  0.107 sec
 * ratio c/w:     0.969 speedup
 ANC optimizer:
 * wall-time:     0 d,  0 h,  0 min,  1.646 sec
 *  cpu-time:     0 d,  0 h,  0 min,  1.606 sec
 * ratio c/w:     0.975 speedup

