      -----------------------------------------------------------      
     |                   =====================                   |     
     |                           x T B                           |     
     |                   =====================                   |     
     |                         S. Grimme                         |     
     |          Mulliken Center for Theoretical Chemistry        |     
     |                    University of Bonn                     |     
     |                 Version 6.0.1 (SAW181210)                 |     
      -----------------------------------------------------------      

   This program is distributed in the hope that it will be useful,
   but WITHOUT ANY WARRANTY; without even the implied warranty of
   MERCHANTABILITY or FITNESS FOR A PARTICULAR PURPOSE.
   
   FOR NON-COMMERCIAL, ACADEMIA USE ONLY.
   
   Cite this work as:
   S. Grimme, C. Bannwarth, P. Shushkov, J. Comput. Theory Chem., 2017,
   13, 1989-2009.
   C. Bannwarth, S. Ehlert and S. Grimme., ChemRxiv, 2018, preprint.
   http://doi.org/10.26434/chemrxiv.7246238.v1
   
   for sTDA-xTB:
   S. Grimme and C. Bannwarth, J. Chem. Phys., 2016, 145, 054103.
   
   in the mass-spec context:
   V. Asgeirsson, C. Bauer and S. Grimme, Chem. Sci., 2017, 8, 4879.
   
   if GBSA is used:
   P. Shushkov, F. März and S. Grimme, unpublished.
   
   for ANC optimizer:
   S. Grimme, unpublished.
   Rational Function algorithm used in ANCopt:
   F. Eckert, P. Pulay, H.-J. Werner, J. Comput. Chem., 1997, 18, 1473.
   
   with help from (in alphabetical order)
   C. Bannwarth, F. Bohle, G. Brandenburg, E. Caldeweyher, M. Checinski,
   S. Dohm, S. Ehlert, S. Ehrlich, F. März, H. Neugebauer, J. Pisarek,
   P. Pracht, P. Shushkov, and S. Spicher.
   
 * started run on 2019/09/03 at 10:20:39.561     
========================================================================
 # omp threads = 1
========================================================================
number of atoms            : 19
number of electrons        : 64
charge                     : 0
spin                       : .0
first test random number   : .8366

########################################################################
# WARNING! Please study the warnings concerning your input carefully
#  - XTBPATH is not set, using XTBHOME instead
#  - the use of '-opt' is discouraged, please use '--opt' next time
#  - the use of '-chrg' is discouraged, please use '--chrg' next time
#  - the use of '-uhf' is discouraged, please use '--uhf' next time
########################################################################

           ------------------------------------------------- 
          |                 G F N 2 - x T B                 |
          | Geometry, Frequencies, Noncovalent interactions |
          |            JCTC 2018 parametrisation            |
           ------------------------------------------------- 
      method parameters     
 k(s)        :  1.8500
 k(p)        :  2.2300
 k(d)        :  2.2300
 k(f)        :  2.0000
 kEN (H0ij)  : -2.0000
 D4 a1       :  0.5200
 D4 a2       :  5.0000
 D4 s6       :  1.0000
 D4 s8       :  2.7000
 D4 s9       :  5.0000
 alphaj      :  2.0000


            Z     q(EN)     CN     RAES       Cart. coordinates
     1  S   6.0    0.64    4.31    4.26     0.99776     3.60804    -1.29437
     2  O   6.0   -0.29    1.15    1.80    -0.77396     4.19730    -3.40195
     3  O   6.0   -0.29    1.15    1.80    -0.00064     4.69605     1.10304
     4  O   6.0   -0.32    1.25    1.80     1.24304     0.81579    -1.02733
     5  O   6.0   -0.24    2.08    1.84     3.48804     4.70775    -1.84360
     6  H   1.0    0.15    1.21    1.47     3.33090     6.50685    -2.01580
     7  O   6.0   -0.25    1.92    1.82     3.21746    -6.65705     4.64897
     8  H   1.0    0.15    0.97    1.43     3.77016    -5.67071     3.22199
     9  H   1.0    0.15    0.97    1.43     4.41131    -8.02532     4.77988
    10  O   6.0   -0.27    1.94    1.82     1.41463    -4.26315    -0.70510
    11  H   1.0    0.15    0.97    1.43     2.58369    -4.93334    -1.92933
    12  H   1.0    0.17    1.03    1.43     1.64267    -2.45770    -0.75973
    13  O   6.0   -0.28    2.04    1.83    -3.26921    -1.34408     0.16783
    14  H   1.0    0.16    0.97    1.43    -3.19660    -3.11502     0.58389
    15  H   1.0    0.17    1.04    1.44    -1.57192    -0.89210    -0.31129
    16  O   6.0   -0.21    2.92    2.59    -4.70842     3.31807    -0.25342
    17  H   1.0    0.14    1.00    1.43    -4.22013     3.83686    -1.98035
    18  H   1.0    0.14    1.05    1.44    -4.64751     1.46365    -0.03565
    19  H   1.0    0.14    1.00    1.43    -3.71124     4.20811     1.05232

  Z AO/shell   Hii/eV     exponent
  1     Wed Apr 25 08:07:45 CEST 2018   EN: 2.200 GM2: 0.406  GM3: 0.0800  RAES: 1.40
     1s    -10.707211    1.230000
  8     Wed Apr 25 08:07:45 CEST 2018   EN: 3.440 GM2: 0.452  GM3:-0.0517  RAES: 1.80
     2s    -20.229985    2.439742
     2p    -15.503117    2.137023
 16     Tue Apr 24 11:44:34 CEST 2018   EN: 2.580 GM2: 0.340  GM3:-0.0502  RAES: 3.10
     3s    -20.029654    1.981333
     3p    -11.377694    2.025643
     3d     -0.420282    1.702555
 no old-style atom pair restraining (fixing) potential

molecular fragmentation (1/2 indicates fragments):
1111112222222222222
# atoms in fragment 1/2:     6    13
 fragment masses (1/2) :       97.07       73.07
CMA distance (Bohr)    :   6.476
constraining FC (au)   :  0.0500
           ------------------------------------------------- 
          |        Self-Consistent Charge Iterations        |
           ------------------------------------------------- 

 Ncao       : 52
 Nao        : 51
 Nshell     : 29
 Nel        : 64
 T(el)      :   300.0
 intcut     :    25.0
 scfconv/Eh :  0.100E-05
   qconv/e  :  0.100E-03
 intneglect :  0.100E-07
 broydamp   :      0.250
 iter      E             dE          RMSdq      gap      omega  full diag
   1    -40.9805610 -0.409806E+02  0.773E+00   10.42       0.0  T
   2    -41.0246796 -0.441186E-01  0.558E+00    9.92       1.0  T
   3    -41.0579413 -0.332617E-01  0.151E+00    8.60       1.0  T
   4    -41.0625740 -0.463267E-02  0.628E-01    8.59       1.0  T
   5    -41.0631986 -0.624666E-03  0.347E-01    8.50       1.0  T
   6    -41.0635738 -0.375129E-03  0.152E-01    8.51       1.0  T
   7    -41.0636634 -0.896836E-04  0.609E-02    8.56       1.0  T
   8    -41.0636781 -0.146964E-04  0.310E-02    8.56       1.0  T
   9    -41.0636819 -0.380619E-05  0.138E-02    8.56       1.7  T
  10    -41.0636828 -0.908367E-06  0.285E-03    8.55       8.1  T
  11    -41.0636829 -0.200832E-07  0.125E-03    8.55      18.3  T
  12    -41.0636829 -0.621169E-08  0.480E-04    8.55      47.8  T
  13    -41.0636829 -0.832507E-09  0.118E-04    8.55     193.8  T
speedup  0.96
cpu  time for SCC    0.01 s
wall time for SCC    0.01 s

   *** convergence criteria satisfied after 13 iterations ***

          eigenvalues
 #    :          20         21         22         23         24         25         26         27
 occ. :        2.000      2.000      2.000      2.000      2.000      2.000      2.000      2.000
 eps  :       -13.424    -13.318    -12.898    -12.885    -12.099    -11.936    -11.744    -11.696
 #    :          28         29         30         31         32         33         34         35
 occ. :        2.000      2.000      2.000      2.000      2.000      0.000      0.000      0.000
 eps  :       -11.503    -11.383    -11.151    -11.141    -10.896     -2.343     -1.321     -0.138
 #    :          36         37         38         39         40         41         42         43
 occ. :        0.000      0.000      0.000      0.000      0.000      0.000      0.000      0.000
 eps  :         0.877      1.484      2.228      2.845      3.663      4.157      4.705      7.185


   #   Z            q   n(s)   n(p)   n(d)      C6AA      α(0)
   1  16 S      1.567  1.588  1.858  0.987    91.861    16.131
   2   8 O     -0.769  1.778  4.991  0.000    30.666     7.425
   3   8 O     -0.767  1.778  4.989  0.000    30.614     7.418
   4   8 O     -0.741  1.769  4.971  0.000    29.846     7.325
   5   8 O     -0.534  1.715  4.820  0.000    23.633     6.563
   6   1 H      0.360  0.640  0.000  0.000     0.557     1.167
   7   8 O     -0.570  1.744  4.826  0.000    24.477     6.677
   8   1 H      0.294  0.706  0.000  0.000     0.739     1.350
   9   1 H      0.273  0.727  0.000  0.000     0.808     1.412
  10   8 O     -0.602  1.740  4.862  0.000    25.234     6.780
  11   1 H      0.268  0.732  0.000  0.000     0.825     1.427
  12   1 H      0.318  0.682  0.000  0.000     0.670     1.286
  13   8 O     -0.634  1.724  4.910  0.000    26.014     6.884
  14   1 H      0.317  0.683  0.000  0.000     0.671     1.287
  15   1 H      0.336  0.664  0.000  0.000     0.621     1.238
  16   8 O     -0.385  1.625  4.760  0.000    20.502     6.115
  17   1 H      0.417  0.583  0.000  0.000     0.455     1.059
  18   1 H      0.433  0.567  0.000  0.000     0.429     1.029
  19   1 H      0.419  0.581  0.000  0.000     0.452     1.056

 Mol. C6AA /au·bohr⁶  :       3378.796809
 Mol. C8AA /au·bohr⁸  :      76689.159304
 Mol. α(0) /au        :         83.628552

 
 Wiberg/Mayer (AO) data. WBOs > 0.1 written file <wbo>
 largest (>0.05) Wiberg bond orders for each atom
           total WBO             WBO to atom ...
     1  S   4.943    O    4 1.308    O    3 1.300    O    2 1.299    O    5 1.004
     2  O   1.658    S    1 1.299    O    3 0.118    O    4 0.111    O    5 0.074
     3  O   1.660    S    1 1.300    O    2 0.118    O    4 0.111    O    5 0.074
     4  O   1.702    S    1 1.308    O    3 0.111    O    2 0.111    O    5 0.054
     5  O   2.056    S    1 1.004    H    6 0.846    O    3 0.074    O    2 0.074    O    4 0.054
     6  H   0.870    O    5 0.846
     7  O   1.837    H    9 0.925    H    8 0.909
     8  H   0.914    O    7 0.909
     9  H   0.925    O    7 0.925
    10  O   1.823    H   11 0.926    H   12 0.859
    11  H   0.928    O   10 0.926
    12  H   0.899    O   10 0.859
    13  O   1.851    H   14 0.883    H   15 0.835    H   18 0.080
    14  H   0.899    O   13 0.883
    15  H   0.887    O   13 0.835
    16  O   2.360    H   17 0.784    H   19 0.783    H   18 0.726
    17  H   0.826    O   16 0.784
    18  H   0.813    O   16 0.726    O   13 0.080
    19  H   0.825    O   16 0.783
 MOs/occ written to file <molden.input>
 
molecular dipole:
                 x           y           z       tot (Debye)
 q only:       -1.568       0.725      -0.298
   full:       -0.366       0.931      -0.747       3.173
molecular quadrupole (traceless):
                xx          xy          yy          xz          yz          zz
 q only:       15.659     -11.658       1.819      -1.547       2.998     -17.478
  q+dip:       14.289      -9.995       5.365      -2.527       3.308     -19.654
   full:       14.351      -9.847       5.840      -2.965       3.031     -20.191

SCC energy    :     -41.0636829
rep           :       0.2164050
ES            :       0.2520777
AES           :      -0.0485346
AXC           :      -0.0107819
disp          :      -0.0111210
XB            :       0.0000000
fix           :       0.0000000
total E       :     -40.8472252
atomizationE  :       3.6414124     2285.02
(atE without considering molecular charge,
 total energy contains solvation terms)
H-L gap (eV)  :          8.5538
           ------------------------------------------------- 
          |                 ===============                 |
          |                   A N C O P T                   |
          |                 ===============                 |
          |          Approximate Normal Coordinate          |
          |           Rational Function Optimizer           |
           ------------------------------------------------- 
dumping coords to <xtbopt.coord> and <xtbopt.log>
 optlevel               2
 Maxcycle             380
 Maxmicro              25
 Econv         1.000000000000000E-007
 Gconv         2.000000000000000E-004
 Maxdispl       1.00000000000000     
 Hlow          5.000000000000000E-003
 S6             20.0000000000000     
 Nvar               51

generating ANC from model Hessian ...
 Shifting diagonal of input Hessian by   5.542214969267094E-003
 Lowest  eigenvalues of input Hessian
    0.005000    0.005396    0.005445    0.005481   -0.000000   -0.000000
   -0.000000    0.000000    0.000000    0.000000    0.005666    0.005896
    0.005998    0.006055    0.006089    0.006548    0.006845    0.007030
 Highest eigenvalues
    1.455890    1.541887    1.554611    3.131920    3.210663    3.312449
 
cpu  time for ANC gen    0.00 s
wall time for ANC gen    0.00 s
................................................................................
.............................. CYCLE    1 ......................................
................................................................................
   1    -41.0636829 -0.410637E+02  0.855E-05    8.55       0.0  T
   2    -41.0636829 -0.104308E-10  0.663E-05    8.55     346.3  T
   3    -41.0636829 -0.123421E-10  0.293E-05    8.55     783.9  T
speedup  1.05
cpu  time for SCC    0.00 s
wall time for SCC    0.00 s
speedup  1.17
cpu  time for grad    0.01 s
wall time for grad    0.01 s
 E :    -40.84722520  G :  0.153238    pred/act E change:  0.000D+00  0.323D-07
Maxdispl :   0.3087   ||displ|| :   0.5132   Lambda : -0.235D-01
Largest |displ|/coords:  0.3087 (  19)  0.2579 (  18)  0.1246 (  22)
................................................................................
.............................. CYCLE    2 ......................................
................................................................................
   1    -41.0784723 -0.410785E+02  0.522E-01    8.90       0.0  T
   2    -41.0785791 -0.106766E-03  0.392E-01    8.94       1.0  T
   3    -41.0786317 -0.526509E-04  0.939E-02    9.02       1.0  T
   4    -41.0786463 -0.145866E-04  0.206E-02    9.01       1.1  T
   5    -41.0786470 -0.680915E-06  0.778E-03    9.00       2.9  T
   6    -41.0786471 -0.899465E-07  0.458E-03    9.00       5.0  T
   7    -41.0786471 -0.691190E-07  0.210E-03    9.00      10.9  T
speedup  0.91
cpu  time for SCC    0.00 s
wall time for SCC    0.00 s
speedup  1.00
cpu  time for grad    0.01 s
wall time for grad    0.01 s
 E :    -40.86799483  G :  0.100405    pred/act E change:  0.000D+00 -0.208D-01
Maxdispl :   0.3472   ||displ|| :   0.5679   Lambda : -0.177D-01
Largest |displ|/coords:  0.3472 (  19)  0.3145 (  18)  0.1255 (  23)
................................................................................
.............................. CYCLE    3 ......................................
................................................................................
   1    -41.0834451 -0.410834E+02  0.563E-01    8.91       0.0  T
   2    -41.0837849 -0.339808E-03  0.415E-01    8.87       1.0  T
   3    -41.0839345 -0.149594E-03  0.128E-01    8.78       1.0  T
   4    -41.0839657 -0.311923E-04  0.248E-02    8.77       1.0  T
   5    -41.0839666 -0.923684E-06  0.119E-02    8.77       1.9  T
   6    -41.0839669 -0.249247E-06  0.626E-03    8.77       3.7  T
   7    -41.0839670 -0.133552E-06  0.299E-03    8.77       7.7  T
   8    -41.0839670 -0.444481E-07  0.852E-04    8.77      26.9  T
speedup  0.96
cpu  time for SCC    0.00 s
wall time for SCC    0.01 s
speedup  1.00
cpu  time for grad    0.01 s
wall time for grad    0.01 s
 E :    -40.88174366  G :  0.061885    pred/act E change: -0.148D-01 -0.137D-01
Maxdispl :   0.2520   ||displ|| :   0.4344   Lambda : -0.666D-02
Largest |displ|/coords:  0.2520 (  18)  0.1862 (  19)  0.1559 (  11)
................................................................................
.............................. CYCLE    4 ......................................
................................................................................
   1    -41.0853604 -0.410854E+02  0.438E-01    8.62       0.0  T
   2    -41.0857170 -0.356548E-03  0.313E-01    8.56       1.0  T
   3    -41.0858734 -0.156467E-03  0.115E-01    8.45       1.0  T
   4    -41.0858909 -0.174249E-04  0.213E-02    8.44       1.1  T
   5    -41.0858916 -0.762590E-06  0.107E-02    8.44       2.1  T
   6    -41.0858918 -0.186852E-06  0.531E-03    8.44       4.3  T
   7    -41.0858919 -0.874090E-07  0.248E-03    8.45       9.2  T
speedup  0.71
cpu  time for SCC    0.00 s
wall time for SCC    0.01 s
speedup  0.78
cpu  time for grad    0.01 s
wall time for grad    0.01 s
 E :    -40.88541524  G :  0.041903    pred/act E change: -0.117D-01 -0.367D-02
Maxdispl :   0.2825   ||displ|| :   0.4759   Lambda : -0.418D-02
Largest |displ|/coords:  0.2825 (  11)  0.1641 (   1)  0.1456 (   8)
................................................................................
.............................. CYCLE    5 ......................................
................................................................................
   1    -41.0775430 -0.410775E+02  0.540E-01    8.18       0.0  T
   2    -41.0776158 -0.728668E-04  0.408E-01    8.21       1.0  T
   3    -41.0776531 -0.372786E-04  0.686E-02    8.25       1.0  T
   4    -41.0776652 -0.120575E-04  0.191E-02    8.22       1.2  T
   5    -41.0776656 -0.472953E-06  0.534E-03    8.22       4.3  T
   6    -41.0776657 -0.451260E-08  0.271E-03    8.22       8.5  T
speedup  0.81
cpu  time for SCC    0.00 s
wall time for SCC    0.00 s
speedup  0.93
cpu  time for grad    0.01 s
wall time for grad    0.01 s
 E :    -40.88622242  G :  0.060570    pred/act E change: -0.396D-02 -0.807D-03
Maxdispl :   0.2411   ||displ|| :   0.4382   Lambda : -0.100D-01
Largest |displ|/coords:  0.2411 (   8)  0.2392 (   5)  0.1345 (  15)
................................................................................
.............................. CYCLE    6 ......................................
................................................................................
   1    -41.0998690 -0.410999E+02  0.757E-01    8.48       0.0  T
   2    -41.1000830 -0.214070E-03  0.573E-01    8.42       1.0  T
   3    -41.1002170 -0.133919E-03  0.100E-01    8.32       1.0  T
   4    -41.1002478 -0.308273E-04  0.277E-02    8.39       1.0  T
   5    -41.1002493 -0.153624E-05  0.992E-03    8.41       2.3  T
   6    -41.1002493 -0.232521E-07  0.519E-03    8.41       4.4  T
   7    -41.1002494 -0.277081E-07  0.966E-04    8.41      23.8  T
speedup  0.91
cpu  time for SCC    0.00 s
wall time for SCC    0.00 s
speedup  0.97
cpu  time for grad    0.01 s
wall time for grad    0.01 s
 E :    -40.88648366  G :  0.052661    pred/act E change: -0.257D-02 -0.261D-03
Maxdispl :   0.2119   ||displ|| :   0.4014   Lambda : -0.567D-02
Largest |displ|/coords:  0.2119 (  11)  0.1573 (   7)  0.1342 (   6)
................................................................................
.............................. CYCLE    7 ......................................
................................................................................
   1    -41.0824767 -0.410825E+02  0.519E-01    8.10       0.0  T
   2    -41.0825635 -0.868563E-04  0.390E-01    8.11       1.0  T
   3    -41.0826151 -0.516277E-04  0.613E-02    8.13       1.0  T
   4    -41.0826286 -0.134683E-04  0.122E-02    8.10       1.9  T
   5    -41.0826287 -0.124189E-06  0.643E-03    8.10       3.6  T
   6    -41.0826288 -0.350708E-07  0.269E-03    8.10       8.5  T
   7    -41.0826288 -0.118636E-07  0.848E-04    8.10      27.1  T
speedup  0.95
cpu  time for SCC    0.00 s
wall time for SCC    0.00 s
speedup  1.00
cpu  time for grad    0.01 s
wall time for grad    0.01 s
 E :    -40.88822109  G :  0.045638    pred/act E change: -0.598D-02 -0.174D-02
Maxdispl :   0.2919   ||displ|| :   0.4934   Lambda : -0.548D-02
Largest |displ|/coords:  0.2919 (  10)  0.2415 (   9)  0.1343 (   6)
................................................................................
.............................. CYCLE    8 ......................................
................................................................................
   1    -41.0856307 -0.410856E+02  0.802E-01    8.04       0.0  T
   2    -41.0858497 -0.219070E-03  0.605E-01    8.08       1.0  T
   3    -41.0859897 -0.139971E-03  0.973E-02    8.16       1.0  T
   4    -41.0860232 -0.334357E-04  0.190E-02    8.09       1.2  T
   5    -41.0860234 -0.265379E-06  0.108E-02    8.09       2.1  T
   6    -41.0860235 -0.623732E-07  0.375E-03    8.10       6.1  T
   7    -41.0860235 -0.173488E-07  0.869E-04    8.10      26.4  T
speedup  1.16
cpu  time for SCC    0.01 s
wall time for SCC    0.00 s
speedup  1.09
cpu  time for grad    0.01 s
wall time for grad    0.01 s
 E :    -40.88538275  G :  0.079771    pred/act E change: -0.329D-02  0.284D-02
Maxdispl :   0.2306   ||displ|| :   0.4770   Lambda : -0.157D-01
Largest |displ|/coords:  0.2306 (   9)  0.2272 (   8)  0.1803 (  10)
................................................................................
.............................. CYCLE    9 ......................................
................................................................................
   1    -41.0939066 -0.410939E+02  0.820E-01    8.28       0.0  T
   2    -41.0942100 -0.303481E-03  0.616E-01    8.22       1.0  T
   3    -41.0944048 -0.194791E-03  0.114E-01    8.07       1.0  T
   4    -41.0944454 -0.405358E-04  0.218E-02    8.17       1.1  T
   5    -41.0944458 -0.429278E-06  0.117E-02    8.17       2.0  T
   6    -41.0944458 -0.541575E-07  0.461E-03    8.17       5.0  T
   7    -41.0944459 -0.234374E-07  0.109E-03    8.17      21.0  T
speedup  1.16
cpu  time for SCC    0.01 s
wall time for SCC    0.00 s
speedup  1.00
cpu  time for grad    0.01 s
wall time for grad    0.01 s
 E :    -40.88772471  G :  0.059709    pred/act E change: -0.341D-02 -0.234D-02
Maxdispl :   0.1546   ||displ|| :   0.3720   Lambda : -0.773D-02
Largest |displ|/coords:  0.1546 (   9)  0.1536 (  10)  0.1401 (   6)
................................................................................
.............................. CYCLE   10 ......................................
................................................................................
   1    -41.0930773 -0.410931E+02  0.557E-01    8.08       0.0  T
   2    -41.0932020 -0.124616E-03  0.418E-01    8.12       1.0  T
   3    -41.0932782 -0.762165E-04  0.733E-02    8.19       1.0  T
   4    -41.0932962 -0.179766E-04  0.132E-02    8.14       1.7  T
   5    -41.0932962 -0.906938E-07  0.734E-03    8.14       3.1  T
   6    -41.0932963 -0.264470E-07  0.220E-03    8.14      10.4  T
   7    -41.0932963 -0.531092E-08  0.629E-04    8.14      36.5  T
speedup  0.93
cpu  time for SCC    0.00 s
wall time for SCC    0.00 s
speedup  1.00
cpu  time for grad    0.01 s
wall time for grad    0.01 s
 E :    -40.88947691  G :  0.037747    pred/act E change: -0.962D-02 -0.175D-02
Maxdispl :   0.1202   ||displ|| :   0.2562   Lambda : -0.236D-02
Largest |displ|/coords:  0.1202 (  11)  0.1003 (   1)  0.0986 (  12)
................................................................................
.............................. CYCLE   11 ......................................
................................................................................
   1    -41.0938392 -0.410938E+02  0.336E-01    8.05       0.0  T
   2    -41.0938802 -0.409687E-04  0.254E-01    8.02       1.0  T
   3    -41.0939034 -0.232505E-04  0.457E-02    7.95       1.0  T
   4    -41.0939094 -0.595060E-05  0.119E-02    7.97       1.9  T
   5    -41.0939097 -0.362247E-06  0.343E-03    7.97       6.7  T
   6    -41.0939097 -0.329136E-08  0.201E-03    7.97      11.4  T
speedup  1.08
cpu  time for SCC    0.00 s
wall time for SCC    0.00 s
speedup  1.07
cpu  time for grad    0.01 s
wall time for grad    0.01 s
 E :    -40.89062914  G :  0.024274    pred/act E change: -0.440D-02 -0.115D-02
Maxdispl :   0.1823   ||displ|| :   0.3559   Lambda : -0.247D-02
Largest |displ|/coords:  0.1823 (  11)  0.1449 (  12)  0.1344 (   2)
................................................................................
.............................. CYCLE   12 ......................................
................................................................................
   1    -41.0834731 -0.410835E+02  0.564E-01    7.99       0.0  T
   2    -41.0835827 -0.109618E-03  0.425E-01    7.97       1.0  T
   3    -41.0836528 -0.701032E-04  0.702E-02    7.90       1.0  T
   4    -41.0836682 -0.153766E-04  0.163E-02    7.92       1.4  T
   5    -41.0836687 -0.540411E-06  0.600E-03    7.93       3.8  T
   6    -41.0836688 -0.213499E-07  0.342E-03    7.93       6.7  T
speedup  1.08
cpu  time for SCC    0.00 s
wall time for SCC    0.00 s
speedup  1.07
cpu  time for grad    0.01 s
wall time for grad    0.01 s
 E :    -40.88907052  G :  0.057504    pred/act E change: -0.126D-02  0.156D-02
Maxdispl :   0.2035   ||displ|| :   0.4348   Lambda : -0.112D-01
Largest |displ|/coords:  0.2035 (  12)  0.1814 (   7)  0.1591 (  11)
................................................................................
.............................. CYCLE   13 ......................................
................................................................................
   1    -41.0990509 -0.410991E+02  0.801E-01    7.93       0.0  T
   2    -41.0993051 -0.254213E-03  0.605E-01    7.97       1.0  T
   3    -41.0994713 -0.166205E-03  0.107E-01    8.07       1.0  T
   4    -41.0995066 -0.353152E-04  0.251E-02    8.03       1.0  T
   5    -41.0995079 -0.132460E-05  0.102E-02    8.02       2.3  T
   6    -41.0995080 -0.328150E-07  0.531E-03    8.02       4.3  T
   7    -41.0995080 -0.306828E-07  0.118E-03    8.02      19.4  T
speedup  0.93
cpu  time for SCC    0.00 s
wall time for SCC    0.00 s
speedup  1.00
cpu  time for grad    0.01 s
wall time for grad    0.01 s
 E :    -40.88935757  G :  0.050534    pred/act E change: -0.139D-02 -0.287D-03
Maxdispl :   0.1072   ||displ|| :   0.2742   Lambda : -0.475D-02
Largest |displ|/coords:  0.1072 (  11)  0.0997 (   2)  0.0962 (  14)
................................................................................
.............................. CYCLE   14 ......................................
................................................................................
   1    -41.0950860 -0.410951E+02  0.380E-01    8.07       0.0  T
   2    -41.0951428 -0.568338E-04  0.286E-01    8.05       1.0  T
   3    -41.0951792 -0.363392E-04  0.500E-02    7.99       1.0  T
   4    -41.0951872 -0.798385E-05  0.123E-02    8.01       1.9  T
   5    -41.0951874 -0.222577E-06  0.446E-03    8.02       5.1  T
   6    -41.0951874 -0.156062E-07  0.222E-03    8.02      10.3  T
speedup  1.08
cpu  time for SCC    0.00 s
wall time for SCC    0.00 s
speedup  1.07
cpu  time for grad    0.01 s
wall time for grad    0.01 s
 E :    -40.89141690  G :  0.015233    pred/act E change: -0.667D-02 -0.206D-02
Maxdispl :   0.0908   ||displ|| :   0.1739   Lambda : -0.780D-03
Largest |displ|/coords:  0.0908 (   2)  0.0742 (  17)  0.0724 (  11)
................................................................................
.............................. CYCLE   15 ......................................
................................................................................
   1    -41.0933467 -0.410933E+02  0.174E-01    7.97       0.0  T
   2    -41.0933602 -0.135274E-04  0.130E-01    7.96       1.0  T
   3    -41.0933666 -0.635634E-05  0.251E-02    7.94       1.0  T
   4    -41.0933689 -0.234258E-05  0.640E-03    7.94       3.6  T
   5    -41.0933690 -0.409974E-07  0.272E-03    7.94       8.4  T
   6    -41.0933690 -0.642370E-08  0.137E-03    7.94      16.7  T
speedup  1.05
cpu  time for SCC    0.00 s
wall time for SCC    0.00 s
speedup  1.02
cpu  time for grad    0.01 s
wall time for grad    0.01 s
 E :    -40.89175533  G :  0.017888    pred/act E change: -0.255D-02 -0.338D-03
Maxdispl :   0.1691   ||displ|| :   0.2075   Lambda : -0.563D-03
Largest |displ|/coords:  0.1691 (   2)  0.0813 (  16)  0.0334 (   9)
................................................................................
.............................. CYCLE   16 ......................................
................................................................................
   1    -41.0945451 -0.410945E+02  0.145E-01    7.94       0.0  T
   2    -41.0945540 -0.892414E-05  0.108E-01    7.95       1.0  T
   3    -41.0945590 -0.500797E-05  0.235E-02    7.96       1.0  T
   4    -41.0945602 -0.118891E-05  0.663E-03    7.96       3.5  T
   5    -41.0945603 -0.872479E-07  0.200E-03    7.96      11.5  T
   6    -41.0945603 -0.185338E-08  0.118E-03    7.96      19.4  T
speedup  1.08
cpu  time for SCC    0.00 s
wall time for SCC    0.00 s
speedup  0.94
cpu  time for grad    0.01 s
wall time for grad    0.01 s
 E :    -40.89200949  G :  0.014350    pred/act E change: -0.402D-03 -0.254D-03
Maxdispl :   0.2213   ||displ|| :   0.2698   Lambda : -0.581D-03
Largest |displ|/coords:  0.2213 (   2)  0.0859 (   4)  0.0738 (  20)
................................................................................
.............................. CYCLE   17 ......................................
................................................................................
   1    -41.0978165 -0.410978E+02  0.124E-01    8.04       0.0  T
   2    -41.0978207 -0.423055E-05  0.933E-02    8.04       1.0  T
   3    -41.0978247 -0.401524E-05  0.156E-02    8.04       1.5  T
   4    -41.0978252 -0.456733E-06  0.379E-03    8.04       6.1  T
   5    -41.0978252 -0.150878E-07  0.184E-03    8.04      12.5  T
   6    -41.0978252 -0.368664E-08  0.748E-04    8.04      30.7  T
speedup  1.08
cpu  time for SCC    0.00 s
wall time for SCC    0.00 s
speedup  0.95
cpu  time for grad    0.01 s
wall time for grad    0.01 s
 E :    -40.89221925  G :  0.014905    pred/act E change: -0.294D-03 -0.210D-03
Maxdispl :   0.1779   ||displ|| :   0.2537   Lambda : -0.604D-03
Largest |displ|/coords:  0.1779 (   2)  0.0967 (  11)  0.0852 (   4)
................................................................................
.............................. CYCLE   18 ......................................
................................................................................
   1    -41.0982017 -0.410982E+02  0.161E-01    8.08       0.0  T
   2    -41.0982087 -0.692546E-05  0.123E-01    8.07       1.0  T
   3    -41.0982146 -0.598558E-05  0.168E-02    8.04       1.4  T
   4    -41.0982155 -0.879601E-06  0.785E-03    8.04       2.9  T
   5    -41.0982156 -0.586175E-07  0.186E-03    8.05      12.3  T
   6    -41.0982156 -0.366065E-08  0.117E-03    8.05      19.6  T
speedup  1.08
cpu  time for SCC    0.00 s
wall time for SCC    0.00 s
speedup  1.06
cpu  time for grad    0.01 s
wall time for grad    0.01 s
 E :    -40.89267039  G :  0.010290    pred/act E change: -0.312D-03 -0.451D-03
Maxdispl :   0.3352   ||displ|| :   0.4726   Lambda : -0.706D-03
Largest |displ|/coords:  0.3352 (   2)  0.1561 (  11)  0.1484 (  20)
................................................................................
.............................. CYCLE   19 ......................................
................................................................................
   1    -41.0992561 -0.410993E+02  0.288E-01    8.08       0.0  T
   2    -41.0993223 -0.662433E-04  0.219E-01    8.06       1.0  T
   3    -41.0993530 -0.306317E-04  0.571E-02    8.01       1.0  T
   4    -41.0993626 -0.964006E-05  0.215E-02    8.02       1.1  T
   5    -41.0993633 -0.638919E-06  0.576E-03    8.02       4.0  T
   6    -41.0993633 -0.429150E-07  0.312E-03    8.02       7.4  T
   7    -41.0993633 -0.118480E-07  0.893E-04    8.02      25.7  T
   8    -41.0993633 -0.193819E-08  0.235E-04    8.02      97.5  T
speedup  1.02
cpu  time for SCC    0.00 s
wall time for SCC    0.00 s
speedup  1.03
cpu  time for grad    0.01 s
wall time for grad    0.01 s
 E :    -40.89321591  G :  0.014415    pred/act E change: -0.321D-03 -0.546D-03
Maxdispl :   0.4200   ||displ|| :   0.6551   Lambda : -0.927D-03
Largest |displ|/coords:  0.4200 (   2)  0.2500 (  20)  0.2390 (   4)
................................................................................
.............................. CYCLE   20 ......................................
................................................................................
   1    -41.1002312 -0.411002E+02  0.423E-01    8.05       0.0  T
   2    -41.1004619 -0.230678E-03  0.321E-01    8.02       1.0  T
   3    -41.1005655 -0.103614E-03  0.103E-01    7.95       1.0  T
   4    -41.1005913 -0.257944E-04  0.370E-02    7.95       1.0  T
   5    -41.1005934 -0.205456E-05  0.106E-02    7.95       2.2  T
   6    -41.1005935 -0.122575E-06  0.552E-03    7.95       4.2  T
   7    -41.1005935 -0.289284E-07  0.141E-03    7.95      16.2  T
   8    -41.1005935 -0.623412E-08  0.376E-04    7.95      60.9  T
speedup  1.02
cpu  time for SCC    0.00 s
wall time for SCC    0.00 s
speedup  1.04
cpu  time for grad    0.01 s
wall time for grad    0.01 s
 E :    -40.89406479  G :  0.025986    pred/act E change: -0.432D-03 -0.849D-03
Maxdispl :   0.3625   ||displ|| :   0.7390   Lambda : -0.168D-02
Largest |displ|/coords:  0.3625 (   2)  0.3442 (  20)  0.2915 (   4)
................................................................................
.............................. CYCLE   21 ......................................
................................................................................
   1    -41.1042497 -0.411042E+02  0.536E-01    7.95       0.0  T
   2    -41.1046967 -0.446997E-03  0.403E-01    7.90       1.0  T
   3    -41.1049147 -0.217960E-03  0.146E-01    7.79       1.0  T
   4    -41.1049532 -0.384955E-04  0.477E-02    7.78       1.0  T
   5    -41.1049565 -0.330370E-05  0.151E-02    7.78       1.5  T
   6    -41.1049567 -0.191207E-06  0.779E-03    7.78       2.9  T
   7    -41.1049568 -0.656643E-07  0.181E-03    7.78      12.7  T
   8    -41.1049568 -0.967023E-08  0.466E-04    7.78      49.2  T
speedup  1.02
cpu  time for SCC    0.00 s
wall time for SCC    0.00 s
speedup  1.03
cpu  time for grad    0.01 s
wall time for grad    0.01 s
 E :    -40.89494932  G :  0.041756    pred/act E change: -0.662D-03 -0.885D-03
Maxdispl :   0.1702   ||displ|| :   0.3681   Lambda : -0.351D-02
Largest |displ|/coords:  0.1702 (   2)  0.1175 (   6)  0.1092 (  17)
................................................................................
.............................. CYCLE   22 ......................................
................................................................................
   1    -41.1174469 -0.411174E+02  0.288E-01    7.83       0.0  T
   2    -41.1174940 -0.471036E-04  0.214E-01    7.82       1.0  T
   3    -41.1175238 -0.297408E-04  0.599E-02    7.81       1.0  T
   4    -41.1175286 -0.487075E-05  0.208E-02    7.81       1.1  T
   5    -41.1175290 -0.410956E-06  0.481E-03    7.81       4.8  T
   6    -41.1175291 -0.211586E-07  0.280E-03    7.81       8.2  T
speedup  1.08
cpu  time for SCC    0.00 s
wall time for SCC    0.00 s
speedup  1.07
cpu  time for grad    0.01 s
wall time for grad    0.01 s
 E :    -40.89514623  G :  0.056071    pred/act E change: -0.129D-02 -0.197D-03
Maxdispl :   0.2311   ||displ|| :   0.4023   Lambda : -0.860D-02
Largest |displ|/coords:  0.2311 (   2)  0.1422 (  12)  0.1263 (  10)
................................................................................
.............................. CYCLE   23 ......................................
................................................................................
   1    -41.0991729 -0.410992E+02  0.505E-01    7.80       0.0  T
   2    -41.0993905 -0.217606E-03  0.376E-01    7.78       1.0  T
   3    -41.0995316 -0.141113E-03  0.104E-01    7.73       1.0  T
   4    -41.0995548 -0.231861E-04  0.295E-02    7.75       1.0  T
   5    -41.0995557 -0.936905E-06  0.976E-03    7.75       2.3  T
   6    -41.0995559 -0.159142E-06  0.565E-03    7.75       4.1  T
   7    -41.0995559 -0.415875E-07  0.154E-03    7.75      14.9  T
speedup  1.19
cpu  time for SCC    0.00 s
wall time for SCC    0.00 s
speedup  1.08
cpu  time for grad    0.01 s
wall time for grad    0.01 s
 E :    -40.89171452  G :  0.083613    pred/act E change: -0.199D-02  0.343D-02
Maxdispl :   0.1722   ||displ|| :   0.4237   Lambda : -0.198D-01
Largest |displ|/coords:  0.1722 (   9)  0.1567 (   7)  0.1552 (   4)
................................................................................
.............................. CYCLE   24 ......................................
................................................................................
   1    -41.1228360 -0.411228E+02  0.658E-01    7.61       0.0  T
   2    -41.1231364 -0.300386E-03  0.491E-01    7.64       1.0  T
   3    -41.1233706 -0.234258E-03  0.113E-01    7.73       1.0  T
   4    -41.1234003 -0.296869E-04  0.271E-02    7.72       1.0  T
   5    -41.1234011 -0.771162E-06  0.140E-02    7.72       1.6  T
   6    -41.1234012 -0.915242E-07  0.570E-03    7.72       4.0  T
   7    -41.1234013 -0.645058E-07  0.168E-03    7.72      13.7  T
speedup  0.93
cpu  time for SCC    0.00 s
wall time for SCC    0.00 s
speedup  0.99
cpu  time for grad    0.01 s
wall time for grad    0.01 s
 E :    -40.89313736  G :  0.103675    pred/act E change: -0.500D-02 -0.142D-02
Maxdispl :   0.1313   ||displ|| :   0.3186   Lambda : -0.142D-01
Largest |displ|/coords:  0.1313 (   9)  0.1145 (  11)  0.1134 (   4)
................................................................................
.............................. CYCLE   25 ......................................
................................................................................
   1    -41.1034300 -0.411034E+02  0.481E-01    7.74       0.0  T
   2    -41.1035898 -0.159794E-03  0.359E-01    7.73       1.0  T
   3    -41.1036994 -0.109558E-03  0.827E-02    7.70       1.0  T
   4    -41.1037176 -0.181913E-04  0.225E-02    7.69       1.0  T
   5    -41.1037181 -0.503798E-06  0.882E-03    7.69       2.6  T
   6    -41.1037182 -0.114559E-06  0.445E-03    7.69       5.2  T
   7    -41.1037182 -0.276615E-07  0.129E-03    7.69      17.8  T
speedup  0.93
cpu  time for SCC    0.00 s
wall time for SCC    0.00 s
speedup  0.98
cpu  time for grad    0.01 s
wall time for grad    0.01 s
 E :    -40.89585719  G :  0.049949    pred/act E change: -0.117D-01 -0.272D-02
Maxdispl :   0.0848   ||displ|| :   0.1952   Lambda : -0.375D-02
Largest |displ|/coords:  0.0848 (  11)  0.0810 (   4)  0.0806 (   6)

generating ANC from model Hessian ...
 Shifting diagonal of input Hessian by   5.077984065976225E-003
 Lowest  eigenvalues of input Hessian
    0.005000   -0.000000   -0.000000   -0.000000   -0.000000    0.000000
    0.000000    0.005089    0.005251    0.005349    0.005501    0.005695
    0.006095    0.006589    0.006991    0.008793    0.009128    0.010512
 Highest eigenvalues
    1.428950    1.433924    1.436662    2.621492    3.306119    3.826577
 
cpu  time for ANC gen    0.00 s
wall time for ANC gen    0.00 s
................................................................................
.............................. CYCLE   26 ......................................
................................................................................
   1    -41.1175189 -0.411175E+02  0.258E-01    7.75       0.0  T
   2    -41.1175576 -0.386907E-04  0.193E-01    7.74       1.0  T
   3    -41.1175833 -0.256881E-04  0.409E-02    7.71       1.0  T
   4    -41.1175882 -0.487163E-05  0.117E-02    7.72       2.0  T
   5    -41.1175884 -0.195330E-06  0.498E-03    7.73       4.6  T
   6    -41.1175884 -0.148938E-07  0.260E-03    7.73       8.8  T
   7    -41.1175884 -0.807374E-08  0.528E-04    7.73      43.5  T
   8    -41.1175884 -0.461831E-09  0.182E-04    7.73     126.3  T
speedup  1.04
cpu  time for SCC    0.00 s
wall time for SCC    0.00 s
speedup  1.00
cpu  time for grad    0.01 s
wall time for grad    0.01 s
 E :    -40.89752968  G :  0.024286    pred/act E change:  0.000D+00 -0.167D-02
Maxdispl :   0.1630   ||displ|| :   0.2919   Lambda : -0.183D-02
Largest |displ|/coords:  0.1630 (  13)  0.1060 (  11)  0.0863 (   7)
................................................................................
.............................. CYCLE   27 ......................................
................................................................................
   1    -41.1135928 -0.411136E+02  0.425E-01    7.61       0.0  T
   2    -41.1136226 -0.298572E-04  0.323E-01    7.63       1.0  T
   3    -41.1136498 -0.271842E-04  0.302E-02    7.67       1.0  T
   4    -41.1136532 -0.338943E-05  0.964E-03    7.65       2.4  T
   5    -41.1136533 -0.130096E-06  0.321E-03    7.65       7.1  T
   6    -41.1136533 -0.438236E-08  0.180E-03    7.65      12.7  T
speedup  0.81
cpu  time for SCC    0.00 s
wall time for SCC    0.00 s
speedup  0.94
cpu  time for grad    0.01 s
wall time for grad    0.01 s
 E :    -40.89848720  G :  0.017604    pred/act E change:  0.000D+00 -0.958D-03
Maxdispl :   0.2214   ||displ|| :   0.3660   Lambda : -0.150D-02
Largest |displ|/coords:  0.2214 (   3)  0.1472 (   4)  0.1389 (   6)
................................................................................
.............................. CYCLE   28 ......................................
................................................................................
   1    -41.1126782 -0.411127E+02  0.488E-01    7.61       0.0  T
   2    -41.1127122 -0.339214E-04  0.373E-01    7.60       1.0  T
   3    -41.1127431 -0.309531E-04  0.335E-02    7.58       1.0  T
   4    -41.1127471 -0.403782E-05  0.120E-02    7.59       1.9  T
   5    -41.1127474 -0.217360E-06  0.400E-03    7.59       5.7  T
   6    -41.1127474 -0.805431E-08  0.222E-03    7.59      10.3  T
   7    -41.1127474 -0.653650E-08  0.642E-04    7.59      35.7  T
speedup  0.93
cpu  time for SCC    0.00 s
wall time for SCC    0.00 s
speedup  1.00
cpu  time for grad    0.01 s
wall time for grad    0.01 s
 E :    -40.89872042  G :  0.022720    pred/act E change: -0.993D-03 -0.233D-03
Maxdispl :   0.1288   ||displ|| :   0.1703   Lambda : -0.883D-03
Largest |displ|/coords:  0.1288 (   6)  0.0661 (   5)  0.0460 (   4)
................................................................................
.............................. CYCLE   29 ......................................
................................................................................
   1    -41.1169515 -0.411170E+02  0.179E-01    7.63       0.0  T
   2    -41.1169603 -0.884501E-05  0.135E-01    7.62       1.0  T
   3    -41.1169662 -0.593822E-05  0.204E-02    7.59       1.1  T
   4    -41.1169675 -0.131413E-05  0.543E-03    7.60       4.2  T
   5    -41.1169676 -0.625632E-07  0.201E-03    7.61      11.4  T
speedup  0.97
cpu  time for SCC    0.00 s
wall time for SCC    0.00 s
speedup  0.89
cpu  time for grad    0.01 s
wall time for grad    0.01 s
 E :    -40.89915681  G :  0.008436    pred/act E change: -0.848D-03 -0.436D-03
Maxdispl :   0.1586   ||displ|| :   0.2664   Lambda : -0.528D-03
Largest |displ|/coords:  0.1586 (   3)  0.1583 (   2)  0.0789 (   7)
................................................................................
.............................. CYCLE   30 ......................................
................................................................................
   1    -41.1157495 -0.411157E+02  0.221E-01    7.57       0.0  T
   2    -41.1157577 -0.818073E-05  0.169E-01    7.58       1.0  T
   3    -41.1157672 -0.950872E-05  0.154E-02    7.59       1.5  T
   4    -41.1157678 -0.638997E-06  0.618E-03    7.58       3.7  T
   5    -41.1157679 -0.358664E-07  0.240E-03    7.58       9.6  T
   6    -41.1157679 -0.393769E-08  0.125E-03    7.58      18.4  T
speedup  1.08
cpu  time for SCC    0.00 s
wall time for SCC    0.00 s
speedup  1.06
cpu  time for grad    0.01 s
wall time for grad    0.01 s
 E :    -40.89950197  G :  0.012250    pred/act E change: -0.454D-03 -0.345D-03
Maxdispl :   0.2742   ||displ|| :   0.3932   Lambda : -0.546D-03
Largest |displ|/coords:  0.2742 (   3)  0.2321 (   2)  0.0757 (   7)
................................................................................
.............................. CYCLE   31 ......................................
................................................................................
   1    -41.1159843 -0.411160E+02  0.184E-01    7.57       0.0  T
   2    -41.1159911 -0.675331E-05  0.139E-01    7.57       1.0  T
   3    -41.1159975 -0.643566E-05  0.165E-02    7.56       1.4  T
   4    -41.1159983 -0.808993E-06  0.554E-03    7.56       4.1  T
   5    -41.1159983 -0.278060E-07  0.233E-03    7.56       9.9  T
   6    -41.1159983 -0.512072E-08  0.130E-03    7.56      17.7  T
speedup  1.08
cpu  time for SCC    0.00 s
wall time for SCC    0.00 s
speedup  1.06
cpu  time for grad    0.01 s
wall time for grad    0.01 s
 E :    -40.89999568  G :  0.015265    pred/act E change: -0.283D-03 -0.494D-03
Maxdispl :   0.5432   ||displ|| :   0.7585   Lambda : -0.129D-02
Largest |displ|/coords:  0.5432 (   3)  0.4400 (   2)  0.1523 (   9)
................................................................................
.............................. CYCLE   32 ......................................
................................................................................
   1    -41.1198744 -0.411199E+02  0.280E-01    7.58       0.0  T
   2    -41.1198952 -0.208073E-04  0.211E-01    7.57       1.0  T
   3    -41.1199111 -0.158528E-04  0.312E-02    7.53       1.0  T
   4    -41.1199141 -0.296720E-05  0.969E-03    7.54       2.4  T
   5    -41.1199142 -0.984558E-07  0.405E-03    7.54       5.7  T
   6    -41.1199142 -0.147923E-07  0.232E-03    7.54       9.9  T
   7    -41.1199142 -0.583066E-08  0.594E-04    7.54      38.6  T
speedup  0.93
cpu  time for SCC    0.00 s
wall time for SCC    0.00 s
speedup  0.98
cpu  time for grad    0.01 s
wall time for grad    0.01 s
 E :    -40.90105213  G :  0.013427    pred/act E change: -0.315D-03 -0.106D-02
Maxdispl :   0.5066   ||displ|| :   0.7716   Lambda : -0.133D-02
Largest |displ|/coords:  0.5066 (   3)  0.4211 (   2)  0.1797 (   9)
................................................................................
.............................. CYCLE   33 ......................................
................................................................................
   1    -41.1161341 -0.411161E+02  0.437E-01    7.58       0.0  T
   2    -41.1161904 -0.562939E-04  0.329E-01    7.56       1.0  T
   3    -41.1162308 -0.403675E-04  0.491E-02    7.54       1.0  T
   4    -41.1162389 -0.810907E-05  0.116E-02    7.54       2.0  T
   5    -41.1162390 -0.135970E-06  0.533E-03    7.55       4.3  T
   6    -41.1162391 -0.242288E-07  0.298E-03    7.55       7.7  T
   7    -41.1162391 -0.102349E-07  0.676E-04    7.55      33.9  T
speedup  1.16
cpu  time for SCC    0.01 s
wall time for SCC    0.00 s
speedup  1.09
cpu  time for grad    0.01 s
wall time for grad    0.01 s
 E :    -40.90123987  G :  0.039427    pred/act E change: -0.102D-02 -0.188D-03
Maxdispl :   0.1994   ||displ|| :   0.3508   Lambda : -0.268D-02
Largest |displ|/coords:  0.1994 (   2)  0.1930 (   3)  0.0882 (   7)
................................................................................
.............................. CYCLE   34 ......................................
................................................................................
   1    -41.1240596 -0.411241E+02  0.230E-01    7.65       0.0  T
   2    -41.1240914 -0.317272E-04  0.170E-01    7.64       1.0  T
   3    -41.1241112 -0.198112E-04  0.378E-02    7.61       1.0  T
   4    -41.1241147 -0.352299E-05  0.714E-03    7.61       3.2  T
   5    -41.1241148 -0.543182E-07  0.379E-03    7.61       6.1  T
   6    -41.1241148 -0.632976E-08  0.173E-03    7.61      13.3  T
speedup  1.05
cpu  time for SCC    0.00 s
wall time for SCC    0.00 s
speedup  1.05
cpu  time for grad    0.01 s
wall time for grad    0.01 s
 E :    -40.90271501  G :  0.012906    pred/act E change: -0.106D-02 -0.148D-02
Maxdispl :   0.4441   ||displ|| :   0.6884   Lambda : -0.127D-02
Largest |displ|/coords:  0.4441 (   3)  0.4037 (   2)  0.1607 (   9)
................................................................................
.............................. CYCLE   35 ......................................
................................................................................
   1    -41.1221273 -0.411221E+02  0.245E-01    7.69       0.0  T
   2    -41.1221505 -0.232240E-04  0.185E-01    7.70       1.0  T
   3    -41.1221702 -0.196836E-04  0.324E-02    7.73       1.0  T
   4    -41.1221733 -0.317330E-05  0.936E-03    7.72       2.5  T
   5    -41.1221734 -0.111068E-06  0.451E-03    7.71       5.1  T
   6    -41.1221735 -0.131259E-07  0.213E-03    7.71      10.8  T
   7    -41.1221735 -0.773592E-08  0.343E-04    7.71      66.9  T
speedup  0.93
cpu  time for SCC    0.00 s
wall time for SCC    0.00 s
speedup  0.98
cpu  time for grad    0.01 s
wall time for grad    0.01 s
 E :    -40.90326272  G :  0.034201    pred/act E change: -0.150D-02 -0.548D-03
Maxdispl :   0.2023   ||displ|| :   0.4274   Lambda : -0.237D-02
Largest |displ|/coords:  0.2023 (  11)  0.2018 (  17)  0.1879 (   8)
................................................................................
.............................. CYCLE   36 ......................................
................................................................................
   1    -41.1327288 -0.411327E+02  0.246E-01    8.00       0.0  T
   2    -41.1327710 -0.421553E-04  0.176E-01    7.95       1.0  T
   3    -41.1327952 -0.242051E-04  0.450E-02    7.88       1.0  T
   4    -41.1327983 -0.308947E-05  0.123E-02    7.90       1.9  T
   5    -41.1327985 -0.227410E-06  0.383E-03    7.91       6.0  T
   6    -41.1327985 -0.725795E-08  0.216E-03    7.91      10.6  T
speedup  1.08
cpu  time for SCC    0.00 s
wall time for SCC    0.00 s
speedup  1.05
cpu  time for grad    0.01 s
wall time for grad    0.01 s
 E :    -40.90397598  G :  0.030331    pred/act E change: -0.939D-03 -0.713D-03
Maxdispl :   0.1338   ||displ|| :   0.3409   Lambda : -0.231D-02
Largest |displ|/coords:  0.1338 (   8)  0.1226 (   7)  0.1202 (  17)
................................................................................
.............................. CYCLE   37 ......................................
................................................................................
   1    -41.1198470 -0.411198E+02  0.414E-01    7.89       0.0  T
   2    -41.1199128 -0.657918E-04  0.311E-01    7.88       1.0  T
   3    -41.1199653 -0.525121E-04  0.546E-02    7.86       1.0  T
   4    -41.1199740 -0.872848E-05  0.124E-02    7.86       1.8  T
   5    -41.1199741 -0.961905E-07  0.649E-03    7.86       3.5  T
   6    -41.1199742 -0.521898E-07  0.226E-03    7.86      10.2  T
   7    -41.1199742 -0.100417E-07  0.726E-04    7.86      31.6  T
speedup  1.14
cpu  time for SCC    0.00 s
wall time for SCC    0.00 s
speedup  1.08
cpu  time for grad    0.01 s
wall time for grad    0.01 s
 E :    -40.90349002  G :  0.042076    pred/act E change: -0.140D-02  0.486D-03
Maxdispl :   0.1146   ||displ|| :   0.2662   Lambda : -0.384D-02
Largest |displ|/coords:  0.1146 (   8)  0.1093 (   1)  0.0867 (   3)
................................................................................
.............................. CYCLE   38 ......................................
................................................................................
   1    -41.1209194 -0.411209E+02  0.302E-01    7.75       0.0  T
   2    -41.1209535 -0.341852E-04  0.227E-01    7.78       1.0  T
   3    -41.1209791 -0.255138E-04  0.372E-02    7.85       1.0  T
   4    -41.1209837 -0.464647E-05  0.860E-03    7.82       2.7  T
   5    -41.1209837 -0.443302E-07  0.472E-03    7.82       4.9  T
   6    -41.1209838 -0.183872E-07  0.112E-03    7.82      20.6  T
speedup  1.08
cpu  time for SCC    0.00 s
wall time for SCC    0.00 s
speedup  1.05
cpu  time for grad    0.01 s
wall time for grad    0.01 s
 E :    -40.90513350  G :  0.024190    pred/act E change: -0.129D-02 -0.164D-02
Maxdispl :   0.1078   ||displ|| :   0.2533   Lambda : -0.124D-02
Largest |displ|/coords:  0.1078 (  15)  0.0870 (   2)  0.0823 (   1)
................................................................................
.............................. CYCLE   39 ......................................
................................................................................
   1    -41.1259947 -0.411260E+02  0.246E-01    7.90       0.0  T
   2    -41.1260126 -0.178557E-04  0.183E-01    7.91       1.0  T
   3    -41.1260236 -0.110085E-04  0.301E-02    7.92       1.0  T
   4    -41.1260259 -0.225590E-05  0.101E-02    7.92       2.3  T
   5    -41.1260261 -0.195287E-06  0.335E-03    7.92       6.8  T
   6    -41.1260261 -0.507438E-08  0.190E-03    7.92      12.1  T
speedup  0.79
cpu  time for SCC    0.00 s
wall time for SCC    0.00 s
speedup  0.91
cpu  time for grad    0.01 s
wall time for grad    0.01 s
 E :    -40.90520071  G :  0.024146    pred/act E change: -0.206D-02 -0.672D-04
Maxdispl :   0.1002   ||displ|| :   0.2029   Lambda : -0.100D-02
Largest |displ|/coords:  0.1002 (   5)  0.0901 (   2)  0.0778 (  17)
................................................................................
.............................. CYCLE   40 ......................................
................................................................................
   1    -41.1252894 -0.411253E+02  0.168E-01    7.93       0.0  T
   2    -41.1252958 -0.631930E-05  0.126E-01    7.93       1.0  T
   3    -41.1253011 -0.530065E-05  0.177E-02    7.93       1.3  T
   4    -41.1253018 -0.753927E-06  0.546E-03    7.94       4.2  T
   5    -41.1253018 -0.288980E-07  0.211E-03    7.94      10.8  T
speedup  0.97
cpu  time for SCC    0.00 s
wall time for SCC    0.00 s
speedup  0.99
cpu  time for grad    0.01 s
wall time for grad    0.01 s
 E :    -40.90593367  G :  0.009491    pred/act E change: -0.659D-03 -0.733D-03
Maxdispl :   0.1960   ||displ|| :   0.4099   Lambda : -0.984D-03
Largest |displ|/coords:  0.1960 (   2)  0.1839 (  17)  0.1527 (  11)
................................................................................
.............................. CYCLE   41 ......................................
................................................................................
   1    -41.1168298 -0.411168E+02  0.294E-01    7.95       0.0  T
   2    -41.1168557 -0.258244E-04  0.221E-01    7.96       1.0  T
   3    -41.1168782 -0.225038E-04  0.358E-02    8.00       1.0  T
   4    -41.1168813 -0.312939E-05  0.878E-03    7.98       2.6  T
   5    -41.1168814 -0.681252E-07  0.428E-03    7.98       5.4  T
   6    -41.1168814 -0.181823E-07  0.197E-03    7.98      11.7  T
   7    -41.1168814 -0.455158E-08  0.483E-04    7.98      47.5  T
speedup  0.93
cpu  time for SCC    0.00 s
wall time for SCC    0.00 s
speedup  0.98
cpu  time for grad    0.01 s
wall time for grad    0.01 s
 E :    -40.90623864  G :  0.025157    pred/act E change: -0.522D-03 -0.305D-03
Maxdispl :   0.1566   ||displ|| :   0.2303   Lambda : -0.811D-03
Largest |displ|/coords:  0.1566 (   3)  0.1014 (   1)  0.0753 (   9)
................................................................................
.............................. CYCLE   42 ......................................
................................................................................
   1    -41.1200544 -0.411201E+02  0.105E-01    8.00       0.0  T
   2    -41.1200690 -0.145953E-04  0.771E-02    7.99       1.0  T
   3    -41.1200761 -0.711016E-05  0.261E-02    7.98       1.0  T
   4    -41.1200770 -0.906717E-06  0.720E-03    7.99       3.2  T
   5    -41.1200771 -0.117171E-06  0.188E-03    7.99      12.2  T
   6    -41.1200771 -0.160245E-08  0.116E-03    7.99      19.8  T
speedup  1.08
cpu  time for SCC    0.00 s
wall time for SCC    0.00 s
speedup  1.03
cpu  time for grad    0.01 s
wall time for grad    0.01 s
 E :    -40.90663805  G :  0.012084    pred/act E change: -0.575D-03 -0.399D-03
Maxdispl :   0.3946   ||displ|| :   0.5236   Lambda : -0.105D-02
Largest |displ|/coords:  0.3946 (   2)  0.2246 (   3)  0.1375 (   6)
................................................................................
.............................. CYCLE   43 ......................................
................................................................................
   1    -41.1248648 -0.411249E+02  0.213E-01    8.12       0.0  T
   2    -41.1248829 -0.181232E-04  0.158E-01    8.15       1.0  T
   3    -41.1248931 -0.101415E-04  0.293E-02    8.22       1.0  T
   4    -41.1248954 -0.234775E-05  0.620E-03    8.22       3.7  T
   5    -41.1248954 -0.407692E-07  0.267E-03    8.21       8.6  T
   6    -41.1248955 -0.492207E-08  0.131E-03    8.21      17.5  T
speedup  0.81
cpu  time for SCC    0.00 s
wall time for SCC    0.00 s
speedup  0.92
cpu  time for grad    0.01 s
wall time for grad    0.01 s
 E :    -40.90647637  G :  0.016283    pred/act E change: -0.427D-03  0.162D-03
Maxdispl :   0.1473   ||displ|| :   0.2711   Lambda : -0.146D-02
Largest |displ|/coords:  0.1473 (   3)  0.0961 (   6)  0.0873 (  15)
................................................................................
.............................. CYCLE   44 ......................................
................................................................................
   1    -41.1208878 -0.411209E+02  0.143E-01    8.18       0.0  T
   2    -41.1209010 -0.132468E-04  0.106E-01    8.17       1.0  T
   3    -41.1209099 -0.885116E-05  0.241E-02    8.14       1.0  T
   4    -41.1209113 -0.141910E-05  0.784E-03    8.14       2.9  T
   5    -41.1209114 -0.889277E-07  0.257E-03    8.14       8.9  T
   6    -41.1209114 -0.525457E-08  0.149E-03    8.14      15.4  T
speedup  1.08
cpu  time for SCC    0.00 s
wall time for SCC    0.00 s
speedup  1.03
cpu  time for grad    0.01 s
wall time for grad    0.01 s
 E :    -40.90716939  G :  0.013474    pred/act E change: -0.668D-03 -0.693D-03
Maxdispl :   0.1072   ||displ|| :   0.2106   Lambda : -0.587D-03
Largest |displ|/coords:  0.1072 (   8)  0.0848 (   3)  0.0727 (  17)
................................................................................
.............................. CYCLE   45 ......................................
................................................................................
   1    -41.1164668 -0.411165E+02  0.178E-01    8.12       0.0  T
   2    -41.1164789 -0.120810E-04  0.133E-01    8.12       1.0  T
   3    -41.1164866 -0.773367E-05  0.259E-02    8.11       1.0  T
   4    -41.1164882 -0.157897E-05  0.572E-03    8.12       4.0  T
   5    -41.1164883 -0.638974E-07  0.246E-03    8.11       9.3  T
   6    -41.1164883 -0.314143E-08  0.137E-03    8.11      16.8  T
speedup  0.79
cpu  time for SCC    0.00 s
wall time for SCC    0.00 s
speedup  0.92
cpu  time for grad    0.01 s
wall time for grad    0.01 s
 E :    -40.90734134  G :  0.015201    pred/act E change: -0.781D-03 -0.172D-03
Maxdispl :   0.1065   ||displ|| :   0.1590   Lambda : -0.382D-03
Largest |displ|/coords:  0.1065 (   2)  0.0600 (   1)  0.0511 (  17)
................................................................................
.............................. CYCLE   46 ......................................
................................................................................
   1    -41.1184436 -0.411184E+02  0.878E-02    8.16       0.0  T
   2    -41.1184456 -0.204490E-05  0.653E-02    8.15       1.0  T
   3    -41.1184472 -0.155020E-05  0.108E-02    8.15       2.1  T
   4    -41.1184474 -0.255554E-06  0.250E-03    8.15       9.2  T
   5    -41.1184474 -0.671408E-08  0.112E-03    8.15      20.4  T
speedup  0.94
cpu  time for SCC    0.00 s
wall time for SCC    0.00 s
speedup  0.98
cpu  time for grad    0.01 s
wall time for grad    0.01 s
 E :    -40.90762486  G :  0.009278    pred/act E change: -0.307D-03 -0.284D-03
Maxdispl :   0.2389   ||displ|| :   0.3547   Lambda : -0.477D-03
Largest |displ|/coords:  0.2389 (   2)  0.1562 (   1)  0.0858 (  17)
................................................................................
.............................. CYCLE   47 ......................................
................................................................................
   1    -41.1191119 -0.411191E+02  0.216E-01    8.19       0.0  T
   2    -41.1191179 -0.608277E-05  0.162E-01    8.19       1.0  T
   3    -41.1191261 -0.816257E-05  0.219E-02    8.20       1.0  T
   4    -41.1191264 -0.317746E-06  0.477E-03    8.20       4.8  T
   5    -41.1191265 -0.247749E-07  0.243E-03    8.20       9.4  T
   6    -41.1191265 -0.507372E-08  0.121E-03    8.20      19.0  T
speedup  1.08
cpu  time for SCC    0.00 s
wall time for SCC    0.00 s
speedup  1.03
cpu  time for grad    0.01 s
wall time for grad    0.01 s
 E :    -40.90795387  G :  0.010768    pred/act E change: -0.196D-03 -0.329D-03
Maxdispl :   0.2024   ||displ|| :   0.3770   Lambda : -0.497D-03
Largest |displ|/coords:  0.2024 (   2)  0.1633 (   1)  0.1507 (   8)
................................................................................
.............................. CYCLE   48 ......................................
................................................................................
   1    -41.1201517 -0.411202E+02  0.247E-01    8.22       0.0  T
   2    -41.1201622 -0.105727E-04  0.183E-01    8.21       1.0  T
   3    -41.1201736 -0.113495E-04  0.310E-02    8.20       1.0  T
   4    -41.1201746 -0.973403E-06  0.887E-03    8.20       2.6  T
   5    -41.1201747 -0.920309E-07  0.283E-03    8.20       8.1  T
   6    -41.1201747 -0.721037E-08  0.176E-03    8.20      13.1  T
speedup  0.81
cpu  time for SCC    0.00 s
wall time for SCC    0.00 s
speedup  0.91
cpu  time for grad    0.01 s
wall time for grad    0.01 s
 E :    -40.90826454  G :  0.011963    pred/act E change: -0.268D-03 -0.311D-03
Maxdispl :   0.2111   ||displ|| :   0.3542   Lambda : -0.440D-03
Largest |displ|/coords:  0.2111 (   2)  0.1430 (   1)  0.1017 (   8)
................................................................................
.............................. CYCLE   49 ......................................
................................................................................
   1    -41.1194578 -0.411195E+02  0.257E-01    8.23       0.0  T
   2    -41.1194702 -0.123977E-04  0.193E-01    8.23       1.0  T
   3    -41.1194843 -0.141014E-04  0.302E-02    8.22       1.0  T
   4    -41.1194854 -0.107975E-05  0.861E-03    8.22       2.7  T
   5    -41.1194855 -0.797467E-07  0.311E-03    8.22       7.4  T
   6    -41.1194855 -0.889739E-08  0.184E-03    8.22      12.4  T
   7    -41.1194855 -0.367031E-08  0.395E-04    8.22      58.1  T
speedup  1.16
cpu  time for SCC    0.01 s
wall time for SCC    0.00 s
speedup  1.06
cpu  time for grad    0.01 s
wall time for grad    0.01 s
 E :    -40.90852326  G :  0.011722    pred/act E change: -0.284D-03 -0.259D-03
Maxdispl :   0.1130   ||displ|| :   0.1968   Lambda : -0.271D-03
Largest |displ|/coords:  0.1130 (   2)  0.0878 (   1)  0.0623 (   8)
................................................................................
.............................. CYCLE   50 ......................................
................................................................................
   1    -41.1221150 -0.411221E+02  0.122E-01    8.31       0.0  T
   2    -41.1221176 -0.258186E-05  0.904E-02    8.31       1.0  T
   3    -41.1221202 -0.264342E-05  0.164E-02    8.31       1.4  T
   4    -41.1221205 -0.252835E-06  0.388E-03    8.31       5.9  T
   5    -41.1221205 -0.202110E-07  0.145E-03    8.31      15.8  T
   6    -41.1221205 -0.214902E-08  0.847E-04    8.31      27.1  T
speedup  1.05
cpu  time for SCC    0.00 s
wall time for SCC    0.00 s
speedup  1.01
cpu  time for grad    0.01 s
wall time for grad    0.01 s
 E :    -40.90869771  G :  0.008002    pred/act E change: -0.248D-03 -0.174D-03
Maxdispl :   0.2607   ||displ|| :   0.4452   Lambda : -0.353D-03
Largest |displ|/coords:  0.2607 (   2)  0.2119 (   1)  0.1514 (   9)
................................................................................
.............................. CYCLE   51 ......................................
................................................................................
   1    -41.1175832 -0.411176E+02  0.278E-01    8.27       0.0  T
   2    -41.1176005 -0.173511E-04  0.208E-01    8.28       1.0  T
   3    -41.1176158 -0.152742E-04  0.360E-02    8.31       1.0  T
   4    -41.1176178 -0.204371E-05  0.102E-02    8.30       2.3  T
   5    -41.1176180 -0.125557E-06  0.360E-03    8.29       6.4  T
   6    -41.1176180 -0.106108E-07  0.208E-03    8.29      11.0  T
   7    -41.1176180 -0.560129E-08  0.515E-04    8.29      44.5  T
speedup  0.93
cpu  time for SCC    0.00 s
wall time for SCC    0.00 s
speedup  0.96
cpu  time for grad    0.01 s
wall time for grad    0.01 s
 E :    -40.90863299  G :  0.019023    pred/act E change: -0.141D-03  0.647D-04
Maxdispl :   0.0624   ||displ|| :   0.1330   Lambda : -0.651D-03
Largest |displ|/coords:  0.0624 (  12)  0.0615 (   4)  0.0460 (   2)
................................................................................
.............................. CYCLE   52 ......................................
................................................................................
   1    -41.1255749 -0.411256E+02  0.129E-01    8.30       0.0  T
   2    -41.1255859 -0.109887E-04  0.961E-02    8.28       1.0  T
   3    -41.1255921 -0.622253E-05  0.224E-02    8.25       1.0  T
   4    -41.1255935 -0.132697E-05  0.540E-03    8.26       4.3  T
   5    -41.1255935 -0.507305E-07  0.222E-03    8.26      10.3  T
   6    -41.1255935 -0.220884E-08  0.119E-03    8.26      19.3  T
speedup  1.05
cpu  time for SCC    0.00 s
wall time for SCC    0.00 s
speedup  1.02
cpu  time for grad    0.01 s
wall time for grad    0.01 s
 E :    -40.90886345  G :  0.011895    pred/act E change: -0.211D-03 -0.230D-03
Maxdispl :   0.0995   ||displ|| :   0.2229   Lambda : -0.485D-03
Largest |displ|/coords:  0.0995 (   2)  0.0912 (  17)  0.0745 (  10)

generating ANC from model Hessian ...
 Shifting diagonal of input Hessian by   5.159984554501295E-003
 Lowest  eigenvalues of input Hessian
    0.005000    0.005098   -0.000000   -0.000000   -0.000000    0.000000
    0.000000    0.000000    0.005568    0.005673    0.006058    0.006937
    0.007372    0.007898    0.008622    0.010982    0.012007    0.015684
 Highest eigenvalues
    1.395181    1.402725    1.435808    2.554030    3.283681    3.828849
 
cpu  time for ANC gen    0.01 s
wall time for ANC gen    0.01 s
................................................................................
.............................. CYCLE   53 ......................................
................................................................................
   1    -41.1204959 -0.411205E+02  0.159E-01    8.25       0.0  T
   2    -41.1205066 -0.107238E-04  0.119E-01    8.26       1.0  T
   3    -41.1205140 -0.737561E-05  0.212E-02    8.28       1.1  T
   4    -41.1205154 -0.138990E-05  0.451E-03    8.26       5.1  T
   5    -41.1205154 -0.100503E-07  0.246E-03    8.26       9.3  T
   6    -41.1205154 -0.436372E-08  0.676E-04    8.26      34.0  T
   7    -41.1205154 -0.473854E-09  0.218E-04    8.26     105.2  T
speedup  0.93
cpu  time for SCC    0.00 s
wall time for SCC    0.00 s
speedup  0.93
cpu  time for grad    0.01 s
wall time for grad    0.01 s
 E :    -40.90853641  G :  0.025090    pred/act E change:  0.000D+00  0.327D-03
Maxdispl :   0.1070   ||displ|| :   0.1701   Lambda : -0.810D-03
Largest |displ|/coords:  0.1070 (   3)  0.0523 (   8)  0.0512 (   7)
................................................................................
.............................. CYCLE   54 ......................................
................................................................................
   1    -41.1211708 -0.411212E+02  0.227E-01    8.27       0.0  T
   2    -41.1211790 -0.813630E-05  0.174E-01    8.27       1.0  T
   3    -41.1211872 -0.826752E-05  0.145E-02    8.26       1.6  T
   4    -41.1211881 -0.841520E-06  0.379E-03    8.27       6.0  T
   5    -41.1211881 -0.522706E-08  0.216E-03    8.27      10.6  T
speedup  1.18
cpu  time for SCC    0.00 s
wall time for SCC    0.00 s
speedup  1.07
cpu  time for grad    0.01 s
wall time for grad    0.01 s
 E :    -40.90899960  G :  0.009851    pred/act E change:  0.000D+00 -0.463D-03
Maxdispl :   0.2267   ||displ|| :   0.3004   Lambda : -0.784D-03
Largest |displ|/coords:  0.2267 (   5)  0.1028 (   8)  0.0917 (   4)
................................................................................
.............................. CYCLE   55 ......................................
................................................................................
   1    -41.1220359 -0.411220E+02  0.356E-01    8.33       0.0  T
   2    -41.1220561 -0.202371E-04  0.270E-01    8.32       1.0  T
   3    -41.1220739 -0.177998E-04  0.280E-02    8.30       1.0  T
   4    -41.1220764 -0.248118E-05  0.769E-03    8.32       3.0  T
   5    -41.1220765 -0.400778E-07  0.390E-03    8.32       5.9  T
   6    -41.1220765 -0.324127E-08  0.163E-03    8.32      14.1  T
   7    -41.1220765 -0.416718E-08  0.257E-04    8.32      89.4  T
speedup  0.91
cpu  time for SCC    0.00 s
wall time for SCC    0.00 s
speedup  0.95
cpu  time for grad    0.01 s
wall time for grad    0.01 s
 E :    -40.90868494  G :  0.019142    pred/act E change: -0.417D-03  0.315D-03
Maxdispl :   0.0965   ||displ|| :   0.1702   Lambda : -0.987D-03
Largest |displ|/coords:  0.0965 (   3)  0.0809 (   5)  0.0597 (   2)
................................................................................
.............................. CYCLE   56 ......................................
................................................................................
   1    -41.1227024 -0.411227E+02  0.270E-01    8.29       0.0  T
   2    -41.1227139 -0.114912E-04  0.207E-01    8.29       1.0  T
   3    -41.1227263 -0.123616E-04  0.182E-02    8.31       1.3  T
   4    -41.1227272 -0.931575E-06  0.571E-03    8.31       4.0  T
   5    -41.1227273 -0.416257E-07  0.221E-03    8.31      10.4  T
   6    -41.1227273 -0.654019E-09  0.102E-03    8.30      22.5  T
speedup  1.08
cpu  time for SCC    0.00 s
wall time for SCC    0.00 s
speedup  1.02
cpu  time for grad    0.01 s
wall time for grad    0.01 s
 E :    -40.90923727  G :  0.006689    pred/act E change: -0.427D-03 -0.552D-03
Maxdispl :   0.0747   ||displ|| :   0.1163   Lambda : -0.142D-03
Largest |displ|/coords:  0.0747 (   3)  0.0556 (   2)  0.0384 (   5)
................................................................................
.............................. CYCLE   57 ......................................
................................................................................
   1    -41.1214045 -0.411214E+02  0.161E-01    8.27       0.0  T
   2    -41.1214085 -0.402715E-05  0.123E-01    8.28       1.0  T
   3    -41.1214126 -0.413320E-05  0.105E-02    8.31       2.2  T
   4    -41.1214130 -0.383774E-06  0.269E-03    8.30       8.5  T
   5    -41.1214130 -0.360762E-08  0.128E-03    8.30      17.9  T
speedup  1.25
cpu  time for SCC    0.00 s
wall time for SCC    0.00 s
speedup  1.08
cpu  time for grad    0.01 s
wall time for grad    0.01 s
 E :    -40.90930493  G :  0.011139    pred/act E change: -0.508D-03 -0.677D-04
Maxdispl :   0.0690   ||displ|| :   0.1409   Lambda : -0.183D-03
Largest |displ|/coords:  0.0690 (   4)  0.0646 (   2)  0.0578 (   9)
................................................................................
.............................. CYCLE   58 ......................................
................................................................................
   1    -41.1225113 -0.411225E+02  0.105E-01    8.30       0.0  T
   2    -41.1225131 -0.181442E-05  0.795E-02    8.30       1.0  T
   3    -41.1225153 -0.216522E-05  0.880E-03    8.30       2.6  T
   4    -41.1225154 -0.124455E-06  0.286E-03    8.30       8.0  T
   5    -41.1225154 -0.815605E-08  0.118E-03    8.30      19.5  T
speedup  1.29
cpu  time for SCC    0.00 s
wall time for SCC    0.00 s
speedup  1.10
cpu  time for grad    0.01 s
wall time for grad    0.01 s
 E :    -40.90938974  G :  0.005026    pred/act E change: -0.720D-04 -0.848D-04
Maxdispl :   0.1418   ||displ|| :   0.2518   Lambda : -0.231D-03
Largest |displ|/coords:  0.1418 (   5)  0.1292 (   2)  0.0851 (   9)
................................................................................
.............................. CYCLE   59 ......................................
................................................................................
   1    -41.1217057 -0.411217E+02  0.211E-01    8.29       0.0  T
   2    -41.1217093 -0.357957E-05  0.160E-01    8.29       1.0  T
   3    -41.1217136 -0.437025E-05  0.107E-02    8.30       2.2  T
   4    -41.1217138 -0.205340E-06  0.582E-03    8.30       3.9  T
   5    -41.1217139 -0.164872E-07  0.141E-03    8.30      16.3  T
   6    -41.1217139 -0.177925E-08  0.885E-04    8.30      25.9  T
speedup  1.05
cpu  time for SCC    0.00 s
wall time for SCC    0.00 s
speedup  1.02
cpu  time for grad    0.01 s
wall time for grad    0.01 s
 E :    -40.90958141  G :  0.006487    pred/act E change: -0.934D-04 -0.192D-03
Maxdispl :   0.2752   ||displ|| :   0.5194   Lambda : -0.455D-03
Largest |displ|/coords:  0.2752 (   5)  0.2413 (   2)  0.2261 (   9)
................................................................................
.............................. CYCLE   60 ......................................
................................................................................
   1    -41.1187030 -0.411187E+02  0.399E-01    8.22       0.0  T
   2    -41.1187256 -0.226470E-04  0.301E-01    8.25       1.0  T
   3    -41.1187469 -0.213181E-04  0.286E-02    8.30       1.0  T
   4    -41.1187495 -0.256954E-05  0.130E-02    8.29       1.8  T
   5    -41.1187496 -0.140864E-06  0.382E-03    8.28       6.0  T
   6    -41.1187496 -0.109815E-07  0.227E-03    8.28      10.1  T
   7    -41.1187496 -0.710263E-08  0.420E-04    8.28      54.6  T
speedup  0.93
cpu  time for SCC    0.00 s
wall time for SCC    0.00 s
speedup  1.06
cpu  time for grad    0.01 s
wall time for grad    0.01 s
 E :    -40.90953371  G :  0.026497    pred/act E change: -0.123D-03  0.477D-04
Maxdispl :   0.0716   ||displ|| :   0.1070   Lambda : -0.847D-03
Largest |displ|/coords:  0.0716 (   4)  0.0658 (   3)  0.0225 (   5)
................................................................................
.............................. CYCLE   61 ......................................
................................................................................
   1    -41.1224978 -0.411225E+02  0.171E-01    8.35       0.0  T
   2    -41.1225141 -0.163151E-04  0.127E-01    8.33       1.0  T
   3    -41.1225242 -0.101014E-04  0.272E-02    8.28       1.0  T
   4    -41.1225262 -0.199365E-05  0.477E-03    8.30       4.8  T
   5    -41.1225263 -0.224564E-07  0.250E-03    8.30       9.2  T
speedup  1.29
cpu  time for SCC    0.00 s
wall time for SCC    0.00 s
speedup  1.10
cpu  time for grad    0.01 s
wall time for grad    0.01 s
 E :    -40.90981762  G :  0.008711    pred/act E change: -0.289D-03 -0.284D-03
Maxdispl :   0.1349   ||displ|| :   0.1951   Lambda : -0.295D-03
Largest |displ|/coords:  0.1349 (   2)  0.0625 (   4)  0.0621 (   1)
................................................................................
.............................. CYCLE   62 ......................................
................................................................................
   1    -41.1181975 -0.411182E+02  0.193E-01    8.25       0.0  T
   2    -41.1182059 -0.840551E-05  0.146E-01    8.27       1.0  T
   3    -41.1182124 -0.648520E-05  0.182E-02    8.30       1.3  T
   4    -41.1182135 -0.112123E-05  0.382E-03    8.29       6.0  T
   5    -41.1182135 -0.757331E-08  0.200E-03    8.29      11.5  T
   6    -41.1182135 -0.220793E-08  0.762E-04    8.29      30.1  T
speedup  1.05
cpu  time for SCC    0.00 s
wall time for SCC    0.00 s
speedup  1.01
cpu  time for grad    0.01 s
wall time for grad    0.01 s
 E :    -40.90980132  G :  0.018303    pred/act E change: -0.429D-03  0.163D-04
Maxdispl :   0.0643   ||displ|| :   0.1238   Lambda : -0.559D-03
Largest |displ|/coords:  0.0643 (   5)  0.0625 (   8)  0.0444 (  12)
................................................................................
.............................. CYCLE   63 ......................................
................................................................................
   1    -41.1226737 -0.411227E+02  0.135E-01    8.34       0.0  T
   2    -41.1226822 -0.850724E-05  0.101E-01    8.35       1.0  T
   3    -41.1226876 -0.535549E-05  0.192E-02    8.36       1.2  T
   4    -41.1226887 -0.108300E-05  0.543E-03    8.35       4.2  T
   5    -41.1226887 -0.404339E-07  0.211E-03    8.35      10.9  T
   6    -41.1226887 -0.180703E-08  0.103E-03    8.35      22.2  T
speedup  1.08
cpu  time for SCC    0.00 s
wall time for SCC    0.00 s
speedup  1.02
cpu  time for grad    0.01 s
wall time for grad    0.01 s
 E :    -40.90987666  G :  0.013824    pred/act E change: -0.153D-03 -0.753D-04
Maxdispl :   0.1907   ||displ|| :   0.2523   Lambda : -0.541D-03
Largest |displ|/coords:  0.1907 (   5)  0.1016 (   9)  0.0525 (   1)
................................................................................
.............................. CYCLE   64 ......................................
................................................................................
   1    -41.1226849 -0.411227E+02  0.200E-01    8.35       0.0  T
   2    -41.1226911 -0.622061E-05  0.150E-01    8.34       1.0  T
   3    -41.1226954 -0.428308E-05  0.164E-02    8.32       1.4  T
   4    -41.1226963 -0.919714E-06  0.513E-03    8.33       4.5  T
   5    -41.1226964 -0.333863E-07  0.210E-03    8.34      10.9  T
   6    -41.1226964 -0.305189E-08  0.114E-03    8.34      20.1  T
speedup  1.03
cpu  time for SCC    0.00 s
wall time for SCC    0.00 s
speedup  0.99
cpu  time for grad    0.01 s
wall time for grad    0.01 s
 E :    -40.91004345  G :  0.010686    pred/act E change: -0.284D-03 -0.167D-03
Maxdispl :   0.1187   ||displ|| :   0.1907   Lambda : -0.237D-03
Largest |displ|/coords:  0.1187 (   2)  0.0827 (   1)  0.0668 (   5)
................................................................................
.............................. CYCLE   65 ......................................
................................................................................
   1    -41.1202845 -0.411203E+02  0.140E-01    8.31       0.0  T
   2    -41.1202876 -0.314665E-05  0.106E-01    8.32       1.0  T
   3    -41.1202908 -0.315713E-05  0.112E-02    8.33       2.1  T
   4    -41.1202911 -0.313379E-06  0.313E-03    8.32       7.3  T
   5    -41.1202911 -0.651349E-08  0.139E-03    8.32      16.5  T
   6    -41.1202911 -0.174339E-08  0.662E-04    8.32      34.7  T
speedup  0.79
cpu  time for SCC    0.00 s
wall time for SCC    0.00 s
speedup  1.01
cpu  time for grad    0.01 s
wall time for grad    0.01 s
 E :    -40.91019373  G :  0.008300    pred/act E change: -0.288D-03 -0.150D-03
Maxdispl :   0.1092   ||displ|| :   0.1922   Lambda : -0.149D-03
Largest |displ|/coords:  0.1092 (   2)  0.0849 (   1)  0.0790 (   9)
[...]
Largest |displ|/coords:  0.0421 (   2)  0.0345 (   1)  0.0271 (   3)
................................................................................
.............................. CYCLE  110 ......................................
................................................................................
   1    -41.1234115 -0.411234E+02  0.475E-02    8.24       0.0  T
   2    -41.1234118 -0.260782E-06  0.357E-02    8.24       1.0  T
   3    -41.1234120 -0.249896E-06  0.451E-03    8.24       5.1  T
   4    -41.1234121 -0.323447E-07  0.140E-03    8.24      16.4  T
   5    -41.1234121 -0.177616E-08  0.492E-04    8.24      46.6  T
   6    -41.1234121 -0.215103E-09  0.260E-04    8.24      88.3  T
speedup  1.05
cpu  time for SCC    0.00 s
wall time for SCC    0.00 s
speedup  1.08
cpu  time for grad    0.01 s
wall time for grad    0.01 s
 E :    -40.91165910  G :  0.001566    pred/act E change: -0.408D-05 -0.571D-05
Maxdispl :   0.0315   ||displ|| :   0.0463   Lambda : -0.496D-05
Largest |displ|/coords:  0.0315 (   2)  0.0165 (   1)  0.0153 (   8)
................................................................................
.............................. CYCLE  111 ......................................
................................................................................
   1    -41.1233211 -0.411233E+02  0.257E-02    8.24       0.0  T
   2    -41.1233212 -0.113569E-06  0.194E-02    8.24       1.2  T
   3    -41.1233213 -0.981378E-07  0.237E-03    8.24       9.7  T
   4    -41.1233213 -0.159878E-07  0.820E-04    8.24      28.0  T
   5    -41.1233213 -0.890488E-09  0.299E-04    8.24      76.7  T
speedup  0.97
cpu  time for SCC    0.00 s
wall time for SCC    0.00 s
speedup  1.01
cpu  time for grad    0.01 s
wall time for grad    0.01 s
 E :    -40.91166278  G :  0.001117    pred/act E change: -0.461D-05 -0.368D-05
Maxdispl :   0.0553   ||displ|| :   0.0827   Lambda : -0.644D-05
Largest |displ|/coords:  0.0553 (   2)  0.0275 (   4)  0.0275 (   8)
................................................................................
.............................. CYCLE  112 ......................................
................................................................................
   1    -41.1231665 -0.411232E+02  0.518E-02    8.23       0.0  T
   2    -41.1231668 -0.370139E-06  0.392E-02    8.23       1.0  T
   3    -41.1231673 -0.419767E-06  0.384E-03    8.24       6.0  T
   4    -41.1231673 -0.372038E-07  0.163E-03    8.24      14.1  T
   5    -41.1231673 -0.264834E-08  0.540E-04    8.24      42.4  T
   6    -41.1231673 -0.303203E-09  0.289E-04    8.24      79.4  T
speedup  1.05
cpu  time for SCC    0.00 s
wall time for SCC    0.00 s
speedup  0.97
cpu  time for grad    0.01 s
wall time for grad    0.01 s
 E :    -40.91166722  G :  0.001002    pred/act E change: -0.249D-05 -0.444D-05
Maxdispl :   0.0339   ||displ|| :   0.0448   Lambda : -0.382D-05
Largest |displ|/coords:  0.0339 (   2)  0.0134 (   8)  0.0107 (   4)

generating ANC from model Hessian ...
 Shifting diagonal of input Hessian by   4.920734214927305E-003
 Lowest  eigenvalues of input Hessian
   -0.000000   -0.000000   -0.000000   -0.000000    0.000000    0.000000
    0.005000    0.005130    0.005772    0.006488    0.006779    0.007408
    0.007814    0.008194    0.009950    0.011050    0.013775    0.014738
 Highest eigenvalues
    1.394469    1.414889    1.435446    2.559264    3.283075    3.864561
 
cpu  time for ANC gen    0.01 s
wall time for ANC gen    0.01 s
................................................................................
.............................. CYCLE  113 ......................................
................................................................................
   1    -41.1232503 -0.411233E+02  0.256E-02    8.23       0.0  T
   2    -41.1232505 -0.131606E-06  0.194E-02    8.23       1.2  T
   3    -41.1232506 -0.136801E-06  0.266E-03    8.23       8.6  T
   4    -41.1232506 -0.141613E-07  0.100E-03    8.23      22.8  T
   5    -41.1232506 -0.106746E-08  0.318E-04    8.23      72.1  T
   6    -41.1232506 -0.105722E-09  0.186E-04    8.23     123.7  T
speedup  1.05
cpu  time for SCC    0.00 s
wall time for SCC    0.00 s
speedup  1.06
cpu  time for grad    0.01 s
wall time for grad    0.01 s
 E :    -40.91166949  G :  0.000671    pred/act E change:  0.000D+00 -0.226D-05
Maxdispl :   0.0073   ||displ|| :   0.0103   Lambda : -0.130D-05
Largest |displ|/coords:  0.0073 (   2)  0.0037 (   4)  0.0036 (   1)
................................................................................
.............................. CYCLE  114 ......................................
................................................................................
   1    -41.1232724 -0.411233E+02  0.837E-03    8.24       0.0  T
   2    -41.1232724 -0.125357E-07  0.637E-03    8.24       3.6  T
   3    -41.1232724 -0.155156E-07  0.669E-04    8.24      34.3  T
   4    -41.1232724 -0.105163E-08  0.311E-04    8.24      73.8  T
speedup  0.80
cpu  time for SCC    0.00 s
wall time for SCC    0.00 s
speedup  0.99
cpu  time for grad    0.01 s
wall time for grad    0.01 s
 E :    -40.91167038  G :  0.000407    pred/act E change:  0.000D+00 -0.895D-06
Maxdispl :   0.0079   ||displ|| :   0.0113   Lambda : -0.877D-06
Largest |displ|/coords:  0.0079 (   2)  0.0042 (  11)  0.0036 (   4)
................................................................................
.............................. CYCLE  115 ......................................
................................................................................
   1    -41.1233230 -0.411233E+02  0.918E-03    8.24       0.0  T
   2    -41.1233230 -0.134747E-07  0.693E-03    8.24       3.3  T
   3    -41.1233230 -0.128285E-07  0.834E-04    8.24      27.5  T
   4    -41.1233230 -0.162024E-08  0.326E-04    8.24      70.4  T
speedup  1.11
cpu  time for SCC    0.00 s
wall time for SCC    0.00 s
speedup  0.96
cpu  time for grad    0.01 s
wall time for grad    0.01 s
 E :    -40.91167098  G :  0.000262    pred/act E change: -0.651D-06 -0.602D-06
Maxdispl :   0.0074   ||displ|| :   0.0124   Lambda : -0.543D-06
Largest |displ|/coords:  0.0074 (   2)  0.0062 (   3)  0.0051 (  11)
................................................................................
.............................. CYCLE  116 ......................................
................................................................................
   1    -41.1233800 -0.411234E+02  0.938E-03    8.24       0.0  T
   2    -41.1233801 -0.923693E-08  0.702E-03    8.24       3.3  T
   3    -41.1233801 -0.952149E-08  0.816E-04    8.24      28.1  T
   4    -41.1233801 -0.883844E-09  0.317E-04    8.24      72.3  T
speedup  1.15
cpu  time for SCC    0.00 s
wall time for SCC    0.00 s
speedup  0.98
cpu  time for grad    0.01 s
wall time for grad    0.01 s
 E :    -40.91167137  G :  0.000278    pred/act E change: -0.438D-06 -0.388D-06
Maxdispl :   0.0080   ||displ|| :   0.0140   Lambda : -0.430D-06
Largest |displ|/coords:  0.0080 (   2)  0.0068 (   3)  0.0052 (  11)
................................................................................
.............................. CYCLE  117 ......................................
................................................................................
   1    -41.1234214 -0.411234E+02  0.100E-02    8.24       0.0  T
   2    -41.1234214 -0.104855E-07  0.747E-03    8.24       3.1  T
   3    -41.1234214 -0.111628E-07  0.938E-04    8.24      24.4  T
   4    -41.1234214 -0.919812E-09  0.300E-04    8.24      76.4  T
speedup  1.15
cpu  time for SCC    0.00 s
wall time for SCC    0.00 s
speedup  1.11
cpu  time for grad    0.01 s
wall time for grad    0.01 s
 E :    -40.91167166  G :  0.000266    pred/act E change: -0.272D-06 -0.290D-06
Maxdispl :   0.0061   ||displ|| :   0.0111   Lambda : -0.248D-06
Largest |displ|/coords:  0.0061 (   2)  0.0055 (   3)  0.0043 (   4)
................................................................................
.............................. CYCLE  118 ......................................
................................................................................
   1    -41.1234262 -0.411234E+02  0.728E-03    8.24       0.0  T
   2    -41.1234262 -0.532913E-08  0.540E-03    8.24       4.2  T
   3    -41.1234262 -0.614727E-08  0.771E-04    8.24      29.8  T
   4    -41.1234262 -0.398522E-09  0.152E-04    8.24     151.1  T
speedup  0.80
cpu  time for SCC    0.00 s
wall time for SCC    0.00 s
speedup  0.98
cpu  time for grad    0.01 s
wall time for grad    0.01 s
 E :    -40.91167183  G :  0.000206    pred/act E change: -0.215D-06 -0.170D-06
Maxdispl :   0.0048   ||displ|| :   0.0094   Lambda : -0.165D-06
Largest |displ|/coords:  0.0048 (   4)  0.0047 (   2)  0.0041 (   3)
................................................................................
.............................. CYCLE  119 ......................................
................................................................................
   1    -41.1234043 -0.411234E+02  0.597E-03    8.24       0.0  T
   2    -41.1234043 -0.398514E-08  0.444E-03    8.24       5.2  T
   3    -41.1234044 -0.470862E-08  0.679E-04    8.24      33.8  T
   4    -41.1234044 -0.340869E-09  0.153E-04    8.24     150.0  T
speedup  1.15
cpu  time for SCC    0.00 s
wall time for SCC    0.00 s
speedup  0.99
cpu  time for grad    0.01 s
wall time for grad    0.01 s
 E :    -40.91167194  G :  0.000154    pred/act E change: -0.124D-06 -0.112D-06
Maxdispl :   0.0036   ||displ|| :   0.0069   Lambda : -0.102D-06
Largest |displ|/coords:  0.0036 (   4)  0.0035 (   1)  0.0031 (   2)
................................................................................
.............................. CYCLE  120 ......................................
................................................................................
   1    -41.1233761 -0.411234E+02  0.412E-03    8.24       0.0  T
   2    -41.1233761 -0.209171E-08  0.308E-03    8.24       7.5  T
   3    -41.1233761 -0.215994E-08  0.496E-04    8.24      46.3  T
   4    -41.1233761 -0.237357E-09  0.114E-04    8.24     201.2  T
speedup  1.20
cpu  time for SCC    0.00 s
wall time for SCC    0.00 s
speedup  0.99
cpu  time for grad    0.01 s
wall time for grad    0.01 s
 E :    -40.91167202  G :  0.000129    pred/act E change: -0.824D-07 -0.758D-07
Maxdispl :   0.0044   ||displ|| :   0.0074   Lambda : -0.872D-07
Largest |displ|/coords:  0.0044 (   1)  0.0041 (   4)  0.0024 (   2)

   *** GEOMETRY OPTIMIZATION CONVERGED AFTER 120 ITERATIONS ***

------------------------------------------------------------------------
 total energy gain (kcal):     -0.0016
------------------------------------------------------------------------
================
 final structure:
================
$coord
        0.69521974370130        2.43477917504662       -1.52831949555041      S 
       -1.39773744777214        3.93805732868541       -2.32671802120114      O 
        0.59030378586133        2.08695350620894        1.34182480471821      O 
        1.07651033180938        0.07081480320989       -2.78002427421435      O 
        3.19838063264275        3.98685476982329       -1.88755637105007      O 
        2.86547159938580        5.70939829829017       -1.46192351835477      H 
        0.28058830229157       -3.46452463347222        2.96595539157124      O 
        1.78915563926065       -3.65947885228034        1.91672153663079      H 
        0.52257610079698       -1.91330302598360        3.87424458778048      H 
        4.10364151965378       -3.32921208594715       -0.46026328084695      O 
        4.36108815644827       -4.72064481657008       -1.59303184057806      H 
        3.20969271309620       -2.03681416714881       -1.41695351165321      H 
       -3.16424226009455       -2.17769160769288       -0.51168740555809      O 
       -2.14211614360227       -2.98897060296216        0.81657865082175      H 
       -1.97303959513803       -1.71457520659890       -1.81205884845923      H 
       -4.06917566655094        2.07364103100388        1.73080594212281      O 
       -4.39158702864890        3.22801526837088        0.35534123501906      H 
       -4.18809961323891        0.33987006110150        0.98073124907973      H 
       -1.36663078862417        2.13683077572061        1.79633316956178      H 
$end
 
 Bond Distances (Angstroems)
 ---------------------------
S1-O2=1.4276         S1-O3=1.5309         S1-O4=1.4298         S1-O5=1.5701         O2-S1=1.4276         O3-S1=1.5309         
O3-H19=1.0635        O4-S1=1.4298         O5-S1=1.5701         O5-H6=0.9553         H6-O5=0.9553         O7-H8=0.9779         
O7-H9=0.9598         H8-O7=0.9779         H9-O7=0.9598         O10-H11=0.9592       O10-H12=0.9736       H11-O10=0.9592       
H12-O10=0.9736       O13-H14=0.9854       O13-H15=0.9648       H14-O13=0.9854       H15-O13=0.9648       O16-H17=0.9654       
O16-H18=1.0016       H17-O16=0.9654       H18-O16=1.0016       H19-O3=1.0635        
 O  H  Rav=0.9806 sigma=0.0307  Rmin=0.9553  Rmax=1.0635    10
 S  O  Rav=1.4896 sigma=0.0625  Rmin=1.4276  Rmax=1.5701     4
 
 selected bond angles (degree)
 --------------------
O3-S1-O2=109.42                O4-S1-O2=117.38                O4-S1-O3=111.07                O5-S1-O2=109.10                
O5-S1-O3=102.33                O5-S1-O4=106.41                H19-O3-S1=104.87               H6-O5-S1=108.36                
H9-O7-H8=105.41                H12-O10-H11=106.46             
 
 selected dihedral angles (degree)
 ---------------------------------
H19-O3-S1-O2= 30.21           H19-O3-S1-O4=259.03           H19-O3-S1-O5=145.82           H6-O5-S1-O2= 37.86            
H6-O5-S1-O3=282.02            H6-O5-S1-O4=165.41            
 
 CMA Distance (Angstroems)
 ---------------------------
R(CMA):  2.6624

========================================================================
 FINAL SINGLEPOINT CALCULATION ON OPTIMIZED GEOMETRY
========================================================================

 Ncao       : 52
 Nao        : 51
 Nshell     : 29
 Nel        : 64
 T(el)      :   300.0
 intcut     :    25.0
 scfconv/Eh :  0.100E-05
   qconv/e  :  0.100E-03
 intneglect :  0.100E-07
 broydamp   :      0.250
 iter      E             dE          RMSdq      gap      omega  full diag
   1    -41.1233761 -0.411234E+02  0.385E-05    8.24       0.0  T
   2    -41.1233761 -0.738964E-12  0.258E-05    8.24     889.3  T
   3    -41.1233761 -0.426326E-12  0.771E-06    8.24    2977.3  T
speedup  1.11
cpu  time for SCC    0.00 s
wall time for SCC    0.00 s

   *** convergence criteria satisfied after 3 iterations ***

          eigenvalues
 #    :          20         21         22         23         24         25         26         27
 occ. :        2.000      2.000      2.000      2.000      2.000      2.000      2.000      2.000
 eps  :       -14.645    -14.277    -14.105    -13.923    -13.594    -13.391    -13.329    -13.192
 #    :          28         29         30         31         32         33         34         35
 occ. :        2.000      2.000      2.000      2.000      2.000      0.000      0.000      0.000
 eps  :       -12.918    -12.861    -12.154    -12.116    -11.895     -3.660     -1.652     -0.896
 #    :          36         37         38         39         40         41         42         43
 occ. :        0.000      0.000      0.000      0.000      0.000      0.000      0.000      0.000
 eps  :         0.153      0.709      1.813      2.856      3.528      4.257      5.081      6.104


   #   Z            q   n(s)   n(p)   n(d)      C6AA      α(0)
   1  16 S      1.723  1.578  1.762  0.937    88.239    15.810
   2   8 O     -0.699  1.761  4.938  0.000    28.679     7.180
   3   8 O     -0.640  1.765  4.875  0.000    26.141     6.901
   4   8 O     -0.682  1.755  4.927  0.000    28.221     7.123
   5   8 O     -0.567  1.741  4.826  0.000    24.385     6.666
   6   1 H      0.362  0.638  0.000  0.000     0.555     1.168
   7   8 O     -0.608  1.748  4.860  0.000    25.386     6.800
   8   1 H      0.324  0.676  0.000  0.000     0.652     1.269
   9   1 H      0.291  0.709  0.000  0.000     0.748     1.359
  10   8 O     -0.602  1.741  4.860  0.000    25.226     6.779
  11   1 H      0.291  0.709  0.000  0.000     0.750     1.360
  12   1 H      0.316  0.684  0.000  0.000     0.674     1.290
  13   8 O     -0.625  1.753  4.873  0.000    25.806     6.856
  14   1 H      0.335  0.665  0.000  0.000     0.625     1.242
  15   1 H      0.297  0.703  0.000  0.000     0.730     1.342
  16   8 O     -0.588  1.754  4.834  0.000    24.863     6.732
  17   1 H      0.319  0.681  0.000  0.000     0.666     1.282
  18   1 H      0.354  0.646  0.000  0.000     0.580     1.196
  19   1 H      0.398  0.602  0.000  0.000     0.482     1.087

 Mol. C6AA /au·bohr⁶  :       3360.863140
 Mol. C8AA /au·bohr⁸  :      75944.004401
 Mol. α(0) /au        :         83.441400

 
 Wiberg/Mayer (AO) data. WBOs > 0.1 written file <wbo>
 largest (>0.05) Wiberg bond orders for each atom
           total WBO             WBO to atom ...
     1  S   4.819    O    2 1.422    O    4 1.397    O    3 1.026    O    5 0.939
     2  O   1.750    S    1 1.422    O    4 0.122    O    3 0.100    O    5 0.086
     3  O   1.945    S    1 1.026    H   19 0.598    O    2 0.100    O    4 0.095    O   16 0.066    O    5 0.055
     4  O   1.786    S    1 1.397    O    2 0.122    O    3 0.095    O    5 0.069
     5  O   2.006    S    1 0.939    H    6 0.851    O    2 0.086    O    4 0.069    O    3 0.055
     6  H   0.869    O    5 0.851
     7  O   1.875    H    9 0.911    H    8 0.841    H   14 0.063
     8  H   0.895    O    7 0.841    O   10 0.052
     9  H   0.915    O    7 0.911
    10  O   1.868    H   11 0.913    H   12 0.854    H    8 0.052
    11  H   0.915    O   10 0.913
    12  H   0.900    O   10 0.854
    13  O   1.891    H   15 0.886    H   14 0.823    H   18 0.093
    14  H   0.888    O   13 0.823    O    7 0.063
    15  H   0.912    O   13 0.886
    16  O   2.013    H   17 0.886    H   18 0.780    H   19 0.225    O    3 0.066
    17  H   0.898    O   16 0.886
    18  H   0.875    O   16 0.780    O   13 0.093
    19  H   0.842    O    3 0.598    O   16 0.225
 MOs/occ written to file <molden.input>
 
molecular dipole:
                 x           y           z       tot (Debye)
 q only:        0.303       0.851       0.095
   full:        0.725       1.201      -0.276       3.633
molecular quadrupole (traceless):
                xx          xy          yy          xz          yz          zz
 q only:       -3.410       0.862       7.109      -1.673       4.321      -3.699
  q+dip:       -5.321       0.435       9.160      -1.235       5.624      -3.839
   full:       -5.423       0.541       9.286      -1.536       5.606      -3.862

SCC energy    :     -41.1233761
rep           :       0.2116071
ES            :       0.1864523
AES           :      -0.0400142
AXC           :      -0.0098619
disp          :      -0.0135679
XB            :       0.0000000
fix           :       0.0000000
total E       :     -40.9116720
atomizationE  :       3.7058592     2325.46
(atE without considering molecular charge,
 total energy contains solvation terms)
H-L gap (eV)  :          8.2358
optimized geometry written to: xtbopt.xyz


------------------------------------------------------------------------
 * finished run on 2019/09/03 at 10:20:41.334     
------------------------------------------------------------------------
 total:
 * wall-time:     0 d,  0 h,  0 min,  1.770 sec
 *  cpu-time:     0 d,  0 h,  0 min,  1.749 sec
 * ratio c/w:     0.988 speedup
 SCF:
 * wall-time:     0 d,  0 h,  0 min,  0.095 sec
 *  cpu-time:     0 d,  0 h,  0 min,  0.092 sec
 * ratio c/w:     0.965 speedup
 ANC optimizer:
 * wall-time:     0 d,  0 h,  0 min,  1.653 sec
 *  cpu-time:     0 d,  0 h,  0 min,  1.637 sec
 * ratio c/w:     0.990 speedup

