      -----------------------------------------------------------      
     |                   =====================                   |     
     |                           x T B                           |     
     |                   =====================                   |     
     |                         S. Grimme                         |     
     |          Mulliken Center for Theoretical Chemistry        |     
     |                    University of Bonn                     |     
     |                 Version 6.0.1 (SAW181210)                 |     
      -----------------------------------------------------------      

   This program is distributed in the hope that it will be useful,
   but WITHOUT ANY WARRANTY; without even the implied warranty of
   MERCHANTABILITY or FITNESS FOR A PARTICULAR PURPOSE.
   
   FOR NON-COMMERCIAL, ACADEMIA USE ONLY.
   
   Cite this work as:
   S. Grimme, C. Bannwarth, P. Shushkov, J. Comput. Theory Chem., 2017,
   13, 1989-2009.
   C. Bannwarth, S. Ehlert and S. Grimme., ChemRxiv, 2018, preprint.
   http://doi.org/10.26434/chemrxiv.7246238.v1
   
   for sTDA-xTB:
   S. Grimme and C. Bannwarth, J. Chem. Phys., 2016, 145, 054103.
   
   in the mass-spec context:
   V. Asgeirsson, C. Bauer and S. Grimme, Chem. Sci., 2017, 8, 4879.
   
   if GBSA is used:
   P. Shushkov, F. März and S. Grimme, unpublished.
   
   for ANC optimizer:
   S. Grimme, unpublished.
   Rational Function algorithm used in ANCopt:
   F. Eckert, P. Pulay, H.-J. Werner, J. Comput. Chem., 1997, 18, 1473.
   
   with help from (in alphabetical order)
   C. Bannwarth, F. Bohle, G. Brandenburg, E. Caldeweyher, M. Checinski,
   S. Dohm, S. Ehlert, S. Ehrlich, F. März, H. Neugebauer, J. Pisarek,
   P. Pracht, P. Shushkov, and S. Spicher.
   
 * started run on 2019/09/03 at 10:38:21.997     
========================================================================
 # omp threads = 1
========================================================================
number of atoms            : 19
number of electrons        : 64
charge                     : 0
spin                       : .0
first test random number   : .0819

########################################################################
# WARNING! Please study the warnings concerning your input carefully
#  - XTBPATH is not set, using XTBHOME instead
#  - the use of '-opt' is discouraged, please use '--opt' next time
#  - the use of '-chrg' is discouraged, please use '--chrg' next time
#  - the use of '-uhf' is discouraged, please use '--uhf' next time
########################################################################

           ------------------------------------------------- 
          |                 G F N 2 - x T B                 |
          | Geometry, Frequencies, Noncovalent interactions |
          |            JCTC 2018 parametrisation            |
           ------------------------------------------------- 
      method parameters     
 k(s)        :  1.8500
 k(p)        :  2.2300
 k(d)        :  2.2300
 k(f)        :  2.0000
 kEN (H0ij)  : -2.0000
 D4 a1       :  0.5200
 D4 a2       :  5.0000
 D4 s6       :  1.0000
 D4 s8       :  2.7000
 D4 s9       :  5.0000
 alphaj      :  2.0000


            Z     q(EN)     CN     RAES       Cart. coordinates
     1  S   6.0    0.64    4.30    4.25     4.55047     0.73667     0.91311
     2  O   6.0   -0.30    1.18    1.80     1.97633     0.90416     2.04177
     3  O   6.0   -0.30    1.16    1.80     4.59415    -1.30463    -1.02579
     4  O   6.0   -0.28    1.13    1.80     5.20696     3.19349    -0.29568
     5  O   6.0   -0.24    2.08    1.84     6.39877     0.16163     2.90449
     6  H   1.0    0.15    1.21    1.47     5.97652    -1.42121     3.68386
     7  O   6.0   -0.27    1.94    1.82    -4.98446    -4.19566     2.50686
     8  H   1.0    0.14    0.97    1.43    -6.06819    -4.50711     3.93626
     9  H   1.0    0.15    0.97    1.43    -3.29226    -4.48254     3.11412
    10  O   6.0   -0.28    2.03    1.83    -1.42600     1.03535    -1.84340
    11  H   1.0    0.17    1.02    1.43    -3.16496     1.11384    -1.31003
    12  H   1.0    0.18    1.04    1.43    -0.45093     1.02315    -0.30596
    13  O   6.0   -0.28    1.98    1.82    -6.05284     0.65563     0.43133
    14  H   1.0    0.15    0.97    1.43    -7.18117     1.36773     1.67004
    15  H   1.0    0.16    0.99    1.43    -6.32129    -1.14322     0.51330
    16  O   6.0   -0.21    2.90    2.54     2.58079     1.71160    -4.63853
    17  H   1.0    0.15    1.02    1.43     3.48951     0.19481    -4.03569
    18  H   1.0    0.14    1.02    1.43     0.76750     1.66553    -4.19143
    19  H   1.0    0.14    0.97    1.43     3.40110     3.29077    -4.06863

  Z AO/shell   Hii/eV     exponent
  1     Wed Apr 25 08:07:45 CEST 2018   EN: 2.200 GM2: 0.406  GM3: 0.0800  RAES: 1.40
     1s    -10.707211    1.230000
  8     Wed Apr 25 08:07:45 CEST 2018   EN: 3.440 GM2: 0.452  GM3:-0.0517  RAES: 1.80
     2s    -20.229985    2.439742
     2p    -15.503117    2.137023
 16     Tue Apr 24 11:44:34 CEST 2018   EN: 2.580 GM2: 0.340  GM3:-0.0502  RAES: 3.10
     3s    -20.029654    1.981333
     3p    -11.377694    2.025643
     3d     -0.420282    1.702555
 no old-style atom pair restraining (fixing) potential

molecular fragmentation (1/2 indicates fragments):
1111112222222222222
# atoms in fragment 1/2:     6    13
 fragment masses (1/2) :       97.07       73.07
CMA distance (Bohr)    :   7.264
constraining FC (au)   :  0.0500
           ------------------------------------------------- 
          |        Self-Consistent Charge Iterations        |
           ------------------------------------------------- 

 Ncao       : 52
 Nao        : 51
 Nshell     : 29
 Nel        : 64
 T(el)      :   300.0
 intcut     :    25.0
 scfconv/Eh :  0.100E-05
   qconv/e  :  0.100E-03
 intneglect :  0.100E-07
 broydamp   :      0.250
 iter      E             dE          RMSdq      gap      omega  full diag
   1    -40.9761523 -0.409762E+02  0.771E+00   10.69       0.0  T
   2    -41.0198013 -0.436490E-01  0.556E+00   10.12       1.0  T
   3    -41.0523791 -0.325778E-01  0.150E+00    8.38       1.0  T
   4    -41.0567856 -0.440648E-02  0.610E-01    8.30       1.0  T
   5    -41.0573700 -0.584393E-03  0.333E-01    8.20       1.0  T
   6    -41.0577114 -0.341478E-03  0.146E-01    8.21       1.0  T
   7    -41.0577935 -0.820663E-04  0.515E-02    8.28       1.0  T
   8    -41.0578029 -0.937606E-05  0.306E-02    8.28       1.0  T
   9    -41.0578070 -0.411668E-05  0.105E-02    8.27       2.2  T
  10    -41.0578075 -0.466137E-06  0.256E-03    8.27       9.0  T
  11    -41.0578075 -0.167764E-07  0.105E-03    8.27      21.9  T
  12    -41.0578075 -0.386145E-08  0.447E-04    8.27      51.4  T
  13    -41.0578075 -0.696353E-09  0.114E-04    8.27     200.9  T
speedup  0.97
cpu  time for SCC    0.01 s
wall time for SCC    0.01 s

   *** convergence criteria satisfied after 13 iterations ***

          eigenvalues
 #    :          20         21         22         23         24         25         26         27
 occ. :        2.000      2.000      2.000      2.000      2.000      2.000      2.000      2.000
 eps  :       -13.815    -13.170    -12.554    -12.451    -12.311    -12.001    -11.427    -11.324
 #    :          28         29         30         31         32         33         34         35
 occ. :        2.000      2.000      2.000      2.000      2.000      0.000      0.000      0.000
 eps  :       -11.110    -10.998    -10.561    -10.452    -10.226     -1.956     -0.696      0.416
 #    :          36         37         38         39         40         41         42         43
 occ. :        0.000      0.000      0.000      0.000      0.000      0.000      0.000      0.000
 eps  :         1.102      1.607      1.997      2.477      4.221      4.395      5.172      6.235


   #   Z            q   n(s)   n(p)   n(d)      C6AA      α(0)
   1  16 S      1.527  1.589  1.883  1.000    92.796    16.213
   2   8 O     -0.751  1.780  4.972  0.000    30.147     7.362
   3   8 O     -0.768  1.775  4.992  0.000    30.624     7.420
   4   8 O     -0.737  1.770  4.966  0.000    29.725     7.310
   5   8 O     -0.531  1.714  4.817  0.000    23.574     6.555
   6   1 H      0.354  0.646  0.000  0.000     0.570     1.182
   7   8 O     -0.569  1.737  4.831  0.000    24.455     6.674
   8   1 H      0.282  0.718  0.000  0.000     0.779     1.386
   9   1 H      0.298  0.702  0.000  0.000     0.726     1.339
  10   8 O     -0.655  1.732  4.923  0.000    26.537     6.953
  11   1 H      0.327  0.673  0.000  0.000     0.644     1.261
  12   1 H      0.323  0.677  0.000  0.000     0.655     1.272
  13   8 O     -0.585  1.738  4.848  0.000    24.841     6.727
  14   1 H      0.282  0.718  0.000  0.000     0.779     1.386
  15   1 H      0.313  0.687  0.000  0.000     0.682     1.298
  16   8 O     -0.378  1.624  4.754  0.000    20.376     6.096
  17   1 H      0.424  0.576  0.000  0.000     0.443     1.046
  18   1 H      0.431  0.569  0.000  0.000     0.432     1.033
  19   1 H      0.413  0.587  0.000  0.000     0.461     1.067

 Mol. C6AA /au·bohr⁶  :       3373.409874
 Mol. C8AA /au·bohr⁸  :      76655.888390
 Mol. α(0) /au        :         83.577141

 
 Wiberg/Mayer (AO) data. WBOs > 0.1 written file <wbo>
 largest (>0.05) Wiberg bond orders for each atom
           total WBO             WBO to atom ...
     1  S   4.981    O    4 1.359    O    2 1.310    O    3 1.287    O    5 1.003
     2  O   1.681    S    1 1.310    O    4 0.116    O    3 0.114    O    5 0.074
     3  O   1.669    S    1 1.287    O    4 0.116    O    2 0.114    O    5 0.071    H   17 0.057
     4  O   1.685    S    1 1.359    O    2 0.116    O    3 0.116    O    5 0.055
     5  O   2.057    S    1 1.003    H    6 0.850    O    2 0.074    O    3 0.071    O    4 0.055
     6  H   0.875    O    5 0.850
     7  O   1.852    H    8 0.920    H    9 0.909
     8  H   0.921    O    7 0.920
     9  H   0.911    O    7 0.909
    10  O   1.835    H   11 0.851    H   12 0.847    H   18 0.070
    11  H   0.893    O   10 0.851
    12  H   0.896    O   10 0.847
    13  O   1.849    H   14 0.913    H   15 0.885
    14  H   0.920    O   13 0.913
    15  H   0.902    O   13 0.885
    16  O   2.365    H   19 0.808    H   17 0.757    H   18 0.738
    17  H   0.820    O   16 0.757    O    3 0.057
    18  H   0.815    O   16 0.738    O   10 0.070
    19  H   0.829    O   16 0.808
 MOs/occ written to file <molden.input>
 
molecular dipole:
                 x           y           z       tot (Debye)
 q only:       -1.505      -0.540      -1.147
   full:       -1.374      -0.947       0.107       4.251
molecular quadrupole (traceless):
                xx          xy          yy          xz          yz          zz
 q only:       -8.177      -2.912      -6.764     -12.636     -16.316      14.941
  q+dip:       -3.715      -3.585      -8.536     -12.117     -17.771      12.251
   full:       -3.459      -3.690      -8.834     -12.009     -17.987      12.293

SCC energy    :     -41.0578075
rep           :       0.2162824
ES            :       0.2592125
AES           :      -0.0472487
AXC           :      -0.0107525
disp          :      -0.0106453
XB            :       0.0000000
fix           :       0.0000000
total E       :     -40.8414559
atomizationE  :       3.6356431     2281.40
(atE without considering molecular charge,
 total energy contains solvation terms)
H-L gap (eV)  :          8.2699
           ------------------------------------------------- 
          |                 ===============                 |
          |                   A N C O P T                   |
          |                 ===============                 |
          |          Approximate Normal Coordinate          |
          |           Rational Function Optimizer           |
           ------------------------------------------------- 
dumping coords to <xtbopt.coord> and <xtbopt.log>
 optlevel               2
 Maxcycle             380
 Maxmicro              25
 Econv         1.000000000000000E-007
 Gconv         2.000000000000000E-004
 Maxdispl       1.00000000000000     
 Hlow          5.000000000000000E-003
 S6             20.0000000000000     
 Nvar               51

generating ANC from model Hessian ...
 Shifting diagonal of input Hessian by   5.109869057897818E-003
 Lowest  eigenvalues of input Hessian
    0.005000    0.005090   -0.000000   -0.000000   -0.000000   -0.000000
   -0.000000    0.000000    0.005171    0.005282    0.005650    0.005750
    0.005995    0.006107    0.006979    0.007496    0.007723    0.007920
 Highest eigenvalues
    1.450304    1.542137    1.549953    3.131009    3.204755    3.306181
 
cpu  time for ANC gen    0.00 s
wall time for ANC gen    0.00 s
................................................................................
.............................. CYCLE    1 ......................................
................................................................................
   1    -41.0578075 -0.410578E+02  0.732E-05    8.27       0.0  T
   2    -41.0578075 -0.677858E-11  0.568E-05    8.27     403.9  T
   3    -41.0578075 -0.824230E-11  0.236E-05    8.27     971.8  T
speedup  1.00
cpu  time for SCC    0.00 s
wall time for SCC    0.00 s
speedup  1.00
cpu  time for grad    0.01 s
wall time for grad    0.01 s
 E :    -40.84145588  G :  0.163428    pred/act E change:  0.000D+00  0.266D-07
Maxdispl :   0.3445   ||displ|| :   0.5626   Lambda : -0.278D-01
Largest |displ|/coords:  0.3445 (  22)  0.2588 (   6)  0.1463 (  24)
................................................................................
.............................. CYCLE    2 ......................................
................................................................................
   1    -41.0732775 -0.410733E+02  0.579E-01    8.86       0.0  T
   2    -41.0734103 -0.132767E-03  0.440E-01    8.92       1.0  T
   3    -41.0734774 -0.670945E-04  0.944E-02    9.03       1.0  T
   4    -41.0734992 -0.218189E-04  0.234E-02    9.01       1.0  T
   5    -41.0735000 -0.845819E-06  0.823E-03    9.01       2.8  T
   6    -41.0735001 -0.830939E-07  0.475E-03    9.01       4.8  T
   7    -41.0735002 -0.664447E-07  0.220E-03    9.01      10.4  T
speedup  0.93
cpu  time for SCC    0.00 s
wall time for SCC    0.00 s
speedup  1.01
cpu  time for grad    0.01 s
wall time for grad    0.01 s
 E :    -40.86548610  G :  0.110797    pred/act E change:  0.000D+00 -0.240D-01
Maxdispl :   0.3767   ||displ|| :   0.5832   Lambda : -0.199D-01
Largest |displ|/coords:  0.3767 (  22)  0.2687 (   6)  0.1368 (  10)
................................................................................
.............................. CYCLE    3 ......................................
................................................................................
   1    -41.0844882 -0.410845E+02  0.455E-01    9.15       0.0  T
   2    -41.0848455 -0.357286E-03  0.331E-01    9.18       1.0  T
   3    -41.0850034 -0.157862E-03  0.124E-01    9.24       1.0  T
   4    -41.0850221 -0.186932E-04  0.298E-02    9.23       1.0  T
   5    -41.0850234 -0.128229E-05  0.114E-02    9.23       2.0  T
   6    -41.0850236 -0.223242E-06  0.613E-03    9.23       3.7  T
   7    -41.0850237 -0.125414E-06  0.312E-03    9.23       7.3  T
   8    -41.0850237 -0.411621E-07  0.119E-03    9.23      19.3  T
speedup  0.61
cpu  time for SCC    0.00 s
wall time for SCC    0.00 s
speedup  0.84
cpu  time for grad    0.01 s
wall time for grad    0.01 s
 E :    -40.88090212  G :  0.070408    pred/act E change: -0.183D-01 -0.154D-01
Maxdispl :   0.1850   ||displ|| :   0.4405   Lambda : -0.743D-02
Largest |displ|/coords:  0.1850 (  10)  0.1826 (   6)  0.1627 (  22)
................................................................................
.............................. CYCLE    4 ......................................
................................................................................
   1    -41.0834612 -0.410835E+02  0.409E-01    9.19       0.0  T
   2    -41.0837380 -0.276760E-03  0.299E-01    9.21       1.0  T
   3    -41.0838540 -0.116077E-03  0.104E-01    9.25       1.0  T
   4    -41.0838728 -0.187628E-04  0.220E-02    9.24       1.0  T
   5    -41.0838734 -0.596637E-06  0.848E-03    9.24       2.7  T
   6    -41.0838735 -0.101816E-06  0.461E-03    9.24       5.0  T
   7    -41.0838736 -0.626024E-07  0.218E-03    9.24      10.5  T
speedup  0.93
cpu  time for SCC    0.00 s
wall time for SCC    0.00 s
speedup  0.97
cpu  time for grad    0.01 s
wall time for grad    0.01 s
 E :    -40.88551985  G :  0.050786    pred/act E change: -0.134D-01 -0.462D-02
Maxdispl :   0.1155   ||displ|| :   0.3018   Lambda : -0.329D-02
Largest |displ|/coords:  0.1155 (  11)  0.1122 (   8)  0.1071 (  10)
................................................................................
.............................. CYCLE    5 ......................................
................................................................................
   1    -41.0869399 -0.410869E+02  0.241E-01    9.18       0.0  T
   2    -41.0870031 -0.631943E-04  0.177E-01    9.19       1.0  T
   3    -41.0870271 -0.240615E-04  0.503E-02    9.21       1.0  T
   4    -41.0870330 -0.586925E-05  0.186E-02    9.21       1.2  T
   5    -41.0870334 -0.350403E-06  0.421E-03    9.21       5.4  T
   6    -41.0870334 -0.277732E-07  0.207E-03    9.21      11.1  T
speedup  0.79
cpu  time for SCC    0.00 s
wall time for SCC    0.00 s
speedup  0.95
cpu  time for grad    0.01 s
wall time for grad    0.01 s
 E :    -40.88728421  G :  0.032933    pred/act E change: -0.444D-02 -0.176D-02
Maxdispl :   0.2767   ||displ|| :   0.4988   Lambda : -0.388D-02
Largest |displ|/coords:  0.2767 (  11)  0.2008 (  13)  0.1579 (  15)
................................................................................
.............................. CYCLE    6 ......................................
................................................................................
   1    -41.0822399 -0.410822E+02  0.535E-01    9.04       0.0  T
   2    -41.0823404 -0.100494E-03  0.403E-01    9.06       1.0  T
   3    -41.0823891 -0.486527E-04  0.759E-02    9.10       1.0  T
   4    -41.0824054 -0.162690E-04  0.295E-02    9.09       1.0  T
   5    -41.0824061 -0.736571E-06  0.597E-03    9.09       3.8  T
   6    -41.0824061 -0.340001E-07  0.341E-03    9.09       6.7  T
speedup  0.81
cpu  time for SCC    0.00 s
wall time for SCC    0.00 s
speedup  0.95
cpu  time for grad    0.01 s
wall time for grad    0.01 s
 E :    -40.88811213  G :  0.043554    pred/act E change: -0.180D-02 -0.828D-03
Maxdispl :   0.1912   ||displ|| :   0.4132   Lambda : -0.555D-02
Largest |displ|/coords:  0.1912 (  10)  0.1546 (  11)  0.1545 (  20)
................................................................................
.............................. CYCLE    7 ......................................
................................................................................
   1    -41.0921932 -0.410922E+02  0.539E-01    8.93       0.0  T
   2    -41.0924055 -0.212282E-03  0.396E-01    8.96       1.0  T
   3    -41.0925000 -0.945053E-04  0.105E-01    8.99       1.0  T
   4    -41.0925220 -0.220056E-04  0.273E-02    8.98       1.0  T
   5    -41.0925233 -0.125548E-05  0.818E-03    8.98       2.8  T
   6    -41.0925233 -0.436027E-07  0.412E-03    8.98       5.6  T
   7    -41.0925233 -0.315667E-07  0.183E-03    8.98      12.5  T
speedup  0.93
cpu  time for SCC    0.00 s
wall time for SCC    0.00 s
speedup  1.00
cpu  time for grad    0.01 s
wall time for grad    0.01 s
 E :    -40.88811672  G :  0.041763    pred/act E change: -0.242D-02 -0.459D-05
Maxdispl :   0.1577   ||displ|| :   0.3358   Lambda : -0.384D-02
Largest |displ|/coords:  0.1577 (  11)  0.1459 (   6)  0.1280 (  17)
................................................................................
.............................. CYCLE    8 ......................................
................................................................................
   1    -41.0893804 -0.410894E+02  0.323E-01    9.23       0.0  T
   2    -41.0894353 -0.549045E-04  0.236E-01    9.22       1.0  T
   3    -41.0894611 -0.257524E-04  0.605E-02    9.19       1.0  T
   4    -41.0894668 -0.570171E-05  0.189E-02    9.20       1.2  T
   5    -41.0894671 -0.304562E-06  0.419E-03    9.20       5.5  T
   6    -41.0894671 -0.270652E-07  0.249E-03    9.20       9.2  T
speedup  1.08
cpu  time for SCC    0.00 s
wall time for SCC    0.00 s
speedup  1.07
cpu  time for grad    0.01 s
wall time for grad    0.01 s
 E :    -40.88968504  G :  0.023943    pred/act E change: -0.325D-02 -0.157D-02
Maxdispl :   0.2088   ||displ|| :   0.3652   Lambda : -0.263D-02
Largest |displ|/coords:  0.2088 (  10)  0.1580 (  16)  0.1106 (  15)
................................................................................
.............................. CYCLE    9 ......................................
................................................................................
   1    -41.0966707 -0.410967E+02  0.358E-01    9.28       0.0  T
   2    -41.0967476 -0.769221E-04  0.268E-01    9.27       1.0  T
   3    -41.0967839 -0.363047E-04  0.691E-02    9.26       1.0  T
   4    -41.0967932 -0.928267E-05  0.186E-02    9.26       1.2  T
   5    -41.0967941 -0.829351E-06  0.505E-03    9.26       4.5  T
   6    -41.0967941 -0.121336E-07  0.298E-03    9.26       7.7  T
speedup  0.83
cpu  time for SCC    0.00 s
wall time for SCC    0.00 s
speedup  0.96
cpu  time for grad    0.01 s
wall time for grad    0.01 s
 E :    -40.88903613  G :  0.034318    pred/act E change: -0.214D-02  0.649D-03
Maxdispl :   0.1671   ||displ|| :   0.2801   Lambda : -0.271D-02
Largest |displ|/coords:  0.1671 (  10)  0.1077 (  14)  0.0693 (  16)
................................................................................
.............................. CYCLE   10 ......................................
................................................................................
   1    -41.0900872 -0.410901E+02  0.281E-01    9.16       0.0  T
   2    -41.0901124 -0.251886E-04  0.212E-01    9.16       1.0  T
   3    -41.0901277 -0.152281E-04  0.374E-02    9.18       1.0  T
   4    -41.0901314 -0.371438E-05  0.127E-02    9.17       1.8  T
   5    -41.0901316 -0.205610E-06  0.324E-03    9.17       7.1  T
   6    -41.0901316 -0.735768E-08  0.183E-03    9.17      12.6  T
speedup  1.00
cpu  time for SCC    0.00 s
wall time for SCC    0.00 s
speedup  0.92
cpu  time for grad    0.01 s
wall time for grad    0.01 s
 E :    -40.89065497  G :  0.019908    pred/act E change: -0.149D-02 -0.162D-02
Maxdispl :   0.1667   ||displ|| :   0.2997   Lambda : -0.123D-02
Largest |displ|/coords:  0.1667 (   2)  0.1044 (  10)  0.0858 (  13)
................................................................................
.............................. CYCLE   11 ......................................
................................................................................
   1    -41.0942834 -0.410943E+02  0.252E-01    9.20       0.0  T
   2    -41.0943183 -0.349638E-04  0.186E-01    9.21       1.0  T
   3    -41.0943354 -0.171233E-04  0.395E-02    9.22       1.0  T
   4    -41.0943400 -0.455254E-05  0.780E-03    9.21       2.9  T
   5    -41.0943401 -0.890575E-07  0.337E-03    9.21       6.8  T
   6    -41.0943401 -0.662589E-08  0.165E-03    9.21      13.9  T
   7    -41.0943401 -0.351513E-08  0.526E-04    9.21      43.6  T
speedup  0.93
cpu  time for SCC    0.00 s
wall time for SCC    0.00 s
speedup  0.99
cpu  time for grad    0.01 s
wall time for grad    0.01 s
 E :    -40.89042630  G :  0.027410    pred/act E change: -0.146D-02  0.229D-03
Maxdispl :   0.1267   ||displ|| :   0.2571   Lambda : -0.188D-02
Largest |displ|/coords:  0.1267 (   2)  0.0952 (  14)  0.0881 (   8)
................................................................................
.............................. CYCLE   12 ......................................
................................................................................
   1    -41.0944839 -0.410945E+02  0.291E-01    9.23       0.0  T
   2    -41.0945071 -0.232296E-04  0.221E-01    9.23       1.0  T
   3    -41.0945242 -0.171289E-04  0.304E-02    9.23       1.0  T
   4    -41.0945275 -0.329796E-05  0.607E-03    9.23       3.8  T
   5    -41.0945276 -0.385261E-07  0.275E-03    9.23       8.3  T
   6    -41.0945276 -0.715534E-08  0.139E-03    9.23      16.5  T
speedup  1.08
cpu  time for SCC    0.00 s
wall time for SCC    0.00 s
speedup  0.94
cpu  time for grad    0.01 s
wall time for grad    0.01 s
 E :    -40.89137799  G :  0.020174    pred/act E change: -0.673D-03 -0.952D-03
Maxdispl :   0.2232   ||displ|| :   0.4229   Lambda : -0.207D-02
Largest |displ|/coords:  0.2232 (  15)  0.1600 (   2)  0.1481 (   3)
................................................................................
.............................. CYCLE   13 ......................................
................................................................................
   1    -41.0840032 -0.410840E+02  0.370E-01    9.28       0.0  T
   2    -41.0840696 -0.664186E-04  0.275E-01    9.28       1.0  T
   3    -41.0841049 -0.352645E-04  0.603E-02    9.27       1.0  T
   4    -41.0841131 -0.814447E-05  0.176E-02    9.27       1.3  T
   5    -41.0841137 -0.679387E-06  0.507E-03    9.27       4.5  T
   6    -41.0841138 -0.180508E-07  0.321E-03    9.27       7.1  T
speedup  1.08
cpu  time for SCC    0.00 s
wall time for SCC    0.00 s
speedup  0.94
cpu  time for grad    0.01 s
wall time for grad    0.01 s
 E :    -40.89080683  G :  0.041213    pred/act E change: -0.100D-02  0.571D-03
Maxdispl :   0.1176   ||displ|| :   0.2426   Lambda : -0.317D-02
Largest |displ|/coords:  0.1176 (   2)  0.0907 (  15)  0.0890 (   8)
................................................................................
.............................. CYCLE   14 ......................................
................................................................................
   1    -41.0952440 -0.410952E+02  0.245E-01    9.24       0.0  T
   2    -41.0952717 -0.277005E-04  0.181E-01    9.24       1.0  T
   3    -41.0952870 -0.152960E-04  0.350E-02    9.24       1.0  T
   4    -41.0952904 -0.341289E-05  0.590E-03    9.24       3.9  T
   5    -41.0952905 -0.329765E-07  0.355E-03    9.24       6.5  T
speedup  0.94
cpu  time for SCC    0.00 s
wall time for SCC    0.00 s
speedup  1.00
cpu  time for grad    0.01 s
wall time for grad    0.01 s
 E :    -40.89255338  G :  0.015520    pred/act E change: -0.122D-02 -0.175D-02
Maxdispl :   0.2966   ||displ|| :   0.4596   Lambda : -0.146D-02
Largest |displ|/coords:  0.2966 (   2)  0.1892 (   3)  0.1054 (  22)
................................................................................
.............................. CYCLE   15 ......................................
................................................................................
   1    -41.0972290 -0.410972E+02  0.295E-01    9.27       0.0  T
   2    -41.0973169 -0.878832E-04  0.218E-01    9.26       1.0  T
   3    -41.0973559 -0.389600E-04  0.592E-02    9.22       1.0  T
   4    -41.0973662 -0.103630E-04  0.153E-02    9.22       1.5  T
   5    -41.0973665 -0.243331E-06  0.571E-03    9.22       4.0  T
   6    -41.0973665 -0.229624E-07  0.291E-03    9.22       7.9  T
   7    -41.0973665 -0.102188E-07  0.851E-04    9.22      27.0  T
speedup  0.93
cpu  time for SCC    0.00 s
wall time for SCC    0.00 s
speedup  0.99
cpu  time for grad    0.01 s
wall time for grad    0.01 s
 E :    -40.89335127  G :  0.023951    pred/act E change: -0.168D-02 -0.798D-03
Maxdispl :   0.4219   ||displ|| :   0.5902   Lambda : -0.170D-02
Largest |displ|/coords:  0.4219 (   2)  0.1889 (   3)  0.1556 (   6)
................................................................................
.............................. CYCLE   16 ......................................
................................................................................
   1    -41.0996218 -0.410996E+02  0.311E-01    9.21       0.0  T
   2    -41.0997094 -0.876531E-04  0.235E-01    9.18       1.0  T
   3    -41.0997481 -0.386830E-04  0.611E-02    9.12       1.0  T
   4    -41.0997604 -0.122768E-04  0.214E-02    9.12       1.1  T
   5    -41.0997610 -0.671537E-06  0.625E-03    9.13       3.7  T
   6    -41.0997611 -0.343091E-07  0.332E-03    9.13       6.9  T
   7    -41.0997611 -0.125708E-07  0.938E-04    9.13      24.4  T
speedup  1.16
cpu  time for SCC    0.01 s
wall time for SCC    0.00 s
speedup  1.10
cpu  time for grad    0.01 s
wall time for grad    0.01 s
 E :    -40.89465956  G :  0.030492    pred/act E change: -0.885D-03 -0.131D-02
Maxdispl :   0.3738   ||displ|| :   0.6434   Lambda : -0.320D-02
Largest |displ|/coords:  0.3738 (   2)  0.2837 (   3)  0.2569 (   6)
................................................................................
.............................. CYCLE   17 ......................................
................................................................................
   1    -41.1057468 -0.411057E+02  0.384E-01    9.22       0.0  T
   2    -41.1058725 -0.125739E-03  0.289E-01    9.18       1.0  T
   3    -41.1059341 -0.615688E-04  0.748E-02    9.05       1.0  T
   4    -41.1059495 -0.154263E-04  0.246E-02    9.07       1.0  T
   5    -41.1059507 -0.114913E-05  0.710E-03    9.08       3.2  T
   6    -41.1059507 -0.495659E-07  0.401E-03    9.08       5.7  T
   7    -41.1059507 -0.174854E-07  0.117E-03    9.08      19.6  T
speedup  1.16
cpu  time for SCC    0.00 s
wall time for SCC    0.00 s
speedup  0.98
cpu  time for grad    0.01 s
wall time for grad    0.01 s
 E :    -40.89646472  G :  0.036851    pred/act E change: -0.115D-02 -0.181D-02
Maxdispl :   0.3219   ||displ|| :   0.5998   Lambda : -0.289D-02
Largest |displ|/coords:  0.3219 (   2)  0.2584 (   3)  0.2205 (   6)
................................................................................
.............................. CYCLE   18 ......................................
................................................................................
   1    -41.1052628 -0.411053E+02  0.449E-01    8.85       0.0  T
   2    -41.1053619 -0.991029E-04  0.339E-01    8.82       1.0  T
   3    -41.1054105 -0.485566E-04  0.707E-02    8.76       1.0  T
   4    -41.1054252 -0.147201E-04  0.265E-02    8.76       1.0  T
   5    -41.1054262 -0.970014E-06  0.622E-03    8.76       3.7  T
   6    -41.1054262 -0.403449E-07  0.360E-03    8.76       6.4  T
   7    -41.1054262 -0.160715E-07  0.140E-03    8.77      16.4  T
speedup  1.16
cpu  time for SCC    0.00 s
wall time for SCC    0.00 s
speedup  0.98
cpu  time for grad    0.01 s
wall time for grad    0.01 s
 E :    -40.89755402  G :  0.054124    pred/act E change: -0.226D-02 -0.109D-02
Maxdispl :   0.2803   ||displ|| :   0.5302   Lambda : -0.741D-02
Largest |displ|/coords:  0.2803 (  14)  0.1662 (  12)  0.1624 (   2)
................................................................................
.............................. CYCLE   19 ......................................
................................................................................
   1    -41.1083203 -0.411083E+02  0.744E-01    8.78       0.0  T
   2    -41.1085024 -0.182116E-03  0.568E-01    8.80       1.0  T
   3    -41.1086690 -0.166564E-03  0.929E-02    8.82       1.0  T
   4    -41.1086894 -0.203845E-04  0.350E-02    8.81       1.0  T
   5    -41.1086906 -0.122148E-05  0.108E-02    8.81       2.1  T
   6    -41.1086907 -0.746507E-07  0.532E-03    8.81       4.3  T
   7    -41.1086907 -0.295745E-07  0.184E-03    8.81      12.5  T
speedup  0.95
cpu  time for SCC    0.00 s
wall time for SCC    0.00 s
speedup  0.99
cpu  time for grad    0.01 s
wall time for grad    0.01 s
 E :    -40.89453482  G :  0.078804    pred/act E change: -0.196D-02  0.302D-02
Maxdispl :   0.2837   ||displ|| :   0.5287   Lambda : -0.164D-01
Largest |displ|/coords:  0.2837 (  14)  0.1745 (  11)  0.1664 (   7)
................................................................................
.............................. CYCLE   20 ......................................
................................................................................
   1    -41.1155945 -0.411156E+02  0.840E-01    8.73       0.0  T
   2    -41.1158998 -0.305304E-03  0.636E-01    8.70       1.0  T
   3    -41.1161106 -0.210776E-03  0.117E-01    8.57       1.0  T
   4    -41.1161523 -0.417680E-04  0.380E-02    8.59       1.0  T
   5    -41.1161546 -0.229691E-05  0.138E-02    8.61       1.7  T
   6    -41.1161548 -0.108777E-06  0.717E-03    8.61       3.2  T
   7    -41.1161548 -0.652507E-07  0.187E-03    8.61      12.2  T
   8    -41.1161548 -0.454718E-08  0.690E-04    8.61      33.2  T
speedup  0.98
cpu  time for SCC    0.01 s
wall time for SCC    0.01 s
speedup  1.00
cpu  time for grad    0.01 s
wall time for grad    0.01 s
 E :    -40.89786047  G :  0.059727    pred/act E change: -0.475D-02 -0.333D-02
Maxdispl :   0.1608   ||displ|| :   0.3593   Lambda : -0.890D-02
Largest |displ|/coords:  0.1608 (  22)  0.1427 (  16)  0.1245 (  21)
................................................................................
.............................. CYCLE   21 ......................................
................................................................................
   1    -41.1136566 -0.411137E+02  0.505E-01    8.76       0.0  T
   2    -41.1139493 -0.292712E-03  0.367E-01    8.81       1.0  T
   3    -41.1141145 -0.165125E-03  0.111E-01    8.90       1.0  T
   4    -41.1141381 -0.236622E-04  0.322E-02    8.90       1.0  T
   5    -41.1141393 -0.120821E-05  0.111E-02    8.90       2.1  T
   6    -41.1141395 -0.149095E-06  0.631E-03    8.90       3.6  T
   7    -41.1141395 -0.368369E-07  0.159E-03    8.90      14.4  T
   8    -41.1141395 -0.521342E-08  0.466E-04    8.90      49.3  T
speedup  1.04
cpu  time for SCC    0.01 s
wall time for SCC    0.00 s
speedup  0.93
cpu  time for grad    0.01 s
wall time for grad    0.01 s
 E :    -40.89713967  G :  0.056938    pred/act E change: -0.105D-01  0.721D-03
Maxdispl :   0.1763   ||displ|| :   0.4058   Lambda : -0.105D-01
Largest |displ|/coords:  0.1763 (   5)  0.1193 (  22)  0.1140 (  20)
................................................................................
.............................. CYCLE   22 ......................................
................................................................................
   1    -41.1038343 -0.411038E+02  0.525E-01    8.43       0.0  T
   2    -41.1041006 -0.266307E-03  0.384E-01    8.45       1.0  T
   3    -41.1042376 -0.136970E-03  0.108E-01    8.41       1.0  T
   4    -41.1042612 -0.235873E-04  0.308E-02    8.40       1.0  T
   5    -41.1042622 -0.995567E-06  0.109E-02    8.40       2.1  T
   6    -41.1042623 -0.118681E-06  0.583E-03    8.40       3.9  T
   7    -41.1042623 -0.367214E-07  0.186E-03    8.40      12.3  T
speedup  0.93
cpu  time for SCC    0.00 s
wall time for SCC    0.00 s
speedup  0.99
cpu  time for grad    0.01 s
wall time for grad    0.01 s
 E :    -40.89882232  G :  0.053158    pred/act E change: -0.503D-02 -0.168D-02
Maxdispl :   0.2114   ||displ|| :   0.4020   Lambda : -0.869D-02
Largest |displ|/coords:  0.2114 (   8)  0.2111 (   2)  0.1167 (  19)
................................................................................
.............................. CYCLE   23 ......................................
................................................................................
   1    -41.1255775 -0.411256E+02  0.452E-01    8.93       0.0  T
   2    -41.1256982 -0.120666E-03  0.334E-01    8.90       1.0  T
   3    -41.1257710 -0.728385E-04  0.733E-02    8.85       1.0  T
   4    -41.1257832 -0.122059E-04  0.233E-02    8.87       1.0  T
   5    -41.1257841 -0.902696E-06  0.792E-03    8.87       2.9  T
   6    -41.1257841 -0.226031E-07  0.401E-03    8.87       5.7  T
   7    -41.1257842 -0.212224E-07  0.975E-04    8.87      23.5  T
speedup  0.91
cpu  time for SCC    0.00 s
wall time for SCC    0.00 s
speedup  0.97
cpu  time for grad    0.01 s
wall time for grad    0.01 s
 E :    -40.89988762  G :  0.057613    pred/act E change: -0.612D-02 -0.107D-02
Maxdispl :   0.2153   ||displ|| :   0.3829   Lambda : -0.623D-02
Largest |displ|/coords:  0.2153 (   4)  0.1519 (   8)  0.1438 (   1)
................................................................................
.............................. CYCLE   24 ......................................
................................................................................
   1    -41.1089476 -0.411089E+02  0.393E-01    8.24       0.0  T
   2    -41.1090512 -0.103586E-03  0.294E-01    8.25       1.0  T
   3    -41.1090990 -0.478500E-04  0.752E-02    8.25       1.0  T
   4    -41.1091109 -0.118529E-04  0.252E-02    8.24       1.0  T
   5    -41.1091119 -0.104793E-05  0.692E-03    8.24       3.3  T
   6    -41.1091120 -0.377670E-07  0.377E-03    8.24       6.1  T
   7    -41.1091120 -0.135135E-07  0.120E-03    8.24      19.1  T
speedup  0.70
cpu  time for SCC    0.00 s
wall time for SCC    0.00 s
speedup  0.86
cpu  time for grad    0.01 s
wall time for grad    0.01 s
 E :    -40.90159889  G :  0.034113    pred/act E change: -0.505D-02 -0.171D-02
Maxdispl :   0.4117   ||displ|| :   0.4896   Lambda : -0.261D-02
Largest |displ|/coords:  0.4117 (   2)  0.2143 (   3)  0.0684 (   5)
................................................................................
.............................. CYCLE   25 ......................................
................................................................................
   1    -41.1157804 -0.411158E+02  0.236E-01    8.44       0.0  T
   2    -41.1157995 -0.190940E-04  0.176E-01    8.44       1.0  T
   3    -41.1158114 -0.119367E-04  0.340E-02    8.44       1.0  T
   4    -41.1158138 -0.245479E-05  0.110E-02    8.43       2.1  T
   5    -41.1158140 -0.155923E-06  0.321E-03    8.43       7.1  T
   6    -41.1158140 -0.813935E-08  0.183E-03    8.43      12.5  T
speedup  1.11
cpu  time for SCC    0.00 s
wall time for SCC    0.00 s
speedup  1.05
cpu  time for grad    0.01 s
wall time for grad    0.01 s
 E :    -40.90317586  G :  0.028446    pred/act E change: -0.357D-02 -0.158D-02
Maxdispl :   0.2475   ||displ|| :   0.4302   Lambda : -0.207D-02
Largest |displ|/coords:  0.2475 (   2)  0.2008 (   3)  0.1284 (   4)

generating ANC from model Hessian ...
 Shifting diagonal of input Hessian by   5.080830208967607E-003
 Lowest  eigenvalues of input Hessian
    0.005000   -0.000000   -0.000000   -0.000000    0.000000    0.000000
    0.000000    0.005116    0.005764    0.005813    0.006816    0.007131
    0.007284    0.008027    0.009295    0.010307    0.010428    0.013763
 Highest eigenvalues
    1.431851    1.443182    1.447190    2.489143    3.263884    3.992236
 
cpu  time for ANC gen    0.00 s
wall time for ANC gen    0.00 s
................................................................................
.............................. CYCLE   26 ......................................
................................................................................
   1    -41.1257302 -0.411257E+02  0.213E-01    8.45       0.0  T
   2    -41.1257526 -0.224277E-04  0.153E-01    8.42       1.0  T
   3    -41.1257678 -0.151557E-04  0.337E-02    8.38       1.0  T
   4    -41.1257695 -0.171757E-05  0.761E-03    8.39       3.0  T
   5    -41.1257696 -0.572407E-07  0.346E-03    8.39       6.6  T
   6    -41.1257696 -0.125939E-07  0.153E-03    8.39      15.0  T
   7    -41.1257696 -0.338710E-08  0.571E-04    8.39      40.2  T
   8    -41.1257696 -0.697220E-09  0.187E-04    8.39     122.8  T
speedup  0.82
cpu  time for SCC    0.00 s
wall time for SCC    0.00 s
speedup  0.98
cpu  time for grad    0.01 s
wall time for grad    0.01 s
 E :    -40.90390775  G :  0.034061    pred/act E change:  0.000D+00 -0.732D-03
Maxdispl :   0.1357   ||displ|| :   0.2971   Lambda : -0.200D-02
Largest |displ|/coords:  0.1357 (   6)  0.1059 (  14)  0.0947 (  13)
................................................................................
.............................. CYCLE   27 ......................................
................................................................................
   1    -41.1227304 -0.411227E+02  0.276E-01    8.36       0.0  T
   2    -41.1227412 -0.108404E-04  0.208E-01    8.36       1.0  T
   3    -41.1227508 -0.959759E-05  0.265E-02    8.37       1.0  T
   4    -41.1227523 -0.144754E-05  0.103E-02    8.36       2.2  T
   5    -41.1227524 -0.683810E-07  0.281E-03    8.36       8.2  T
   6    -41.1227524 -0.558149E-08  0.160E-03    8.36      14.4  T
speedup  1.08
cpu  time for SCC    0.00 s
wall time for SCC    0.00 s
speedup  1.03
cpu  time for grad    0.01 s
wall time for grad    0.01 s
 E :    -40.90531838  G :  0.020073    pred/act E change:  0.000D+00 -0.141D-02
Maxdispl :   0.2025   ||displ|| :   0.4238   Lambda : -0.163D-02
Largest |displ|/coords:  0.2025 (   6)  0.1717 (   5)  0.1625 (   2)
................................................................................
.............................. CYCLE   28 ......................................
................................................................................
   1    -41.1185335 -0.411185E+02  0.314E-01    8.26       0.0  T
   2    -41.1185518 -0.183267E-04  0.236E-01    8.25       1.0  T
   3    -41.1185689 -0.170607E-04  0.345E-02    8.22       1.0  T
   4    -41.1185710 -0.205864E-05  0.139E-02    8.22       1.6  T
   5    -41.1185711 -0.156274E-06  0.376E-03    8.22       6.1  T
   6    -41.1185711 -0.110952E-07  0.227E-03    8.22      10.1  T
speedup  1.08
cpu  time for SCC    0.00 s
wall time for SCC    0.00 s
speedup  1.05
cpu  time for grad    0.01 s
wall time for grad    0.01 s
 E :    -40.90604137  G :  0.018674    pred/act E change: -0.109D-02 -0.723D-03
Maxdispl :   0.1446   ||displ|| :   0.2293   Lambda : -0.648D-03
Largest |displ|/coords:  0.1446 (   6)  0.0765 (   1)  0.0713 (  11)
................................................................................
.............................. CYCLE   29 ......................................
................................................................................
   1    -41.1187522 -0.411188E+02  0.249E-01    8.21       0.0  T
   2    -41.1187610 -0.880307E-05  0.190E-01    8.20       1.0  T
   3    -41.1187702 -0.919279E-05  0.190E-02    8.19       1.2  T
   4    -41.1187711 -0.883181E-06  0.746E-03    8.19       3.1  T
   5    -41.1187711 -0.276427E-07  0.208E-03    8.19      11.0  T
   6    -41.1187711 -0.257968E-08  0.116E-03    8.19      19.8  T
speedup  0.79
cpu  time for SCC    0.00 s
wall time for SCC    0.00 s
speedup  1.00
cpu  time for grad    0.01 s
wall time for grad    0.01 s
 E :    -40.90645047  G :  0.011605    pred/act E change: -0.960D-03 -0.409D-03
Maxdispl :   0.1411   ||displ|| :   0.2251   Lambda : -0.372D-03
Largest |displ|/coords:  0.1411 (   6)  0.0944 (   1)  0.0860 (   2)
................................................................................
.............................. CYCLE   30 ......................................
................................................................................
   1    -41.1199693 -0.411200E+02  0.153E-01    8.20       0.0  T
   2    -41.1199727 -0.339969E-05  0.115E-01    8.19       1.0  T
   3    -41.1199757 -0.306952E-05  0.139E-02    8.19       1.6  T
   4    -41.1199761 -0.393855E-06  0.540E-03    8.19       4.3  T
   5    -41.1199761 -0.238998E-07  0.140E-03    8.19      16.4  T
   6    -41.1199761 -0.160158E-08  0.875E-04    8.19      26.2  T
speedup  1.08
cpu  time for SCC    0.00 s
wall time for SCC    0.00 s
speedup  1.03
cpu  time for grad    0.01 s
wall time for grad    0.01 s
 E :    -40.90670269  G :  0.008415    pred/act E change: -0.341D-03 -0.252D-03
Maxdispl :   0.2237   ||displ|| :   0.3778   Lambda : -0.475D-03
Largest |displ|/coords:  0.2237 (   1)  0.1633 (   2)  0.1564 (   6)
................................................................................
.............................. CYCLE   31 ......................................
................................................................................
   1    -41.1209899 -0.411210E+02  0.247E-01    8.22       0.0  T
   2    -41.1209955 -0.559913E-05  0.186E-01    8.22       1.0  T
   3    -41.1210012 -0.578388E-05  0.181E-02    8.22       1.3  T
   4    -41.1210018 -0.541783E-06  0.705E-03    8.22       3.3  T
   5    -41.1210018 -0.375876E-07  0.226E-03    8.22      10.1  T
   6    -41.1210018 -0.379383E-08  0.133E-03    8.22      17.3  T
speedup  1.08
cpu  time for SCC    0.00 s
wall time for SCC    0.00 s
speedup  1.02
cpu  time for grad    0.01 s
wall time for grad    0.01 s
 E :    -40.90702920  G :  0.009899    pred/act E change: -0.195D-03 -0.327D-03
Maxdispl :   0.2117   ||displ|| :   0.3921   Lambda : -0.378D-03
Largest |displ|/coords:  0.2117 (   2)  0.2033 (   1)  0.1672 (   5)
................................................................................
.............................. CYCLE   32 ......................................
................................................................................
   1    -41.1188811 -0.411189E+02  0.282E-01    8.26       0.0  T
   2    -41.1188892 -0.812231E-05  0.212E-01    8.26       1.0  T
   3    -41.1188988 -0.959330E-05  0.194E-02    8.28       1.2  T
   4    -41.1188994 -0.626558E-06  0.545E-03    8.27       4.2  T
   5    -41.1188994 -0.203878E-07  0.315E-03    8.27       7.3  T
   6    -41.1188994 -0.117200E-07  0.904E-04    8.27      25.4  T
   7    -41.1188994 -0.182796E-08  0.313E-04    8.27      73.4  T
speedup  0.93
cpu  time for SCC    0.00 s
wall time for SCC    0.00 s
speedup  0.96
cpu  time for grad    0.01 s
wall time for grad    0.01 s
 E :    -40.90725480  G :  0.014304    pred/act E change: -0.271D-03 -0.226D-03
Maxdispl :   0.2181   ||displ|| :   0.3806   Lambda : -0.558D-03
Largest |displ|/coords:  0.2181 (   1)  0.1702 (   2)  0.1169 (   4)
................................................................................
.............................. CYCLE   33 ......................................
................................................................................
   1    -41.1229777 -0.411230E+02  0.238E-01    8.37       0.0  T
   2    -41.1229914 -0.137381E-04  0.178E-01    8.38       1.0  T
   3    -41.1230009 -0.944324E-05  0.286E-02    8.40       1.0  T
   4    -41.1230027 -0.187985E-05  0.790E-03    8.40       2.9  T
   5    -41.1230029 -0.110891E-06  0.308E-03    8.40       7.5  T
   6    -41.1230029 -0.620425E-08  0.177E-03    8.40      13.0  T
   7    -41.1230029 -0.497867E-08  0.433E-04    8.40      53.0  T
speedup  0.93
cpu  time for SCC    0.00 s
wall time for SCC    0.00 s
speedup  0.97
cpu  time for grad    0.01 s
wall time for grad    0.01 s
 E :    -40.90737193  G :  0.013671    pred/act E change: -0.218D-03 -0.117D-03
Maxdispl :   0.1875   ||displ|| :   0.2424   Lambda : -0.464D-03
Largest |displ|/coords:  0.1875 (   1)  0.0855 (   2)  0.0766 (   6)
................................................................................
.............................. CYCLE   34 ......................................
................................................................................
   1    -41.1204186 -0.411204E+02  0.190E-01    8.40       0.0  T
   2    -41.1204243 -0.569633E-05  0.144E-01    8.40       1.0  T
   3    -41.1204301 -0.573104E-05  0.148E-02    8.40       1.6  T
   4    -41.1204306 -0.570173E-06  0.402E-03    8.40       5.7  T
   5    -41.1204307 -0.793328E-08  0.208E-03    8.40      11.1  T
   6    -41.1204307 -0.383005E-08  0.658E-04    8.40      34.9  T
speedup  1.08
cpu  time for SCC    0.00 s
wall time for SCC    0.00 s
speedup  1.03
cpu  time for grad    0.01 s
wall time for grad    0.01 s
 E :    -40.90762003  G :  0.009653    pred/act E change: -0.319D-03 -0.248D-03
Maxdispl :   0.0807   ||displ|| :   0.1753   Lambda : -0.247D-03
Largest |displ|/coords:  0.0807 (   2)  0.0794 (   1)  0.0677 (   6)
................................................................................
.............................. CYCLE   35 ......................................
................................................................................
   1    -41.1197909 -0.411198E+02  0.136E-01    8.40       0.0  T
   2    -41.1197960 -0.504496E-05  0.102E-01    8.40       1.0  T
   3    -41.1198001 -0.417578E-05  0.154E-02    8.38       1.5  T
   4    -41.1198008 -0.652803E-06  0.480E-03    8.39       4.8  T
   5    -41.1198008 -0.196338E-07  0.164E-03    8.39      14.0  T
   6    -41.1198008 -0.251577E-08  0.898E-04    8.39      25.6  T
speedup  1.08
cpu  time for SCC    0.00 s
wall time for SCC    0.00 s
speedup  1.03
cpu  time for grad    0.01 s
wall time for grad    0.01 s
 E :    -40.90767555  G :  0.014349    pred/act E change: -0.246D-03 -0.555D-04
Maxdispl :   0.1056   ||displ|| :   0.2260   Lambda : -0.370D-03
Largest |displ|/coords:  0.1056 (   2)  0.1002 (   1)  0.0909 (   6)
................................................................................
.............................. CYCLE   36 ......................................
................................................................................
   1    -41.1174154 -0.411174E+02  0.194E-01    8.32       0.0  T
   2    -41.1174222 -0.681722E-05  0.146E-01    8.32       1.0  T
   3    -41.1174282 -0.601932E-05  0.183E-02    8.32       1.3  T
   4    -41.1174290 -0.815051E-06  0.600E-03    8.32       3.8  T
   5    -41.1174291 -0.283882E-07  0.228E-03    8.32      10.0  T
   6    -41.1174291 -0.543902E-08  0.124E-03    8.32      18.5  T
speedup  1.08
cpu  time for SCC    0.00 s
wall time for SCC    0.00 s
speedup  1.02
cpu  time for grad    0.01 s
wall time for grad    0.01 s
 E :    -40.90780573  G :  0.013638    pred/act E change: -0.127D-03 -0.130D-03
Maxdispl :   0.0912   ||displ|| :   0.1496   Lambda : -0.395D-03
Largest |displ|/coords:  0.0912 (   1)  0.0699 (  10)  0.0493 (   6)
................................................................................
.............................. CYCLE   37 ......................................
................................................................................
   1    -41.1231991 -0.411232E+02  0.106E-01    8.46       0.0  T
   2    -41.1232052 -0.611823E-05  0.784E-02    8.46       1.0  T
   3    -41.1232084 -0.322635E-05  0.188E-02    8.47       1.2  T
   4    -41.1232091 -0.671033E-06  0.591E-03    8.47       3.9  T
   5    -41.1232092 -0.647692E-07  0.174E-03    8.47      13.2  T
   6    -41.1232092 -0.223927E-08  0.971E-04    8.47      23.6  T
speedup  1.08
cpu  time for SCC    0.00 s
wall time for SCC    0.00 s
speedup  1.03
cpu  time for grad    0.01 s
wall time for grad    0.01 s
 E :    -40.90790447  G :  0.011403    pred/act E change: -0.194D-03 -0.987D-04
Maxdispl :   0.2643   ||displ|| :   0.3999   Lambda : -0.375D-03
Largest |displ|/coords:  0.2643 (   1)  0.1910 (   2)  0.1200 (   6)
................................................................................
.............................. CYCLE   38 ......................................
................................................................................
   1    -41.1171673 -0.411172E+02  0.278E-01    8.38       0.0  T
   2    -41.1171779 -0.106640E-04  0.209E-01    8.38       1.0  T
   3    -41.1171891 -0.111630E-04  0.212E-02    8.40       1.1  T
   4    -41.1171901 -0.979665E-06  0.560E-03    8.40       4.1  T
   5    -41.1171901 -0.216273E-07  0.314E-03    8.39       7.3  T
   6    -41.1171901 -0.115372E-07  0.112E-03    8.40      20.5  T
   7    -41.1171901 -0.221007E-08  0.346E-04    8.40      66.3  T
speedup  0.91
cpu  time for SCC    0.00 s
wall time for SCC    0.00 s
speedup  0.95
cpu  time for grad    0.01 s
wall time for grad    0.01 s
 E :    -40.90800803  G :  0.016127    pred/act E change: -0.202D-03 -0.104D-03
Maxdispl :   0.0473   ||displ|| :   0.1043   Lambda : -0.337D-03
Largest |displ|/coords:  0.0473 (  13)  0.0385 (   6)  0.0362 (   8)
................................................................................
.............................. CYCLE   39 ......................................
................................................................................
   1    -41.1192268 -0.411192E+02  0.108E-01    8.39       0.0  T
   2    -41.1192294 -0.256701E-05  0.803E-02    8.39       1.0  T
   3    -41.1192312 -0.184701E-05  0.126E-02    8.38       1.8  T
   4    -41.1192315 -0.311304E-06  0.346E-03    8.38       6.6  T
   5    -41.1192316 -0.136993E-07  0.137E-03    8.38      16.7  T
   6    -41.1192316 -0.154934E-08  0.652E-04    8.38      35.2  T
speedup  1.03
cpu  time for SCC    0.00 s
wall time for SCC    0.00 s
speedup  1.00
cpu  time for grad    0.01 s
wall time for grad    0.01 s
 E :    -40.90814811  G :  0.009347    pred/act E change: -0.218D-03 -0.140D-03
Maxdispl :   0.1126   ||displ|| :   0.2029   Lambda : -0.209D-03
Largest |displ|/coords:  0.1126 (   1)  0.0909 (   2)  0.0587 (  10)
................................................................................
.............................. CYCLE   40 ......................................
................................................................................
   1    -41.1192341 -0.411192E+02  0.134E-01    8.46       0.0  T
   2    -41.1192372 -0.304007E-05  0.101E-01    8.46       1.0  T
   3    -41.1192409 -0.370882E-05  0.117E-02    8.47       2.0  T
   4    -41.1192411 -0.229585E-06  0.385E-03    8.47       6.0  T
   5    -41.1192411 -0.142503E-07  0.167E-03    8.47      13.7  T
   6    -41.1192411 -0.282948E-08  0.848E-04    8.47      27.1  T
speedup  1.08
cpu  time for SCC    0.00 s
wall time for SCC    0.00 s
speedup  1.03
cpu  time for grad    0.01 s
wall time for grad    0.01 s
 E :    -40.90824159  G :  0.008436    pred/act E change: -0.170D-03 -0.935D-04
Maxdispl :   0.2226   ||displ|| :   0.3036   Lambda : -0.193D-03
Largest |displ|/coords:  0.2226 (   1)  0.1132 (   2)  0.0739 (   6)
................................................................................
.............................. CYCLE   41 ......................................
................................................................................
   1    -41.1186216 -0.411186E+02  0.185E-01    8.48       0.0  T
   2    -41.1186252 -0.361487E-05  0.140E-01    8.48       1.0  T
   3    -41.1186297 -0.447613E-05  0.117E-02    8.49       2.0  T
   4    -41.1186299 -0.210894E-06  0.352E-03    8.49       6.5  T
   5    -41.1186299 -0.990833E-08  0.173E-03    8.49      13.2  T
   6    -41.1186299 -0.375421E-08  0.818E-04    8.49      28.1  T
speedup  0.81
cpu  time for SCC    0.00 s
wall time for SCC    0.00 s
speedup  0.91
cpu  time for grad    0.01 s
wall time for grad    0.01 s
 E :    -40.90835972  G :  0.010755    pred/act E change: -0.109D-03 -0.118D-03
Maxdispl :   0.2071   ||displ|| :   0.3208   Lambda : -0.244D-03
Largest |displ|/coords:  0.2071 (   1)  0.1163 (   6)  0.0882 (  10)
................................................................................
.............................. CYCLE   42 ......................................
................................................................................
   1    -41.1176952 -0.411177E+02  0.202E-01    8.41       0.0  T
   2    -41.1177005 -0.529818E-05  0.151E-01    8.41       1.0  T
   3    -41.1177064 -0.594377E-05  0.191E-02    8.40       1.2  T
   4    -41.1177068 -0.444375E-06  0.610E-03    8.41       3.8  T
   5    -41.1177069 -0.411796E-07  0.207E-03    8.41      11.1  T
   6    -41.1177069 -0.392849E-08  0.110E-03    8.41      20.8  T
speedup  1.08
cpu  time for SCC    0.00 s
wall time for SCC    0.00 s
speedup  1.02
cpu  time for grad    0.01 s
wall time for grad    0.01 s
 E :    -40.90845546  G :  0.011830    pred/act E change: -0.105D-03 -0.957D-04
Maxdispl :   0.0483   ||displ|| :   0.1097   Lambda : -0.215D-03
Largest |displ|/coords:  0.0483 (   9)  0.0436 (   1)  0.0392 (  10)
................................................................................
.............................. CYCLE   43 ......................................
................................................................................
   1    -41.1223544 -0.411224E+02  0.118E-01    8.58       0.0  T
   2    -41.1223567 -0.220444E-05  0.852E-02    8.58       1.0  T
   3    -41.1223584 -0.172634E-05  0.155E-02    8.58       1.5  T
   4    -41.1223585 -0.153407E-06  0.370E-03    8.58       6.2  T
   5    -41.1223586 -0.191761E-07  0.967E-04    8.58      23.7  T
   6    -41.1223586 -0.984301E-09  0.631E-04    8.58      36.4  T
speedup  1.08
cpu  time for SCC    0.00 s
wall time for SCC    0.00 s
speedup  1.02
cpu  time for grad    0.01 s
wall time for grad    0.01 s
 E :    -40.90850993  G :  0.011649    pred/act E change: -0.134D-03 -0.545D-04
Maxdispl :   0.1846   ||displ|| :   0.3097   Lambda : -0.322D-03
Largest |displ|/coords:  0.1846 (   1)  0.1239 (   6)  0.1063 (   5)
................................................................................
.............................. CYCLE   44 ......................................
................................................................................
   1    -41.1196882 -0.411197E+02  0.205E-01    8.49       0.0  T
   2    -41.1196953 -0.711833E-05  0.154E-01    8.49       1.0  T
   3    -41.1197027 -0.738307E-05  0.193E-02    8.49       1.2  T
   4    -41.1197033 -0.659537E-06  0.721E-03    8.49       3.2  T
   5    -41.1197034 -0.620635E-07  0.236E-03    8.49       9.7  T
   6    -41.1197034 -0.506233E-08  0.123E-03    8.49      18.6  T
speedup  0.81
cpu  time for SCC    0.00 s
wall time for SCC    0.00 s
speedup  0.91
cpu  time for grad    0.01 s
wall time for grad    0.01 s
 E :    -40.90859251  G :  0.012797    pred/act E change: -0.109D-03 -0.826D-04
Maxdispl :   0.0812   ||displ|| :   0.1353   Lambda : -0.201D-03
Largest |displ|/coords:  0.0812 (   1)  0.0535 (   2)  0.0451 (   6)
................................................................................
.............................. CYCLE   45 ......................................
................................................................................
   1    -41.1183070 -0.411183E+02  0.102E-01    8.48       0.0  T
   2    -41.1183100 -0.303491E-05  0.762E-02    8.48       1.0  T
   3    -41.1183125 -0.247841E-05  0.120E-02    8.48       1.9  T
   4    -41.1183128 -0.382279E-06  0.360E-03    8.48       6.4  T
   5    -41.1183129 -0.137837E-07  0.144E-03    8.48      15.9  T
   6    -41.1183129 -0.189993E-08  0.768E-04    8.48      29.9  T
speedup  1.05
cpu  time for SCC    0.00 s
wall time for SCC    0.00 s
speedup  1.01
cpu  time for grad    0.01 s
wall time for grad    0.01 s
 E :    -40.90867340  G :  0.009317    pred/act E change: -0.176D-03 -0.809D-04
Maxdispl :   0.0547   ||displ|| :   0.1080   Lambda : -0.202D-03
Largest |displ|/coords:  0.0547 (   1)  0.0431 (   9)  0.0324 (   7)
................................................................................
.............................. CYCLE   46 ......................................
................................................................................
   1    -41.1228852 -0.411229E+02  0.992E-02    8.52       0.0  T
   2    -41.1228907 -0.553339E-05  0.734E-02    8.51       1.0  T
   3    -41.1228940 -0.327877E-05  0.160E-02    8.49       1.4  T
   4    -41.1228946 -0.580496E-06  0.381E-03    8.49       6.0  T
   5    -41.1228946 -0.211039E-07  0.144E-03    8.49      15.9  T
   6    -41.1228946 -0.139346E-08  0.749E-04    8.49      30.6  T
speedup  1.08
cpu  time for SCC    0.00 s
wall time for SCC    0.00 s
speedup  1.02
cpu  time for grad    0.01 s
wall time for grad    0.01 s
 E :    -40.90863584  G :  0.012376    pred/act E change: -0.102D-03  0.376D-04
Maxdispl :   0.1477   ||displ|| :   0.2269   Lambda : -0.247D-03
Largest |displ|/coords:  0.1477 (   1)  0.0823 (   2)  0.0629 (   6)
................................................................................
.............................. CYCLE   47 ......................................
................................................................................
   1    -41.1198683 -0.411199E+02  0.158E-01    8.45       0.0  T
   2    -41.1198721 -0.374902E-05  0.119E-01    8.46       1.0  T
   3    -41.1198757 -0.367244E-05  0.125E-02    8.46       1.8  T
   4    -41.1198761 -0.379440E-06  0.312E-03    8.46       7.4  T
   5    -41.1198761 -0.741998E-08  0.162E-03    8.46      14.2  T
   6    -41.1198761 -0.286347E-08  0.537E-04    8.46      42.7  T
speedup  0.81
cpu  time for SCC    0.00 s
wall time for SCC    0.00 s
speedup  0.91
cpu  time for grad    0.01 s
wall time for grad    0.01 s
 E :    -40.90877593  G :  0.006348    pred/act E change: -0.102D-03 -0.140D-03
Maxdispl :   0.0796   ||displ|| :   0.1463   Lambda : -0.132D-03
Largest |displ|/coords:  0.0796 (   1)  0.0791 (   6)  0.0386 (   9)
................................................................................
.............................. CYCLE   48 ......................................
................................................................................
   1    -41.1211010 -0.411211E+02  0.113E-01    8.47       0.0  T
   2    -41.1211034 -0.233123E-05  0.849E-02    8.47       1.0  T
   3    -41.1211056 -0.226536E-05  0.101E-02    8.46       2.3  T
   4    -41.1211059 -0.247196E-06  0.350E-03    8.46       6.6  T
   5    -41.1211059 -0.134715E-07  0.131E-03    8.46      17.5  T
   6    -41.1211059 -0.165688E-08  0.628E-04    8.46      36.6  T
speedup  1.05
cpu  time for SCC    0.00 s
wall time for SCC    0.00 s
speedup  1.01
cpu  time for grad    0.01 s
wall time for grad    0.01 s
 E :    -40.90876093  G :  0.011560    pred/act E change: -0.130D-03  0.150D-04
Maxdispl :   0.0954   ||displ|| :   0.1592   Lambda : -0.179D-03
Largest |displ|/coords:  0.0954 (   1)  0.0661 (   4)  0.0584 (   5)
................................................................................
.............................. CYCLE   49 ......................................
................................................................................
   1    -41.1192103 -0.411192E+02  0.107E-01    8.44       0.0  T
   2    -41.1192120 -0.170146E-05  0.810E-02    8.44       1.0  T
   3    -41.1192137 -0.173431E-05  0.769E-03    8.44       3.0  T
   4    -41.1192139 -0.170366E-06  0.281E-03    8.44       8.2  T
   5    -41.1192139 -0.727312E-08  0.109E-03    8.44      21.0  T
speedup  0.97
cpu  time for SCC    0.00 s
wall time for SCC    0.00 s
speedup  0.96
cpu  time for grad    0.01 s
wall time for grad    0.01 s
 E :    -40.90886123  G :  0.008234    pred/act E change: -0.673D-04 -0.100D-03
Maxdispl :   0.0470   ||displ|| :   0.0784   Lambda : -0.134D-03
Largest |displ|/coords:  0.0470 (   2)  0.0270 (  13)  0.0269 (   5)
................................................................................
.............................. CYCLE   50 ......................................
................................................................................
   1    -41.1212198 -0.411212E+02  0.743E-02    8.46       0.0  T
   2    -41.1212222 -0.234089E-05  0.549E-02    8.46       1.0  T
   3    -41.1212234 -0.122188E-05  0.110E-02    8.46       2.1  T
   4    -41.1212237 -0.273506E-06  0.343E-03    8.46       6.7  T
   5    -41.1212237 -0.241400E-07  0.102E-03    8.46      22.5  T
   6    -41.1212237 -0.535842E-09  0.561E-04    8.46      40.9  T
speedup  1.08
cpu  time for SCC    0.00 s
wall time for SCC    0.00 s
speedup  1.02
cpu  time for grad    0.01 s
wall time for grad    0.01 s
 E :    -40.90887598  G :  0.006932    pred/act E change: -0.916D-04 -0.147D-04
Maxdispl :   0.1186   ||displ|| :   0.1853   Lambda : -0.133D-03
Largest |displ|/coords:  0.1186 (   1)  0.0605 (   4)  0.0604 (   6)
................................................................................
.............................. CYCLE   51 ......................................
................................................................................
   1    -41.1206206 -0.411206E+02  0.137E-01    8.44       0.0  T
   2    -41.1206229 -0.225790E-05  0.104E-01    8.44       1.0  T
   3    -41.1206252 -0.234514E-05  0.949E-03    8.42       2.4  T
   4    -41.1206254 -0.215589E-06  0.359E-03    8.43       6.4  T
   5    -41.1206254 -0.113813E-07  0.123E-03    8.43      18.7  T
   6    -41.1206254 -0.125291E-08  0.710E-04    8.43      32.3  T
speedup  0.79
cpu  time for SCC    0.00 s
wall time for SCC    0.00 s
speedup  0.89
cpu  time for grad    0.01 s
wall time for grad    0.01 s
 E :    -40.90896642  G :  0.005594    pred/act E change: -0.675D-04 -0.904D-04
Maxdispl :   0.1095   ||displ|| :   0.2006   Lambda : -0.119D-03
Largest |displ|/coords:  0.1095 (   1)  0.0828 (   4)  0.0801 (   6)
................................................................................
.............................. CYCLE   52 ......................................
................................................................................
   1    -41.1209478 -0.411209E+02  0.160E-01    8.43       0.0  T
   2    -41.1209512 -0.336387E-05  0.121E-01    8.42       1.0  T
   3    -41.1209549 -0.367922E-05  0.112E-02    8.41       2.0  T
   4    -41.1209552 -0.300766E-06  0.393E-03    8.41       5.8  T
   5    -41.1209552 -0.135822E-07  0.158E-03    8.41      14.5  T
   6    -41.1209552 -0.290217E-08  0.902E-04    8.41      25.4  T
speedup  1.05
cpu  time for SCC    0.00 s
wall time for SCC    0.00 s
speedup  1.01
cpu  time for grad    0.01 s
wall time for grad    0.01 s
 E :    -40.90902039  G :  0.007492    pred/act E change: -0.690D-04 -0.540D-04
Maxdispl :   0.1455   ||displ|| :   0.2569   Lambda : -0.854D-04
Largest |displ|/coords:  0.1455 (   1)  0.1046 (   2)  0.0832 (   6)

generating ANC from model Hessian ...
 Shifting diagonal of input Hessian by   5.153907446120260E-003
 Lowest  eigenvalues of input Hessian
    0.005000   -0.000000   -0.000000    0.000000    0.000000    0.000000
    0.000000    0.005234    0.005822    0.006349    0.006723    0.007005
    0.007391    0.008704    0.009926    0.011695    0.012205    0.015750
 Highest eigenvalues
    1.393678    1.398362    1.430307    2.543739    3.264417    3.848143
 
cpu  time for ANC gen    0.01 s
wall time for ANC gen    0.01 s
................................................................................
.............................. CYCLE   53 ......................................
................................................................................
   1    -41.1196683 -0.411197E+02  0.172E-01    8.38       0.0  T
   2    -41.1196710 -0.261946E-05  0.130E-01    8.37       1.0  T
   3    -41.1196740 -0.302161E-05  0.104E-02    8.37       2.2  T
   4    -41.1196742 -0.188669E-06  0.412E-03    8.37       5.6  T
   5    -41.1196742 -0.143636E-07  0.138E-03    8.37      16.6  T
   6    -41.1196742 -0.228886E-08  0.850E-04    8.37      27.0  T
   7    -41.1196742 -0.102770E-08  0.203E-04    8.37     112.8  T
speedup  0.93
cpu  time for SCC    0.00 s
wall time for SCC    0.00 s
speedup  1.02
cpu  time for grad    0.01 s
wall time for grad    0.01 s
 E :    -40.90906028  G :  0.009935    pred/act E change:  0.000D+00 -0.399D-04
Maxdispl :   0.0419   ||displ|| :   0.0835   Lambda : -0.160D-03
Largest |displ|/coords:  0.0419 (   1)  0.0323 (   7)  0.0269 (  10)
................................................................................
.............................. CYCLE   54 ......................................
................................................................................
   1    -41.1212732 -0.411213E+02  0.110E-01    8.40       0.0  T
   2    -41.1212746 -0.140269E-05  0.837E-02    8.40       1.0  T
   3    -41.1212762 -0.160755E-05  0.681E-03    8.40       3.4  T
   4    -41.1212763 -0.109355E-06  0.230E-03    8.40      10.0  T
   5    -41.1212763 -0.379876E-08  0.108E-03    8.40      21.3  T
speedup  0.94
cpu  time for SCC    0.00 s
wall time for SCC    0.00 s
speedup  0.95
cpu  time for grad    0.01 s
wall time for grad    0.01 s
 E :    -40.90916604  G :  0.004461    pred/act E change:  0.000D+00 -0.106D-03
Maxdispl :   0.0377   ||displ|| :   0.0952   Lambda : -0.907D-04
Largest |displ|/coords:  0.0377 (   1)  0.0373 (   2)  0.0359 (  10)
................................................................................
.............................. CYCLE   55 ......................................
................................................................................
   1    -41.1224004 -0.411224E+02  0.115E-01    8.42       0.0  T
   2    -41.1224017 -0.128161E-05  0.871E-02    8.42       1.0  T
   3    -41.1224030 -0.128078E-05  0.684E-03    8.43       3.4  T
   4    -41.1224031 -0.125631E-06  0.282E-03    8.43       8.1  T
   5    -41.1224031 -0.719914E-08  0.958E-04    8.43      24.0  T
speedup  0.94
cpu  time for SCC    0.00 s
wall time for SCC    0.00 s
speedup  1.07
cpu  time for grad    0.01 s
wall time for grad    0.01 s
 E :    -40.90922332  G :  0.002141    pred/act E change: -0.803D-04 -0.573D-04
Maxdispl :   0.0921   ||displ|| :   0.1361   Lambda : -0.604D-04
Largest |displ|/coords:  0.0921 (   1)  0.0443 (   9)  0.0431 (  10)
................................................................................
.............................. CYCLE   56 ......................................
................................................................................
   1    -41.1222249 -0.411222E+02  0.146E-01    8.46       0.0  T
   2    -41.1222262 -0.125408E-05  0.111E-01    8.46       1.0  T
   3    -41.1222277 -0.156560E-05  0.639E-03    8.47       3.6  T
   4    -41.1222278 -0.545409E-07  0.305E-03    8.47       7.5  T
   5    -41.1222278 -0.421895E-08  0.934E-04    8.47      24.6  T
   6    -41.1222278 -0.657714E-09  0.502E-04    8.47      45.7  T
speedup  0.79
cpu  time for SCC    0.00 s
wall time for SCC    0.00 s
speedup  0.98
cpu  time for grad    0.01 s
wall time for grad    0.01 s
 E :    -40.90925650  G :  0.005313    pred/act E change: -0.457D-04 -0.332D-04
Maxdispl :   0.0479   ||displ|| :   0.0726   Lambda : -0.375D-04
Largest |displ|/coords:  0.0479 (   1)  0.0395 (   2)  0.0185 (  12)
................................................................................
.............................. CYCLE   57 ......................................
................................................................................
   1    -41.1224841 -0.411225E+02  0.584E-02    8.49       0.0  T
   2    -41.1224847 -0.585003E-06  0.440E-02    8.49       1.0  T
   3    -41.1224851 -0.415289E-06  0.498E-03    8.50       4.6  T
   4    -41.1224852 -0.897801E-07  0.151E-03    8.49      15.2  T
   5    -41.1224852 -0.245505E-08  0.666E-04    8.49      34.4  T
speedup  0.94
cpu  time for SCC    0.00 s
wall time for SCC    0.00 s
speedup  0.95
cpu  time for grad    0.01 s
wall time for grad    0.01 s
 E :    -40.90928285  G :  0.002582    pred/act E change: -0.307D-04 -0.263D-04
Maxdispl :   0.1142   ||displ|| :   0.1657   Lambda : -0.421D-04
Largest |displ|/coords:  0.1142 (   1)  0.0897 (   2)  0.0335 (  10)
................................................................................
.............................. CYCLE   58 ......................................
................................................................................
   1    -41.1218637 -0.411219E+02  0.136E-01    8.50       0.0  T
   2    -41.1218654 -0.167618E-05  0.103E-01    8.50       1.0  T
   3    -41.1218673 -0.186424E-05  0.743E-03    8.51       3.1  T
   4    -41.1218674 -0.140505E-06  0.352E-03    8.51       6.5  T
   5    -41.1218674 -0.985852E-08  0.119E-03    8.51      19.2  T
   6    -41.1218674 -0.123838E-08  0.659E-04    8.51      34.8  T
   7    -41.1218674 -0.716511E-09  0.135E-04    8.51     169.7  T
speedup  0.89
cpu  time for SCC    0.00 s
wall time for SCC    0.00 s
speedup  1.00
cpu  time for grad    0.01 s
wall time for grad    0.01 s
 E :    -40.90930911  G :  0.003656    pred/act E change: -0.189D-04 -0.263D-04
Maxdispl :   0.0907   ||displ|| :   0.1278   Lambda : -0.372D-04
Largest |displ|/coords:  0.0907 (   1)  0.0771 (   2)  0.0280 (   3)
................................................................................
.............................. CYCLE   59 ......................................
................................................................................
   1    -41.1218734 -0.411219E+02  0.732E-02    8.50       0.0  T
   2    -41.1218742 -0.797452E-06  0.553E-02    8.50       1.0  T
   3    -41.1218750 -0.826860E-06  0.546E-03    8.50       4.2  T
   4    -41.1218751 -0.849231E-07  0.176E-03    8.50      13.1  T
   5    -41.1218751 -0.297847E-08  0.881E-04    8.50      26.0  T
   6    -41.1218751 -0.893841E-09  0.410E-04    8.50      55.9  T
speedup  1.05
cpu  time for SCC    0.00 s
wall time for SCC    0.00 s
speedup  0.98
cpu  time for grad    0.01 s
wall time for grad    0.01 s
 E :    -40.90933217  G :  0.002245    pred/act E change: -0.216D-04 -0.231D-04
Maxdispl :   0.1713   ||displ|| :   0.2261   Lambda : -0.338D-04
Largest |displ|/coords:  0.1713 (   1)  0.1226 (   2)  0.0388 (   3)
................................................................................
.............................. CYCLE   60 ......................................
................................................................................
   1    -41.1205743 -0.411206E+02  0.154E-01    8.48       0.0  T
   2    -41.1205759 -0.164331E-05  0.116E-01    8.48       1.0  T
   3    -41.1205782 -0.225463E-05  0.694E-03    8.49       3.3  T
   4    -41.1205782 -0.498636E-07  0.256E-03    8.49       9.0  T
   5    -41.1205782 -0.475094E-08  0.110E-03    8.49      20.9  T
   6    -41.1205782 -0.206580E-08  0.545E-04    8.49      42.1  T
   7    -41.1205782 -0.364153E-09  0.126E-04    8.49     182.3  T
speedup  1.16
cpu  time for SCC    0.01 s
wall time for SCC    0.00 s
speedup  1.02
cpu  time for grad    0.01 s
wall time for grad    0.01 s
 E :    -40.90934484  G :  0.005240    pred/act E change: -0.189D-04 -0.127D-04
Maxdispl :   0.0218   ||displ|| :   0.0425   Lambda : -0.364D-04
Largest |displ|/coords:  0.0218 (   1)  0.0194 (   9)  0.0166 (  10)
................................................................................
.............................. CYCLE   61 ......................................
................................................................................
   1    -41.1214795 -0.411215E+02  0.239E-02    8.48       0.0  T
   2    -41.1214798 -0.266412E-06  0.179E-02    8.48       1.3  T
   3    -41.1214800 -0.167185E-06  0.356E-03    8.47       6.4  T
   4    -41.1214800 -0.315636E-07  0.121E-03    8.47      19.0  T
   5    -41.1214800 -0.296988E-08  0.375E-04    8.48      61.2  T
speedup  1.29
cpu  time for SCC    0.00 s
wall time for SCC    0.00 s
speedup  1.07
cpu  time for grad    0.01 s
wall time for grad    0.01 s
 E :    -40.90936533  G :  0.002406    pred/act E change: -0.178D-04 -0.205D-04
Maxdispl :   0.0958   ||displ|| :   0.1210   Lambda : -0.191D-04
Largest |displ|/coords:  0.0958 (   1)  0.0562 (   2)  0.0248 (   3)
................................................................................
.............................. CYCLE   62 ......................................
................................................................................
   1    -41.1216724 -0.411217E+02  0.703E-02    8.47       0.0  T
   2    -41.1216728 -0.465579E-06  0.531E-02    8.47       1.0  T
   3    -41.1216733 -0.490652E-06  0.400E-03    8.46       5.7  T
   4    -41.1216734 -0.455864E-07  0.131E-03    8.47      17.5  T
   5    -41.1216734 -0.129619E-08  0.639E-04    8.47      35.9  T
   6    -41.1216734 -0.463622E-09  0.284E-04    8.47      80.9  T
speedup  1.05
cpu  time for SCC    0.00 s
wall time for SCC    0.00 s
speedup  0.97
cpu  time for grad    0.01 s
wall time for grad    0.01 s
 E :    -40.90937892  G :  0.002280    pred/act E change: -0.182D-04 -0.136D-04
Maxdispl :   0.1645   ||displ|| :   0.2077   Lambda : -0.232D-04
Largest |displ|/coords:  0.1645 (   1)  0.1029 (   2)  0.0388 (   3)
................................................................................
.............................. CYCLE   63 ......................................
................................................................................
   1    -41.1212750 -0.411213E+02  0.128E-01    8.46       0.0  T
   2    -41.1212762 -0.117774E-05  0.967E-02    8.46       1.0  T
   3    -41.1212777 -0.152816E-05  0.597E-03    8.46       3.8  T
   4    -41.1212778 -0.580016E-07  0.226E-03    8.46      10.1  T
   5    -41.1212778 -0.373071E-08  0.987E-04    8.46      23.2  T
   6    -41.1212778 -0.154546E-08  0.468E-04    8.46      49.0  T
speedup  1.08
cpu  time for SCC    0.00 s
wall time for SCC    0.00 s
speedup  0.98
cpu  time for grad    0.01 s
wall time for grad    0.01 s
 E :    -40.90938996  G :  0.003444    pred/act E change: -0.971D-05 -0.110D-04
Maxdispl :   0.0142   ||displ|| :   0.0289   Lambda : -0.158D-04
Largest |displ|/coords:  0.0142 (   1)  0.0101 (  11)  0.0097 (  10)
................................................................................
.............................. CYCLE   64 ......................................
................................................................................
   1    -41.1222775 -0.411223E+02  0.229E-02    8.48       0.0  T
   2    -41.1222777 -0.217605E-06  0.173E-02    8.48       1.3  T
   3    -41.1222778 -0.138197E-06  0.312E-03    8.47       7.3  T
   4    -41.1222779 -0.341593E-07  0.931E-04    8.47      24.6  T
   5    -41.1222779 -0.117070E-08  0.358E-04    8.47      64.1  T
speedup  0.88
cpu  time for SCC    0.00 s
wall time for SCC    0.00 s
speedup  1.01
cpu  time for grad    0.01 s
wall time for grad    0.01 s
 E :    -40.90939891  G :  0.001763    pred/act E change: -0.121D-04 -0.895D-05
Maxdispl :   0.0702   ||displ|| :   0.0873   Lambda : -0.863D-05
Largest |displ|/coords:  0.0702 (   1)  0.0318 (   2)  0.0240 (   3)
................................................................................
.............................. CYCLE   65 ......................................
................................................................................
   1    -41.1223716 -0.411224E+02  0.529E-02    8.48       0.0  T
   2    -41.1223719 -0.315125E-06  0.400E-02    8.48       1.0  T
   3    -41.1223722 -0.318617E-06  0.334E-03    8.48       6.9  T
   4    -41.1223722 -0.348279E-07  0.137E-03    8.48      16.7  T
   5    -41.1223722 -0.176365E-08  0.499E-04    8.48      46.0  T
   6    -41.1223722 -0.255682E-09  0.280E-04    8.48      81.9  T
speedup  1.05
cpu  time for SCC    0.00 s
wall time for SCC    0.00 s
speedup  0.97
cpu  time for grad    0.01 s
wall time for grad    0.01 s
 E :    -40.90940548  G :  0.001651    pred/act E change: -0.788D-05 -0.657D-05
Maxdispl :   0.1003   ||displ|| :   0.1257   Lambda : -0.119D-04
Largest |displ|/coords:  0.1003 (   1)  0.0377 (   3)  0.0371 (   2)
................................................................................
.............................. CYCLE   66 ......................................
................................................................................
   1    -41.1224514 -0.411225E+02  0.785E-02    8.48       0.0  T
   2    -41.1224523 -0.826641E-06  0.593E-02    8.48       1.0  T
[...]
   3    -41.1237941 -0.177255E-07  0.156E-03    8.74      14.7  T
   4    -41.1237941 -0.313285E-08  0.345E-04    8.74      66.4  T
   5    -41.1237941 -0.238359E-09  0.138E-04    8.74     166.4  T
speedup  1.25
cpu  time for SCC    0.00 s
wall time for SCC    0.00 s
speedup  1.02
cpu  time for grad    0.01 s
wall time for grad    0.01 s
 E :    -40.91467950  G :  0.000987    pred/act E change: -0.101D-04 -0.286D-05
Maxdispl :   0.0906   ||displ|| :   0.1068   Lambda : -0.522D-05
Largest |displ|/coords:  0.0906 (   2)  0.0354 (   4)  0.0338 (   1)
................................................................................
.............................. CYCLE  126 ......................................
................................................................................
   1    -41.1238120 -0.411238E+02  0.515E-02    8.74       0.0  T
   2    -41.1238122 -0.134197E-06  0.387E-02    8.74       1.0  T
   3    -41.1238123 -0.127858E-06  0.244E-03    8.74       9.4  T
   4    -41.1238123 -0.155812E-07  0.104E-03    8.74      22.1  T
   5    -41.1238123 -0.863281E-09  0.347E-04    8.74      66.2  T
   6    -41.1238123 -0.846399E-10  0.175E-04    8.74     130.8  T
speedup  1.08
cpu  time for SCC    0.00 s
wall time for SCC    0.00 s
speedup  1.08
cpu  time for grad    0.01 s
wall time for grad    0.01 s
 E :    -40.91468307  G :  0.000636    pred/act E change: -0.209D-05 -0.357D-05
Maxdispl :   0.0607   ||displ|| :   0.0767   Lambda : -0.306D-05
Largest |displ|/coords:  0.0607 (   2)  0.0318 (   1)  0.0238 (   4)
................................................................................
.............................. CYCLE  127 ......................................
................................................................................
   1    -41.1239767 -0.411240E+02  0.402E-02    8.74       0.0  T
   2    -41.1239768 -0.839462E-07  0.303E-02    8.74       1.0  T
   3    -41.1239769 -0.692490E-07  0.197E-03    8.74      11.7  T
   4    -41.1239769 -0.114268E-07  0.914E-04    8.74      25.1  T
   5    -41.1239769 -0.571603E-09  0.262E-04    8.74      87.7  T
speedup  0.97
cpu  time for SCC    0.00 s
wall time for SCC    0.00 s
speedup  0.92
cpu  time for grad    0.01 s
wall time for grad    0.01 s
 E :    -40.91468506  G :  0.000557    pred/act E change: -0.264D-05 -0.199D-05
Maxdispl :   0.0578   ||displ|| :   0.0706   Lambda : -0.195D-05
Largest |displ|/coords:  0.0578 (   2)  0.0250 (   1)  0.0244 (   4)
................................................................................
.............................. CYCLE  128 ......................................
................................................................................
   1    -41.1239176 -0.411239E+02  0.351E-02    8.74       0.0  T
   2    -41.1239176 -0.612903E-07  0.263E-02    8.74       1.0  T
   3    -41.1239177 -0.649529E-07  0.186E-03    8.74      12.4  T
   4    -41.1239177 -0.540066E-08  0.776E-04    8.74      29.6  T
   5    -41.1239177 -0.389832E-09  0.241E-04    8.74      95.2  T
speedup  1.29
cpu  time for SCC    0.00 s
wall time for SCC    0.00 s
speedup  1.03
cpu  time for grad    0.01 s
wall time for grad    0.01 s
 E :    -40.91468625  G :  0.000716    pred/act E change: -0.154D-05 -0.120D-05
Maxdispl :   0.0170   ||displ|| :   0.0261   Lambda : -0.178D-05
Largest |displ|/coords:  0.0170 (   1)  0.0130 (   3)  0.0090 (   2)
................................................................................
.............................. CYCLE  129 ......................................
................................................................................
   1    -41.1241444 -0.411241E+02  0.200E-02    8.74       0.0  T
   2    -41.1241444 -0.291877E-07  0.150E-02    8.74       1.5  T
   3    -41.1241444 -0.290390E-07  0.146E-03    8.73      15.7  T
   4    -41.1241444 -0.286383E-08  0.373E-04    8.73      61.5  T
   5    -41.1241444 -0.157470E-09  0.151E-04    8.73     151.9  T
speedup  1.25
cpu  time for SCC    0.00 s
wall time for SCC    0.00 s
speedup  1.03
cpu  time for grad    0.01 s
wall time for grad    0.01 s
 E :    -40.91468739  G :  0.000697    pred/act E change: -0.982D-06 -0.114D-05
Maxdispl :   0.0296   ||displ|| :   0.0492   Lambda : -0.183D-05
Largest |displ|/coords:  0.0296 (   2)  0.0288 (   1)  0.0184 (   3)
................................................................................
.............................. CYCLE  130 ......................................
................................................................................
   1    -41.1241234 -0.411241E+02  0.385E-02    8.73       0.0  T
   2    -41.1241235 -0.911644E-07  0.290E-02    8.73       1.0  T
   3    -41.1241236 -0.940298E-07  0.239E-03    8.73       9.6  T
   4    -41.1241236 -0.866269E-08  0.735E-04    8.73      31.2  T
   5    -41.1241236 -0.488654E-09  0.310E-04    8.73      74.1  T
speedup  0.97
cpu  time for SCC    0.00 s
wall time for SCC    0.00 s
speedup  1.03
cpu  time for grad    0.01 s
wall time for grad    0.01 s
 E :    -40.91468839  G :  0.000920    pred/act E change: -0.893D-06 -0.999D-06
Maxdispl :   0.0161   ||displ|| :   0.0239   Lambda : -0.173D-05
Largest |displ|/coords:  0.0161 (   2)  0.0087 (   4)  0.0076 (   3)
................................................................................
.............................. CYCLE  131 ......................................
................................................................................
   1    -41.1241394 -0.411241E+02  0.138E-02    8.73       0.0  T
   2    -41.1241395 -0.429765E-07  0.102E-02    8.73       2.2  T
   3    -41.1241395 -0.255125E-07  0.184E-03    8.73      12.5  T
   4    -41.1241395 -0.617249E-08  0.624E-04    8.73      36.8  T
   5    -41.1241395 -0.315204E-09  0.130E-04    8.73     176.3  T
speedup  0.97
cpu  time for SCC    0.00 s
wall time for SCC    0.00 s
speedup  1.03
cpu  time for grad    0.01 s
wall time for grad    0.01 s
 E :    -40.91468919  G :  0.000514    pred/act E change: -0.918D-06 -0.804D-06
Maxdispl :   0.0072   ||displ|| :   0.0128   Lambda : -0.552D-06
Largest |displ|/coords:  0.0072 (   1)  0.0069 (   2)  0.0054 (   3)
................................................................................
.............................. CYCLE  132 ......................................
................................................................................
   1    -41.1240814 -0.411241E+02  0.112E-02    8.73       0.0  T
   2    -41.1240814 -0.808841E-08  0.840E-03    8.73       2.7  T
   3    -41.1240815 -0.849177E-08  0.799E-04    8.73      28.7  T
   4    -41.1240815 -0.705164E-09  0.182E-04    8.73     126.3  T
speedup  0.80
cpu  time for SCC    0.00 s
wall time for SCC    0.00 s
speedup  0.99
cpu  time for grad    0.01 s
wall time for grad    0.01 s
 E :    -40.91468962  G :  0.000453    pred/act E change: -0.866D-06 -0.422D-06
Maxdispl :   0.0129   ||displ|| :   0.0212   Lambda : -0.744D-06
Largest |displ|/coords:  0.0129 (   1)  0.0096 (   3)  0.0089 (   2)
................................................................................
.............................. CYCLE  133 ......................................
................................................................................
   1    -41.1240057 -0.411240E+02  0.188E-02    8.73       0.0  T
   2    -41.1240057 -0.238077E-07  0.141E-02    8.73       1.6  T
   3    -41.1240058 -0.244135E-07  0.140E-03    8.73      16.4  T
   4    -41.1240058 -0.210476E-08  0.393E-04    8.73      58.4  T
   5    -41.1240058 -0.185693E-09  0.141E-04    8.73     162.6  T
speedup  0.97
cpu  time for SCC    0.00 s
wall time for SCC    0.00 s
speedup  1.05
cpu  time for grad    0.01 s
wall time for grad    0.01 s
 E :    -40.91469009  G :  0.000365    pred/act E change: -0.276D-06 -0.471D-06
Maxdispl :   0.0074   ||displ|| :   0.0128   Lambda : -0.249D-06
Largest |displ|/coords:  0.0074 (   2)  0.0063 (   1)  0.0059 (   3)
................................................................................
.............................. CYCLE  134 ......................................
................................................................................
   1    -41.1239686 -0.411240E+02  0.994E-03    8.73       0.0  T
   2    -41.1239686 -0.584717E-08  0.743E-03    8.73       3.1  T
   3    -41.1239687 -0.539264E-08  0.723E-04    8.73      31.7  T
   4    -41.1239687 -0.563460E-09  0.232E-04    8.73      98.7  T
speedup  1.15
cpu  time for SCC    0.00 s
wall time for SCC    0.00 s
speedup  1.08
cpu  time for grad    0.01 s
wall time for grad    0.01 s
 E :    -40.91469027  G :  0.000260    pred/act E change: -0.372D-06 -0.179D-06
Maxdispl :   0.0058   ||displ|| :   0.0108   Lambda : -0.198D-06
Largest |displ|/coords:  0.0058 (   1)  0.0057 (   3)  0.0044 (   2)
................................................................................
.............................. CYCLE  135 ......................................
................................................................................
   1    -41.1239786 -0.411240E+02  0.893E-03    8.73       0.0  T
   2    -41.1239786 -0.534408E-08  0.669E-03    8.73       3.4  T
   3    -41.1239786 -0.520231E-08  0.653E-04    8.73      35.1  T
   4    -41.1239786 -0.528900E-09  0.229E-04    8.73     100.0  T
speedup  0.74
cpu  time for SCC    0.00 s
wall time for SCC    0.00 s
speedup  0.96
cpu  time for grad    0.01 s
wall time for grad    0.01 s
 E :    -40.91469040  G :  0.000174    pred/act E change: -0.124D-06 -0.131D-06
Maxdispl :   0.0056   ||displ|| :   0.0083   Lambda : -0.716D-07
Largest |displ|/coords:  0.0056 (   2)  0.0032 (   3)  0.0032 (   1)
................................................................................
.............................. CYCLE  136 ......................................
................................................................................
   1    -41.1239795 -0.411240E+02  0.548E-03    8.73       0.0  T
   2    -41.1239795 -0.151353E-08  0.412E-03    8.73       5.6  T
   3    -41.1239795 -0.166328E-08  0.274E-04    8.73      83.9  T
   4    -41.1239795 -0.107555E-09  0.918E-05    8.73     249.9  T
speedup  0.80
cpu  time for SCC    0.00 s
wall time for SCC    0.00 s
speedup  1.00
cpu  time for grad    0.01 s
wall time for grad    0.01 s
 E :    -40.91469045  G :  0.000145    pred/act E change: -0.992D-07 -0.483D-07
Maxdispl :   0.0027   ||displ|| :   0.0036   Lambda : -0.371D-07
Largest |displ|/coords:  0.0027 (   2)  0.0012 (   3)  0.0011 (   9)

   *** GEOMETRY OPTIMIZATION CONVERGED AFTER 136 ITERATIONS ***

------------------------------------------------------------------------
 total energy gain (kcal):     -0.0998
------------------------------------------------------------------------
================
 final structure:
================
$coord
        2.43027145341159       -0.24742781934185        0.91387110515512      S 
        0.59421395299218        1.00783638213275        2.49488785428853      O 
        0.98754047272838       -1.57973266984969       -1.26611450058648      O 
        4.37682924290456        1.28763030539430       -0.11633460959451      O 
        3.55788585951732       -2.48821535789128        2.40193715525528      O 
        2.13605000116749       -3.22995108948842        3.37793706327664      H 
       -0.65432011222010       -3.26110524880566        4.78800392319279      O 
       -0.67021581701426       -3.20022366328876        6.60203435168059      H 
       -0.88575063373495       -1.53347953293261        4.19101805257674      H 
       -1.79589315666076        3.81643135669634       -1.20002941358506      O 
       -3.16817618688547        2.60522909410660       -1.39252028170487      H 
       -0.98816017619999        3.34886038508952        0.37427228663926      H 
       -4.28588706782763       -0.71452415249347       -1.75799936067431      O 
       -4.75371840582553       -1.27754037721712       -3.41630401733069      H 
       -2.68362217913008       -1.50043508067037       -1.36901505689474      H 
        1.42170906282190        1.89254718672528       -4.42645886843382      O 
        1.15092167436108       -0.35365701168020       -2.81016143808664      H 
        0.16802238331488        2.96496810443463       -3.51636825992031      H 
        3.06229965116609        2.46278917005645       -3.87265594742404      H 
$end
 
 Bond Distances (Angstroems)
 ---------------------------
S1-O2=1.4440         S1-O3=1.5527         S1-O4=1.4206         S1-O5=1.5434         O2-S1=1.4440         O3-S1=1.5527         
O3-H17=1.0469        O4-S1=1.4206         O5-S1=1.5434         O5-H6=0.9934         H6-O5=0.9934         O7-H8=0.9605         
O7-H9=0.9750         H8-O7=0.9605         H9-O7=0.9750         O10-H11=0.9739       O10-H12=0.9685       H11-O10=0.9739       
H12-O10=0.9685       O13-H14=0.9592       O13-H15=0.9666       H14-O13=0.9592       H15-O13=0.9666       O16-H18=0.9971       
O16-H19=0.9647       H17-O3=1.0469        H18-O16=0.9971       H19-O16=0.9647       
 O  H  Rav=0.9806 sigma=0.0252  Rmin=0.9592  Rmax=1.0469    10
 S  O  Rav=1.4902 sigma=0.0585  Rmin=1.4206  Rmax=1.5527     4
 
 selected bond angles (degree)
 --------------------
O3-S1-O2=107.97                O4-S1-O2=116.56                O4-S1-O3=109.33                O5-S1-O2=108.54                
O5-S1-O3=102.73                O5-S1-O4=110.78                H17-O3-S1=104.94               H6-O5-S1=106.02                
H9-O7-H8=106.93                H12-O10-H11=104.53             
 
 selected dihedral angles (degree)
 ---------------------------------
H17-O3-S1-O2= 98.96           H17-O3-S1-O4=331.22           H17-O3-S1-O5=213.54           H6-O5-S1-O2= 38.13            
H6-O5-S1-O3=283.97            H6-O5-S1-O4=167.31            
 
 CMA Distance (Angstroems)
 ---------------------------
R(CMA):  2.1592

========================================================================
 FINAL SINGLEPOINT CALCULATION ON OPTIMIZED GEOMETRY
========================================================================

 Ncao       : 52
 Nao        : 51
 Nshell     : 29
 Nel        : 64
 T(el)      :   300.0
 intcut     :    25.0
 scfconv/Eh :  0.100E-05
   qconv/e  :  0.100E-03
 intneglect :  0.100E-07
 broydamp   :      0.250
 iter      E             dE          RMSdq      gap      omega  full diag
   1    -41.1239795 -0.411240E+02  0.351E-05    8.73       0.0  T
   2    -41.1239795 -0.105160E-11  0.223E-05    8.73    1031.1  T
   3    -41.1239795 -0.405009E-12  0.500E-06    8.73    4587.5  T
speedup  1.11
cpu  time for SCC    0.00 s
wall time for SCC    0.00 s

   *** convergence criteria satisfied after 3 iterations ***

          eigenvalues
 #    :          20         21         22         23         24         25         26         27
 occ. :        2.000      2.000      2.000      2.000      2.000      2.000      2.000      2.000
 eps  :       -14.624    -14.297    -14.102    -14.051    -13.565    -13.204    -13.052    -12.961
 #    :          28         29         30         31         32         33         34         35
 occ. :        2.000      2.000      2.000      2.000      2.000      0.000      0.000      0.000
 eps  :       -12.935    -12.761    -12.680    -12.400    -12.094     -3.364     -1.127     -0.735
 #    :          36         37         38         39         40         41         42         43
 occ. :        0.000      0.000      0.000      0.000      0.000      0.000      0.000      0.000
 eps  :         0.237      0.822      1.292      2.376      3.903      4.608      5.327      6.165


   #   Z            q   n(s)   n(p)   n(d)      C6AA      α(0)
   1  16 S      1.720  1.583  1.763  0.933    88.308    15.816
   2   8 O     -0.725  1.766  4.959  0.000    29.392     7.269
   3   8 O     -0.652  1.768  4.884  0.000    26.444     6.942
   4   8 O     -0.667  1.751  4.916  0.000    27.824     7.072
   5   8 O     -0.590  1.750  4.839  0.000    24.909     6.738
   6   1 H      0.389  0.611  0.000  0.000     0.499     1.107
   7   8 O     -0.596  1.743  4.853  0.000    25.085     6.760
   8   1 H      0.305  0.695  0.000  0.000     0.706     1.320
   9   1 H      0.326  0.674  0.000  0.000     0.649     1.265
  10   8 O     -0.615  1.749  4.867  0.000    25.555     6.823
  11   1 H      0.324  0.676  0.000  0.000     0.652     1.269
  12   1 H      0.306  0.694  0.000  0.000     0.705     1.319
  13   8 O     -0.592  1.739  4.853  0.000    25.002     6.749
  14   1 H      0.292  0.708  0.000  0.000     0.745     1.356
  15   1 H      0.310  0.690  0.000  0.000     0.692     1.307
  16   8 O     -0.595  1.753  4.841  0.000    25.037     6.754
  17   1 H      0.394  0.606  0.000  0.000     0.490     1.097
  18   1 H      0.347  0.653  0.000  0.000     0.595     1.212
  19   1 H      0.317  0.683  0.000  0.000     0.672     1.287

 Mol. C6AA /au·bohr⁶  :       3363.079964
 Mol. C8AA /au·bohr⁸  :      76016.272008
 Mol. α(0) /au        :         83.459960

 
 Wiberg/Mayer (AO) data. WBOs > 0.1 written file <wbo>
 largest (>0.05) Wiberg bond orders for each atom
           total WBO             WBO to atom ...
     1  S   4.809    O    4 1.468    O    2 1.335    O    5 1.001    O    3 0.972
     2  O   1.737    S    1 1.335    O    4 0.122    O    5 0.090    O    3 0.089
     3  O   1.941    S    1 0.972    H   17 0.632    O    4 0.096    O    2 0.089    O   16 0.061    O    5 0.056
     4  O   1.787    S    1 1.468    O    2 0.122    O    3 0.096    O    5 0.076
     5  O   2.003    S    1 1.001    H    6 0.736    O    2 0.090    O    4 0.076    O    3 0.056
     6  H   0.848    O    5 0.736    O    7 0.094
     7  O   1.907    H    8 0.904    H    9 0.852    H    6 0.094
     8  H   0.907    O    7 0.904
     9  H   0.894    O    7 0.852
    10  O   1.893    H   12 0.875    H   11 0.857    H   18 0.085
    11  H   0.895    O   10 0.857
    12  H   0.907    O   10 0.875
    13  O   1.861    H   14 0.913    H   15 0.879
    14  H   0.915    O   13 0.913
    15  H   0.904    O   13 0.879
    16  O   1.988    H   19 0.889    H   18 0.793    H   17 0.194    O    3 0.061
    17  H   0.844    O    3 0.632    O   16 0.194
    18  H   0.879    O   16 0.793    O   10 0.085
    19  H   0.899    O   16 0.889
 MOs/occ written to file <molden.input>
 
molecular dipole:
                 x           y           z       tot (Debye)
 q only:       -0.450      -0.658       0.188
   full:       -0.341      -0.859       0.513       2.687
molecular quadrupole (traceless):
                xx          xy          yy          xz          yz          zz
 q only:       -7.117       1.032      -3.714       1.337      -2.188      10.831
  q+dip:       -7.576       1.951      -5.352       1.624      -0.652      12.927
   full:       -7.806       1.940      -5.553       1.995      -0.945      13.359

SCC energy    :     -41.1239795
rep           :       0.2091982
ES            :       0.1855397
AES           :      -0.0405944
AXC           :      -0.0103964
disp          :      -0.0135375
XB            :       0.0000000
fix           :       0.0000000
total E       :     -40.9146904
atomizationE  :       3.7088777     2327.36
(atE without considering molecular charge,
 total energy contains solvation terms)
H-L gap (eV)  :          8.7292
optimized geometry written to: xtbopt.xyz


------------------------------------------------------------------------
 * finished run on 2019/09/03 at 10:38:24.001     
------------------------------------------------------------------------
 total:
 * wall-time:     0 d,  0 h,  0 min,  2.002 sec
 *  cpu-time:     0 d,  0 h,  0 min,  1.980 sec
 * ratio c/w:     0.989 speedup
 SCF:
 * wall-time:     0 d,  0 h,  0 min,  0.093 sec
 *  cpu-time:     0 d,  0 h,  0 min,  0.090 sec
 * ratio c/w:     0.971 speedup
 ANC optimizer:
 * wall-time:     0 d,  0 h,  0 min,  1.887 sec
 *  cpu-time:     0 d,  0 h,  0 min,  1.871 sec
 * ratio c/w:     0.991 speedup

