      -----------------------------------------------------------      
     |                   =====================                   |     
     |                           x T B                           |     
     |                   =====================                   |     
     |                         S. Grimme                         |     
     |          Mulliken Center for Theoretical Chemistry        |     
     |                    University of Bonn                     |     
     |                 Version 6.0.1 (SAW181210)                 |     
      -----------------------------------------------------------      

   This program is distributed in the hope that it will be useful,
   but WITHOUT ANY WARRANTY; without even the implied warranty of
   MERCHANTABILITY or FITNESS FOR A PARTICULAR PURPOSE.
   
   FOR NON-COMMERCIAL, ACADEMIA USE ONLY.
   
   Cite this work as:
   S. Grimme, C. Bannwarth, P. Shushkov, J. Comput. Theory Chem., 2017,
   13, 1989-2009.
   C. Bannwarth, S. Ehlert and S. Grimme., ChemRxiv, 2018, preprint.
   http://doi.org/10.26434/chemrxiv.7246238.v1
   
   for sTDA-xTB:
   S. Grimme and C. Bannwarth, J. Chem. Phys., 2016, 145, 054103.
   
   in the mass-spec context:
   V. Asgeirsson, C. Bauer and S. Grimme, Chem. Sci., 2017, 8, 4879.
   
   if GBSA is used:
   P. Shushkov, F. März and S. Grimme, unpublished.
   
   for ANC optimizer:
   S. Grimme, unpublished.
   Rational Function algorithm used in ANCopt:
   F. Eckert, P. Pulay, H.-J. Werner, J. Comput. Chem., 1997, 18, 1473.
   
   with help from (in alphabetical order)
   C. Bannwarth, F. Bohle, G. Brandenburg, E. Caldeweyher, M. Checinski,
   S. Dohm, S. Ehlert, S. Ehrlich, F. März, H. Neugebauer, J. Pisarek,
   P. Pracht, P. Shushkov, and S. Spicher.
   
 * started run on 2019/09/03 at 10:54:01.739     
========================================================================
 # omp threads = 1
========================================================================
number of atoms            : 19
number of electrons        : 64
charge                     : 0
spin                       : .0
first test random number   : .7829

########################################################################
# WARNING! Please study the warnings concerning your input carefully
#  - XTBPATH is not set, using XTBHOME instead
#  - the use of '-opt' is discouraged, please use '--opt' next time
#  - the use of '-chrg' is discouraged, please use '--chrg' next time
#  - the use of '-uhf' is discouraged, please use '--uhf' next time
########################################################################

           ------------------------------------------------- 
          |                 G F N 2 - x T B                 |
          | Geometry, Frequencies, Noncovalent interactions |
          |            JCTC 2018 parametrisation            |
           ------------------------------------------------- 
      method parameters     
 k(s)        :  1.8500
 k(p)        :  2.2300
 k(d)        :  2.2300
 k(f)        :  2.0000
 kEN (H0ij)  : -2.0000
 D4 a1       :  0.5200
 D4 a2       :  5.0000
 D4 s6       :  1.0000
 D4 s8       :  2.7000
 D4 s9       :  5.0000
 alphaj      :  2.0000


            Z     q(EN)     CN     RAES       Cart. coordinates
     1  S   6.0    0.64    4.29    4.21     2.90770     1.74806     1.00272
     2  O   6.0   -0.31    1.14    1.80     0.91151     1.41511     2.96039
     3  O   6.0   -0.29    1.14    1.80     2.79887    -0.39327    -0.82237
     4  O   6.0   -0.28    1.14    1.80     2.48397     4.17129    -0.36714
     5  O   6.0   -0.25    2.08    1.84     5.40184     1.79842     2.22307
     6  H   1.0    0.15    1.21    1.47     5.67567     0.23744     3.10593
     7  O   6.0   -0.28    1.98    1.82    -3.97929    -5.56001    -5.44661
     8  H   1.0    0.15    0.97    1.43    -5.75431    -5.95735    -5.52434
     9  H   1.0    0.15    0.97    1.43    -3.12900    -7.01962    -6.12571
    10  O   6.0   -0.28    2.03    1.83    -1.82864    -1.26629    -3.58212
    11  H   1.0    0.17    1.02    1.43    -2.30774    -2.87898    -4.27803
    12  H   1.0    0.17    1.00    1.43    -0.15542    -1.51096    -2.90750
    13  O   6.0   -0.25    1.92    1.82     1.99041     1.38229     8.45278
    14  H   1.0    0.16    0.97    1.43     0.73251     0.67565     7.34239
    15  H   1.0    0.15    0.97    1.43     3.03769     2.42667     7.39114
    16  O   6.0   -0.21    2.90    2.53    -2.55307     2.87279    -0.89093
    17  H   1.0    0.14    0.99    1.43    -2.38936     2.35547     0.89664
    18  H   1.0    0.14    0.99    1.43    -1.23625     4.10117    -1.38797
    19  H   1.0    0.14    1.04    1.43    -2.60711     1.40212    -2.04233

  Z AO/shell   Hii/eV     exponent
  1     Wed Apr 25 08:07:45 CEST 2018   EN: 2.200 GM2: 0.406  GM3: 0.0800  RAES: 1.40
     1s    -10.707211    1.230000
  8     Wed Apr 25 08:07:45 CEST 2018   EN: 3.440 GM2: 0.452  GM3:-0.0517  RAES: 1.80
     2s    -20.229985    2.439742
     2p    -15.503117    2.137023
 16     Tue Apr 24 11:44:34 CEST 2018   EN: 2.580 GM2: 0.340  GM3:-0.0502  RAES: 3.10
     3s    -20.029654    1.981333
     3p    -11.377694    2.025643
     3d     -0.420282    1.702555
 no old-style atom pair restraining (fixing) potential

molecular fragmentation (1/2 indicates fragments):
1111112222222222222
# atoms in fragment 1/2:     6    13
 fragment masses (1/2) :       97.07       73.07
CMA distance (Bohr)    :   5.304
constraining FC (au)   :  0.0500
           ------------------------------------------------- 
          |        Self-Consistent Charge Iterations        |
           ------------------------------------------------- 

 Ncao       : 52
 Nao        : 51
 Nshell     : 29
 Nel        : 64
 T(el)      :   300.0
 intcut     :    25.0
 scfconv/Eh :  0.100E-05
   qconv/e  :  0.100E-03
 intneglect :  0.100E-07
 broydamp   :      0.250
 iter      E             dE          RMSdq      gap      omega  full diag
   1    -40.9729216 -0.409729E+02  0.772E+00   10.67       0.0  T
   2    -41.0168965 -0.439749E-01  0.558E+00   10.09       1.0  T
   3    -41.0495799 -0.326834E-01  0.153E+00    8.24       1.0  T
   4    -41.0540364 -0.445652E-02  0.631E-01    8.14       1.0  T
   5    -41.0546040 -0.567617E-03  0.351E-01    8.01       1.0  T
   6    -41.0549729 -0.368913E-03  0.146E-01    8.02       1.0  T
   7    -41.0550537 -0.807263E-04  0.533E-02    8.09       1.0  T
   8    -41.0550638 -0.101329E-04  0.309E-02    8.09       1.0  T
   9    -41.0550678 -0.398434E-05  0.122E-02    8.09       1.9  T
  10    -41.0550685 -0.681165E-06  0.270E-03    8.09       8.5  T
  11    -41.0550685 -0.196020E-07  0.109E-03    8.09      21.0  T
  12    -41.0550685 -0.434483E-08  0.467E-04    8.09      49.1  T
  13    -41.0550685 -0.780986E-09  0.115E-04    8.09     198.9  T
speedup  0.87
cpu  time for SCC    0.01 s
wall time for SCC    0.01 s

   *** convergence criteria satisfied after 13 iterations ***

          eigenvalues
 #    :          20         21         22         23         24         25         26         27
 occ. :        2.000      2.000      2.000      2.000      2.000      2.000      2.000      2.000
 eps  :       -13.949    -13.118    -13.114    -12.701    -12.466    -12.127    -11.585    -11.315
 #    :          28         29         30         31         32         33         34         35
 occ. :        2.000      2.000      2.000      2.000      2.000      0.000      0.000      0.000
 eps  :       -11.306    -11.175    -10.736    -10.616    -10.376     -2.290     -0.898      0.265
 #    :          36         37         38         39         40         41         42         43
 occ. :        0.000      0.000      0.000      0.000      0.000      0.000      0.000      0.000
 eps  :         0.598      1.443      1.887      3.270      3.498      4.225      4.479      5.646


   #   Z            q   n(s)   n(p)   n(d)      C6AA      α(0)
   1  16 S      1.526  1.588  1.883  1.002    92.817    16.215
   2   8 O     -0.778  1.774  5.004  0.000    30.923     7.456
   3   8 O     -0.761  1.779  4.982  0.000    30.423     7.395
   4   8 O     -0.739  1.772  4.967  0.000    29.793     7.318
   5   8 O     -0.535  1.715  4.820  0.000    23.661     6.567
   6   1 H      0.358  0.642  0.000  0.000     0.562     1.173
   7   8 O     -0.568  1.734  4.834  0.000    24.442     6.673
   8   1 H      0.296  0.704  0.000  0.000     0.734     1.346
   9   1 H      0.295  0.705  0.000  0.000     0.736     1.348
  10   8 O     -0.634  1.729  4.906  0.000    26.017     6.884
  11   1 H      0.331  0.669  0.000  0.000     0.635     1.252
  12   1 H      0.323  0.677  0.000  0.000     0.657     1.273
  13   8 O     -0.580  1.737  4.843  0.000    24.716     6.710
  14   1 H      0.294  0.706  0.000  0.000     0.740     1.351
  15   1 H      0.281  0.719  0.000  0.000     0.782     1.389
  16   8 O     -0.377  1.624  4.753  0.000    20.361     6.094
  17   1 H      0.417  0.583  0.000  0.000     0.455     1.060
  18   1 H      0.421  0.579  0.000  0.000     0.447     1.051
  19   1 H      0.432  0.568  0.000  0.000     0.429     1.030

 Mol. C6AA /au·bohr⁶  :       3373.977927
 Mol. C8AA /au·bohr⁸  :      76667.939611
 Mol. α(0) /au        :         83.584326

 
 Wiberg/Mayer (AO) data. WBOs > 0.1 written file <wbo>
 largest (>0.05) Wiberg bond orders for each atom
           total WBO             WBO to atom ...
     1  S   4.984    O    4 1.345    O    3 1.320    O    2 1.295    O    5 1.003
     2  O   1.647    S    1 1.295    O    3 0.116    O    4 0.114    O    5 0.073
     3  O   1.661    S    1 1.320    O    4 0.116    O    2 0.116    O    5 0.075
     4  O   1.691    S    1 1.345    O    3 0.116    O    2 0.114    O    5 0.054
     5  O   2.054    S    1 1.003    H    6 0.847    O    3 0.075    O    2 0.073    O    4 0.054
     6  H   0.872    O    5 0.847
     7  O   1.862    H    9 0.909    H    8 0.907
     8  H   0.913    O    7 0.907
     9  H   0.913    O    7 0.909
    10  O   1.858    H   12 0.871    H   11 0.845    H   19 0.082
    11  H   0.891    O   10 0.845
    12  H   0.896    O   10 0.871
    13  O   1.831    H   15 0.919    H   14 0.908
    14  H   0.914    O   13 0.908
    15  H   0.921    O   13 0.919
    16  O   2.366    H   17 0.796    H   18 0.785    H   19 0.725
    17  H   0.826    O   16 0.796
    18  H   0.822    O   16 0.785
    19  H   0.813    O   16 0.725    O   10 0.082
 MOs/occ written to file <molden.input>
 
molecular dipole:
                 x           y           z       tot (Debye)
 q only:       -2.880      -1.092      -1.811
   full:       -2.221      -1.652      -1.844       8.453
molecular quadrupole (traceless):
                xx          xy          yy          xz          yz          zz
 q only:        6.274      -3.927       8.116       9.060       6.239     -14.390
  q+dip:        8.997       0.588      10.897      10.814      10.639     -19.894
   full:        9.421       0.741      10.810      11.177      10.646     -20.231

SCC energy    :     -41.0550685
rep           :       0.2162900
ES            :       0.2626508
AES           :      -0.0461711
AXC           :      -0.0107767
disp          :      -0.0106751
XB            :       0.0000000
fix           :       0.0000000
total E       :     -40.8387578
atomizationE  :       3.6329450     2279.71
(atE without considering molecular charge,
 total energy contains solvation terms)
H-L gap (eV)  :          8.0858
           ------------------------------------------------- 
          |                 ===============                 |
          |                   A N C O P T                   |
          |                 ===============                 |
          |          Approximate Normal Coordinate          |
          |           Rational Function Optimizer           |
           ------------------------------------------------- 
dumping coords to <xtbopt.coord> and <xtbopt.log>
 optlevel               2
 Maxcycle             380
 Maxmicro              25
 Econv         1.000000000000000E-007
 Gconv         2.000000000000000E-004
 Maxdispl       1.00000000000000     
 Hlow          5.000000000000000E-003
 S6             20.0000000000000     
 Nvar               51

generating ANC from model Hessian ...
 Shifting diagonal of input Hessian by   5.171377123857795E-003
 Lowest  eigenvalues of input Hessian
    0.005000    0.005059   -0.000000   -0.000000    0.000000    0.000000
    0.000000    0.000000    0.005206    0.005334    0.005387    0.005534
    0.005576    0.005608    0.005780    0.005858    0.006404    0.006511
 Highest eigenvalues
    1.450354    1.540560    1.551710    3.129978    3.202019    3.305291
 
cpu  time for ANC gen    0.00 s
wall time for ANC gen    0.00 s
................................................................................
.............................. CYCLE    1 ......................................
................................................................................
   1    -41.0550685 -0.410551E+02  0.878E-05    8.09       0.0  T
   2    -41.0550685 -0.105445E-10  0.681E-05    8.09     336.9  T
   3    -41.0550685 -0.129106E-10  0.297E-05    8.09     772.0  T
speedup  1.05
cpu  time for SCC    0.00 s
wall time for SCC    0.00 s
speedup  1.03
cpu  time for grad    0.01 s
wall time for grad    0.01 s
 E :    -40.83875779  G :  0.154252    pred/act E change:  0.000D+00  0.326D-07
Maxdispl :   0.2889   ||displ|| :   0.5980   Lambda : -0.258D-01
Largest |displ|/coords:  0.2889 (  15)  0.2319 (  19)  0.2236 (  20)
................................................................................
.............................. CYCLE    2 ......................................
................................................................................
   1    -41.0738652 -0.410739E+02  0.373E-01    8.69       0.0  T
   2    -41.0739914 -0.126190E-03  0.277E-01    8.75       1.0  T
   3    -41.0740458 -0.544771E-04  0.103E-01    8.86       1.0  T
   4    -41.0740550 -0.912093E-05  0.192E-02    8.86       1.2  T
   5    -41.0740560 -0.103647E-05  0.782E-03    8.86       2.9  T
   6    -41.0740561 -0.108565E-06  0.476E-03    8.86       4.8  T
   7    -41.0740562 -0.836208E-07  0.231E-03    8.85       9.9  T
speedup  0.87
cpu  time for SCC    0.00 s
wall time for SCC    0.00 s
speedup  0.87
cpu  time for grad    0.01 s
wall time for grad    0.01 s
 E :    -40.86217771  G :  0.103341    pred/act E change:  0.000D+00 -0.234D-01
Maxdispl :   0.3556   ||displ|| :   0.6637   Lambda : -0.210D-01
Largest |displ|/coords:  0.3556 (  15)  0.2538 (  19)  0.2480 (  20)
................................................................................
.............................. CYCLE    3 ......................................
................................................................................
   1    -41.0833025 -0.410833E+02  0.496E-01    8.99       0.0  T
   2    -41.0837421 -0.439562E-03  0.358E-01    9.04       1.0  T
   3    -41.0839426 -0.200490E-03  0.138E-01    9.10       1.0  T
   4    -41.0839632 -0.205729E-04  0.227E-02    9.09       1.0  T
   5    -41.0839643 -0.113585E-05  0.126E-02    9.09       1.8  T
   6    -41.0839646 -0.336217E-06  0.696E-03    9.09       3.3  T
   7    -41.0839648 -0.196454E-06  0.335E-03    9.09       6.8  T
   8    -41.0839649 -0.504414E-07  0.977E-04    9.09      23.5  T
speedup  1.02
cpu  time for SCC    0.00 s
wall time for SCC    0.00 s
speedup  0.95
cpu  time for grad    0.01 s
wall time for grad    0.01 s
 E :    -40.87871241  G :  0.063443    pred/act E change: -0.175D-01 -0.165D-01
Maxdispl :   0.2620   ||displ|| :   0.5275   Lambda : -0.869D-02
Largest |displ|/coords:  0.2620 (  15)  0.1925 (  18)  0.1894 (  10)
................................................................................
.............................. CYCLE    4 ......................................
................................................................................
   1    -41.0804089 -0.410804E+02  0.502E-01    9.06       0.0  T
   2    -41.0809219 -0.513051E-03  0.361E-01    9.06       1.0  T
   3    -41.0811436 -0.221676E-03  0.141E-01    9.01       1.0  T
   4    -41.0811676 -0.240522E-04  0.218E-02    8.99       1.1  T
   5    -41.0811686 -0.937090E-06  0.121E-02    8.99       1.9  T
   6    -41.0811688 -0.278857E-06  0.628E-03    8.99       3.7  T
   7    -41.0811690 -0.149501E-06  0.299E-03    8.99       7.7  T
   8    -41.0811690 -0.432541E-07  0.862E-04    8.99      26.6  T
speedup  1.02
cpu  time for SCC    0.00 s
wall time for SCC    0.00 s
speedup  0.94
cpu  time for grad    0.01 s
wall time for grad    0.01 s
 E :    -40.88296022  G :  0.045401    pred/act E change: -0.151D-01 -0.425D-02
Maxdispl :   0.2691   ||displ|| :   0.4699   Lambda : -0.558D-02
Largest |displ|/coords:  0.2691 (  13)  0.2255 (  10)  0.1521 (  15)
................................................................................
.............................. CYCLE    5 ......................................
................................................................................
   1    -41.0827720 -0.410828E+02  0.367E-01    8.91       0.0  T
   2    -41.0829012 -0.129166E-03  0.275E-01    8.89       1.0  T
   3    -41.0829441 -0.429360E-04  0.764E-02    8.83       1.0  T
   4    -41.0829587 -0.145191E-04  0.310E-02    8.84       1.0  T
   5    -41.0829597 -0.994705E-06  0.616E-03    8.85       3.7  T
   6    -41.0829597 -0.735376E-07  0.294E-03    8.85       7.8  T
   7    -41.0829598 -0.166420E-07  0.149E-03    8.85      15.4  T
speedup  0.95
cpu  time for SCC    0.00 s
wall time for SCC    0.00 s
speedup  1.01
cpu  time for grad    0.01 s
wall time for grad    0.01 s
 E :    -40.88518643  G :  0.031620    pred/act E change: -0.556D-02 -0.223D-02
Maxdispl :   0.3045   ||displ|| :   0.4874   Lambda : -0.391D-02
Largest |displ|/coords:  0.3045 (  10)  0.2346 (  13)  0.1455 (  12)
................................................................................
.............................. CYCLE    6 ......................................
................................................................................
   1    -41.0875763 -0.410876E+02  0.258E-01    8.77       0.0  T
   2    -41.0876245 -0.482733E-04  0.194E-01    8.77       1.0  T
   3    -41.0876423 -0.177967E-04  0.600E-02    8.78       1.0  T
   4    -41.0876482 -0.583157E-05  0.167E-02    8.78       1.4  T
   5    -41.0876485 -0.307329E-06  0.362E-03    8.78       6.3  T
   6    -41.0876485 -0.149829E-07  0.206E-03    8.78      11.1  T
speedup  0.83
cpu  time for SCC    0.00 s
wall time for SCC    0.00 s
speedup  0.96
cpu  time for grad    0.01 s
wall time for grad    0.01 s
 E :    -40.88740747  G :  0.019583    pred/act E change: -0.341D-02 -0.222D-02
Maxdispl :   0.3572   ||displ|| :   0.5291   Lambda : -0.252D-02
Largest |displ|/coords:  0.3572 (  10)  0.1849 (  12)  0.1631 (   4)
................................................................................
.............................. CYCLE    7 ......................................
................................................................................
   1    -41.0913634 -0.410914E+02  0.459E-01    8.75       0.0  T
   2    -41.0914198 -0.563873E-04  0.349E-01    8.71       1.0  T
   3    -41.0914563 -0.365278E-04  0.511E-02    8.60       1.0  T
   4    -41.0914656 -0.923239E-05  0.150E-02    8.63       1.5  T
   5    -41.0914660 -0.420768E-06  0.455E-03    8.64       5.0  T
   6    -41.0914660 -0.973238E-08  0.255E-03    8.64       9.0  T
   7    -41.0914660 -0.106807E-07  0.802E-04    8.64      28.6  T
speedup  0.93
cpu  time for SCC    0.00 s
wall time for SCC    0.00 s
speedup  1.00
cpu  time for grad    0.01 s
wall time for grad    0.01 s
 E :    -40.88849090  G :  0.023600    pred/act E change: -0.242D-02 -0.108D-02
Maxdispl :   0.5129   ||displ|| :   0.6367   Lambda : -0.320D-02
Largest |displ|/coords:  0.5129 (  10)  0.1616 (  18)  0.1287 (  17)
................................................................................
.............................. CYCLE    8 ......................................
................................................................................
   1    -41.0871746 -0.410872E+02  0.435E-01    8.47       0.0  T
   2    -41.0872235 -0.489441E-04  0.331E-01    8.46       1.0  T
   3    -41.0872637 -0.402262E-04  0.437E-02    8.43       1.0  T
   4    -41.0872703 -0.652796E-05  0.179E-02    8.42       1.3  T
   5    -41.0872706 -0.376366E-06  0.523E-03    8.42       4.4  T
   6    -41.0872707 -0.225512E-07  0.303E-03    8.42       7.6  T
speedup  0.81
cpu  time for SCC    0.00 s
wall time for SCC    0.00 s
speedup  0.92
cpu  time for grad    0.01 s
wall time for grad    0.01 s
 E :    -40.88956841  G :  0.038510    pred/act E change: -0.161D-02 -0.108D-02
Maxdispl :   0.2342   ||displ|| :   0.4024   Lambda : -0.313D-02
Largest |displ|/coords:  0.2342 (  12)  0.1402 (   4)  0.1375 (   1)
................................................................................
.............................. CYCLE    9 ......................................
................................................................................
   1    -41.0924836 -0.410925E+02  0.403E-01    8.53       0.0  T
   2    -41.0925146 -0.310248E-04  0.305E-01    8.52       1.0  T
   3    -41.0925402 -0.256644E-04  0.390E-02    8.51       1.0  T
   4    -41.0925444 -0.411298E-05  0.106E-02    8.53       2.2  T
   5    -41.0925445 -0.122042E-06  0.442E-03    8.53       5.2  T
   6    -41.0925445 -0.836874E-08  0.223E-03    8.53      10.3  T
speedup  1.08
cpu  time for SCC    0.00 s
wall time for SCC    0.00 s
speedup  1.05
cpu  time for grad    0.01 s
wall time for grad    0.01 s
 E :    -40.89079006  G :  0.020346    pred/act E change: -0.225D-02 -0.122D-02
Maxdispl :   0.2019   ||displ|| :   0.4254   Lambda : -0.238D-02
Largest |displ|/coords:  0.2019 (   5)  0.1981 (  10)  0.1333 (   4)
................................................................................
.............................. CYCLE   10 ......................................
................................................................................
   1    -41.0872220 -0.410872E+02  0.512E-01    8.58       0.0  T
   2    -41.0873061 -0.840700E-04  0.386E-01    8.56       1.0  T
   3    -41.0873570 -0.509574E-04  0.643E-02    8.51       1.0  T
   4    -41.0873698 -0.127588E-04  0.116E-02    8.53       2.0  T
   5    -41.0873700 -0.242045E-06  0.542E-03    8.54       4.2  T
   6    -41.0873700 -0.119264E-07  0.288E-03    8.54       8.0  T
speedup  1.08
cpu  time for SCC    0.00 s
wall time for SCC    0.00 s
speedup  1.06
cpu  time for grad    0.01 s
wall time for grad    0.01 s
 E :    -40.89069557  G :  0.038312    pred/act E change: -0.182D-02  0.945D-04
Maxdispl :   0.1560   ||displ|| :   0.3859   Lambda : -0.352D-02
Largest |displ|/coords:  0.1560 (   5)  0.1520 (   4)  0.1490 (   2)
................................................................................
.............................. CYCLE   11 ......................................
................................................................................
   1    -41.0997900 -0.410998E+02  0.663E-01    8.59       0.0  T
   2    -41.0999162 -0.126113E-03  0.504E-01    8.59       1.0  T
   3    -41.1000034 -0.872312E-04  0.733E-02    8.59       1.0  T
   4    -41.1000234 -0.200362E-04  0.157E-02    8.59       1.5  T
   5    -41.1000236 -0.201345E-06  0.701E-03    8.59       3.3  T
   6    -41.1000236 -0.147541E-07  0.335E-03    8.59       6.9  T
   7    -41.1000237 -0.878332E-08  0.558E-04    8.59      41.1  T
speedup  0.93
cpu  time for SCC    0.00 s
wall time for SCC    0.00 s
speedup  0.98
cpu  time for grad    0.01 s
wall time for grad    0.01 s
 E :    -40.89049021  G :  0.035841    pred/act E change: -0.141D-02  0.205D-03
Maxdispl :   0.2443   ||displ|| :   0.4241   Lambda : -0.433D-02
Largest |displ|/coords:  0.2443 (   4)  0.1612 (  16)  0.1247 (  21)
................................................................................
.............................. CYCLE   12 ......................................
................................................................................
   1    -41.0902322 -0.410902E+02  0.583E-01    8.57       0.0  T
   2    -41.0903298 -0.976353E-04  0.441E-01    8.60       1.0  T
   3    -41.0903909 -0.610647E-04  0.699E-02    8.67       1.0  T
   4    -41.0904055 -0.145854E-04  0.176E-02    8.64       1.3  T
   5    -41.0904062 -0.701842E-06  0.543E-03    8.64       4.2  T
   6    -41.0904062 -0.972199E-08  0.308E-03    8.63       7.5  T
speedup  1.05
cpu  time for SCC    0.00 s
wall time for SCC    0.00 s
speedup  1.03
cpu  time for grad    0.01 s
wall time for grad    0.01 s
 E :    -40.89085537  G :  0.038651    pred/act E change: -0.202D-02 -0.365D-03
Maxdispl :   0.1468   ||displ|| :   0.2966   Lambda : -0.415D-02
Largest |displ|/coords:  0.1468 (  21)  0.1276 (  18)  0.1030 (   4)
................................................................................
.............................. CYCLE   13 ......................................
................................................................................
   1    -41.0923256 -0.410923E+02  0.477E-01    8.73       0.0  T
   2    -41.0924367 -0.111110E-03  0.356E-01    8.70       1.0  T
   3    -41.0924930 -0.563288E-04  0.735E-02    8.65       1.0  T
   4    -41.0925074 -0.143675E-04  0.196E-02    8.68       1.2  T
   5    -41.0925083 -0.949804E-06  0.538E-03    8.69       4.3  T
   6    -41.0925083 -0.119096E-07  0.339E-03    8.68       6.8  T
speedup  1.08
cpu  time for SCC    0.00 s
wall time for SCC    0.00 s
speedup  1.05
cpu  time for grad    0.01 s
wall time for grad    0.01 s
 E :    -40.89094982  G :  0.036845    pred/act E change: -0.255D-02 -0.945D-04
Maxdispl :   0.1652   ||displ|| :   0.4094   Lambda : -0.562D-02
Largest |displ|/coords:  0.1652 (   5)  0.1640 (  16)  0.1313 (  18)
................................................................................
.............................. CYCLE   14 ......................................
................................................................................
   1    -41.0938170 -0.410938E+02  0.613E-01    8.70       0.0  T
   2    -41.0939333 -0.116291E-03  0.462E-01    8.71       1.0  T
   3    -41.0940104 -0.771404E-04  0.705E-02    8.73       1.0  T
   4    -41.0940277 -0.172572E-04  0.118E-02    8.73       2.0  T
   5    -41.0940278 -0.156698E-06  0.646E-03    8.73       3.6  T
   6    -41.0940279 -0.417955E-07  0.265E-03    8.73       8.7  T
   7    -41.0940279 -0.134115E-07  0.903E-04    8.73      25.4  T
speedup  0.91
cpu  time for SCC    0.00 s
wall time for SCC    0.00 s
speedup  0.97
cpu  time for grad    0.01 s
wall time for grad    0.01 s
 E :    -40.89065891  G :  0.037066    pred/act E change: -0.226D-02  0.291D-03
Maxdispl :   0.1556   ||displ|| :   0.2623   Lambda : -0.354D-02
Largest |displ|/coords:  0.1556 (  16)  0.1142 (  17)  0.0725 (  10)
................................................................................
.............................. CYCLE   15 ......................................
................................................................................
   1    -41.0949747 -0.410950E+02  0.286E-01    8.74       0.0  T
   2    -41.0950220 -0.472392E-04  0.214E-01    8.74       1.0  T
   3    -41.0950452 -0.231870E-04  0.516E-02    8.74       1.0  T
   4    -41.0950511 -0.592483E-05  0.131E-02    8.73       1.7  T
   5    -41.0950515 -0.423559E-06  0.411E-03    8.73       5.6  T
   6    -41.0950515 -0.100031E-07  0.229E-03    8.73      10.0  T
speedup  1.05
cpu  time for SCC    0.00 s
wall time for SCC    0.00 s
speedup  1.03
cpu  time for grad    0.01 s
wall time for grad    0.01 s
 E :    -40.89250686  G :  0.008178    pred/act E change: -0.328D-02 -0.185D-02
Maxdispl :   0.2004   ||displ|| :   0.3087   Lambda : -0.947D-03
Largest |displ|/coords:  0.2004 (   4)  0.1009 (  18)  0.0850 (   3)
................................................................................
.............................. CYCLE   16 ......................................
................................................................................
   1    -41.0894847 -0.410895E+02  0.483E-01    8.70       0.0  T
   2    -41.0895246 -0.398584E-04  0.367E-01    8.74       1.0  T
   3    -41.0895558 -0.311693E-04  0.416E-02    8.82       1.0  T
   4    -41.0895612 -0.544054E-05  0.122E-02    8.80       1.9  T
   5    -41.0895614 -0.253852E-06  0.354E-03    8.80       6.5  T
   6    -41.0895615 -0.228824E-08  0.213E-03    8.80      10.8  T
   7    -41.0895615 -0.593213E-08  0.362E-04    8.80      63.4  T
speedup  0.93
cpu  time for SCC    0.00 s
wall time for SCC    0.00 s
speedup  0.98
cpu  time for grad    0.01 s
wall time for grad    0.01 s
 E :    -40.89204186  G :  0.029902    pred/act E change: -0.189D-02  0.465D-03
Maxdispl :   0.1344   ||displ|| :   0.1884   Lambda : -0.196D-02
Largest |displ|/coords:  0.1344 (   4)  0.0763 (   5)  0.0603 (  16)
................................................................................
.............................. CYCLE   17 ......................................
................................................................................
   1    -41.0939752 -0.410940E+02  0.343E-01    8.84       0.0  T
   2    -41.0940107 -0.355145E-04  0.260E-01    8.81       1.0  T
   3    -41.0940319 -0.212118E-04  0.407E-02    8.73       1.0  T
   4    -41.0940377 -0.583768E-05  0.974E-03    8.76       2.4  T
   5    -41.0940379 -0.206587E-06  0.331E-03    8.76       6.9  T
   6    -41.0940379 -0.318214E-08  0.201E-03    8.77      11.4  T
speedup  0.81
cpu  time for SCC    0.00 s
wall time for SCC    0.00 s
speedup  0.93
cpu  time for grad    0.01 s
wall time for grad    0.01 s
 E :    -40.89284504  G :  0.007431    pred/act E change: -0.519D-03 -0.803D-03
Maxdispl :   0.0623   ||displ|| :   0.1381   Lambda : -0.204D-03
Largest |displ|/coords:  0.0623 (   2)  0.0448 (   7)  0.0439 (  11)
................................................................................
.............................. CYCLE   18 ......................................
................................................................................
   1    -41.0936537 -0.410937E+02  0.999E-02    8.80       0.0  T
   2    -41.0936558 -0.208565E-05  0.751E-02    8.81       1.0  T
   3    -41.0936572 -0.146662E-05  0.103E-02    8.84       2.2  T
   4    -41.0936575 -0.295475E-06  0.362E-03    8.83       6.3  T
   5    -41.0936575 -0.180383E-07  0.120E-03    8.83      19.1  T
   6    -41.0936575 -0.110637E-08  0.689E-04    8.83      33.3  T
speedup  1.08
cpu  time for SCC    0.00 s
wall time for SCC    0.00 s
speedup  1.02
cpu  time for grad    0.01 s
wall time for grad    0.01 s
 E :    -40.89294920  G :  0.009459    pred/act E change: -0.102D-02 -0.104D-03
Maxdispl :   0.2012   ||displ|| :   0.2892   Lambda : -0.340D-03
Largest |displ|/coords:  0.2012 (   2)  0.0850 (  17)  0.0804 (  13)
................................................................................
.............................. CYCLE   19 ......................................
................................................................................
   1    -41.0935652 -0.410936E+02  0.147E-01    8.86       0.0  T
   2    -41.0935708 -0.564263E-05  0.111E-01    8.87       1.0  T
   3    -41.0935749 -0.402671E-05  0.153E-02    8.89       1.5  T
   4    -41.0935758 -0.894583E-06  0.600E-03    8.88       3.8  T
   5    -41.0935758 -0.267233E-07  0.192E-03    8.88      11.9  T
   6    -41.0935758 -0.258171E-08  0.103E-03    8.88      22.3  T
speedup  1.08
cpu  time for SCC    0.00 s
wall time for SCC    0.00 s
speedup  1.15
cpu  time for grad    0.01 s
wall time for grad    0.01 s
 E :    -40.89314894  G :  0.011865    pred/act E change: -0.104D-03 -0.200D-03
Maxdispl :   0.3044   ||displ|| :   0.4920   Lambda : -0.510D-03
Largest |displ|/coords:  0.3044 (   2)  0.1467 (   5)  0.1391 (  17)
................................................................................
.............................. CYCLE   20 ......................................
................................................................................
   1    -41.0916751 -0.410917E+02  0.262E-01    8.91       0.0  T
   2    -41.0916993 -0.241616E-04  0.198E-01    8.92       1.0  T
   3    -41.0917154 -0.160735E-04  0.313E-02    8.93       1.0  T
   4    -41.0917195 -0.412491E-05  0.842E-03    8.93       2.7  T
   5    -41.0917195 -0.495963E-07  0.380E-03    8.93       6.0  T
   6    -41.0917195 -0.113210E-07  0.158E-03    8.93      14.5  T
   7    -41.0917195 -0.174489E-08  0.352E-04    8.93      65.2  T
speedup  1.14
cpu  time for SCC    0.00 s
wall time for SCC    0.00 s
speedup  1.08
cpu  time for grad    0.01 s
wall time for grad    0.01 s
 E :    -40.89342504  G :  0.017394    pred/act E change: -0.184D-03 -0.276D-03
Maxdispl :   0.2886   ||displ|| :   0.4185   Lambda : -0.606D-03
Largest |displ|/coords:  0.2886 (   2)  0.1273 (  20)  0.1150 (   1)
................................................................................
.............................. CYCLE   21 ......................................
................................................................................
   1    -41.0938897 -0.410939E+02  0.190E-01    8.97       0.0  T
   2    -41.0939010 -0.112875E-04  0.142E-01    8.97       1.0  T
   3    -41.0939089 -0.788854E-05  0.260E-02    8.95       1.0  T
   4    -41.0939103 -0.144772E-05  0.768E-03    8.96       3.0  T
   5    -41.0939104 -0.641002E-07  0.259E-03    8.96       8.9  T
   6    -41.0939104 -0.523720E-08  0.138E-03    8.96      16.6  T
speedup  1.08
cpu  time for SCC    0.00 s
wall time for SCC    0.00 s
speedup  1.03
cpu  time for grad    0.01 s
wall time for grad    0.01 s
 E :    -40.89366280  G :  0.012839    pred/act E change: -0.317D-03 -0.238D-03
Maxdispl :   0.1741   ||displ|| :   0.3096   Lambda : -0.449D-03
Largest |displ|/coords:  0.1741 (   2)  0.1635 (   1)  0.1267 (   8)
................................................................................
.............................. CYCLE   22 ......................................
................................................................................
   1    -41.0938887 -0.410939E+02  0.172E-01    9.01       0.0  T
   2    -41.0938936 -0.495732E-05  0.129E-01    9.01       1.0  T
   3    -41.0938989 -0.532957E-05  0.160E-02    9.02       1.4  T
   4    -41.0938994 -0.464161E-06  0.619E-03    9.02       3.7  T
   5    -41.0938995 -0.415312E-07  0.232E-03    9.02       9.9  T
   6    -41.0938995 -0.529448E-08  0.128E-03    9.02      17.9  T
speedup  0.79
cpu  time for SCC    0.00 s
wall time for SCC    0.00 s
speedup  0.92
cpu  time for grad    0.01 s
wall time for grad    0.01 s
 E :    -40.89386085  G :  0.015214    pred/act E change: -0.356D-03 -0.198D-03
Maxdispl :   0.2044   ||displ|| :   0.3171   Lambda : -0.512D-03
Largest |displ|/coords:  0.2044 (   1)  0.1617 (   2)  0.0854 (   7)
................................................................................
.............................. CYCLE   23 ......................................
................................................................................
   1    -41.0922952 -0.410923E+02  0.168E-01    8.97       0.0  T
   2    -41.0923041 -0.890112E-05  0.127E-01    8.97       1.0  T
   3    -41.0923142 -0.100806E-04  0.216E-02    8.97       1.1  T
   4    -41.0923151 -0.887978E-06  0.760E-03    8.97       3.0  T
   5    -41.0923151 -0.525922E-07  0.269E-03    8.97       8.5  T
   6    -41.0923151 -0.776989E-08  0.125E-03    8.97      18.4  T
speedup  1.08
cpu  time for SCC    0.00 s
wall time for SCC    0.00 s
speedup  1.05
cpu  time for grad    0.01 s
wall time for grad    0.01 s
 E :    -40.89395300  G :  0.017736    pred/act E change: -0.246D-03 -0.922D-04
Maxdispl :   0.1495   ||displ|| :   0.2772   Lambda : -0.514D-03
Largest |displ|/coords:  0.1495 (   2)  0.1071 (   1)  0.0984 (  10)
................................................................................
.............................. CYCLE   24 ......................................
................................................................................
   1    -41.0900854 -0.410901E+02  0.184E-01    8.89       0.0  T
   2    -41.0900965 -0.110325E-04  0.138E-01    8.90       1.0  T
   3    -41.0901021 -0.567175E-05  0.238E-02    8.91       1.0  T
   4    -41.0901040 -0.184404E-05  0.769E-03    8.91       3.0  T
   5    -41.0901041 -0.619132E-07  0.246E-03    8.91       9.3  T
   6    -41.0901041 -0.412013E-08  0.137E-03    8.91      16.8  T
speedup  0.83
cpu  time for SCC    0.00 s
wall time for SCC    0.00 s
speedup  0.93
cpu  time for grad    0.01 s
wall time for grad    0.01 s
 E :    -40.89411177  G :  0.015240    pred/act E change: -0.282D-03 -0.159D-03
Maxdispl :   0.0933   ||displ|| :   0.1737   Lambda : -0.456D-03
Largest |displ|/coords:  0.0933 (   1)  0.0849 (  10)  0.0699 (   2)
................................................................................
.............................. CYCLE   25 ......................................
................................................................................
   1    -41.0947429 -0.410947E+02  0.134E-01    9.04       0.0  T
   2    -41.0947545 -0.115656E-04  0.101E-01    9.05       1.0  T
   3    -41.0947591 -0.460325E-05  0.229E-02    9.06       1.0  T
   4    -41.0947609 -0.186557E-05  0.853E-03    9.06       2.7  T
   5    -41.0947610 -0.647027E-07  0.200E-03    9.06      11.5  T
   6    -41.0947610 -0.410718E-08  0.110E-03    9.06      20.9  T
speedup  1.05
cpu  time for SCC    0.00 s
wall time for SCC    0.00 s
speedup  1.03
cpu  time for grad    0.01 s
wall time for grad    0.01 s
 E :    -40.89426547  G :  0.013175    pred/act E change: -0.277D-03 -0.154D-03
Maxdispl :   0.1456   ||displ|| :   0.2494   Lambda : -0.352D-03
Largest |displ|/coords:  0.1456 (   1)  0.1353 (   2)  0.0838 (   5)

generating ANC from model Hessian ...
 Shifting diagonal of input Hessian by   5.110345613070982E-003
 Lowest  eigenvalues of input Hessian
    0.005000    0.005038   -0.000000   -0.000000   -0.000000   -0.000000
    0.000000    0.000000    0.005456    0.005578    0.006410    0.007055
    0.007672    0.008099    0.009503    0.010646    0.011242    0.013290
 Highest eigenvalues
    1.398661    1.406724    1.435955    2.669739    3.317088    3.667144
 
cpu  time for ANC gen    0.00 s
wall time for ANC gen    0.00 s
................................................................................
.............................. CYCLE   26 ......................................
................................................................................
   1    -41.0919955 -0.410920E+02  0.150E-01    9.06       0.0  T
   2    -41.0920101 -0.145313E-04  0.112E-01    9.06       1.0  T
   3    -41.0920175 -0.744302E-05  0.254E-02    9.06       1.0  T
   4    -41.0920196 -0.204359E-05  0.473E-03    9.06       4.8  T
   5    -41.0920196 -0.336493E-07  0.214E-03    9.06      10.7  T
   6    -41.0920196 -0.232472E-08  0.110E-03    9.06      20.8  T
   7    -41.0920196 -0.121268E-08  0.239E-04    9.06      95.8  T
   8    -41.0920196 -0.137419E-09  0.613E-05    9.06     374.5  T
speedup  1.02
cpu  time for SCC    0.00 s
wall time for SCC    0.00 s
speedup  0.88
cpu  time for grad    0.01 s
wall time for grad    0.01 s
 E :    -40.89441953  G :  0.010647    pred/act E change:  0.000D+00 -0.154D-03
Maxdispl :   0.2132   ||displ|| :   0.3265   Lambda : -0.102D-02
Largest |displ|/coords:  0.2132 (   7)  0.1353 (   6)  0.1306 (   3)
................................................................................
.............................. CYCLE   27 ......................................
................................................................................
   1    -41.0885941 -0.410886E+02  0.526E-01    9.05       0.0  T
   2    -41.0886279 -0.338317E-04  0.401E-01    9.09       1.0  T
   3    -41.0886648 -0.368601E-04  0.310E-02    9.19       1.0  T
   4    -41.0886673 -0.256873E-05  0.106E-02    9.17       2.2  T
   5    -41.0886674 -0.968962E-07  0.415E-03    9.16       5.5  T
   6    -41.0886674 -0.691452E-08  0.199E-03    9.16      11.5  T
   7    -41.0886674 -0.901564E-08  0.374E-04    9.17      61.4  T
speedup  0.93
cpu  time for SCC    0.00 s
wall time for SCC    0.00 s
speedup  0.97
cpu  time for grad    0.01 s
wall time for grad    0.01 s
 E :    -40.89453382  G :  0.029121    pred/act E change:  0.000D+00 -0.114D-03
Maxdispl :   0.0958   ||displ|| :   0.1857   Lambda : -0.155D-02
Largest |displ|/coords:  0.0958 (  11)  0.0957 (   7)  0.0530 (   6)
................................................................................
.............................. CYCLE   28 ......................................
................................................................................
   1    -41.0934239 -0.410934E+02  0.326E-01    9.20       0.0  T
   2    -41.0934477 -0.237903E-04  0.248E-01    9.17       1.0  T
   3    -41.0934640 -0.162573E-04  0.313E-02    9.09       1.0  T
   4    -41.0934679 -0.390394E-05  0.554E-03    9.12       4.1  T
   5    -41.0934679 -0.448206E-07  0.285E-03    9.13       8.0  T
speedup  0.97
cpu  time for SCC    0.00 s
wall time for SCC    0.00 s
speedup  1.00
cpu  time for grad    0.01 s
wall time for grad    0.01 s
 E :    -40.89513901  G :  0.007493    pred/act E change: -0.563D-03 -0.605D-03
Maxdispl :   0.1161   ||displ|| :   0.2186   Lambda : -0.425D-03
Largest |displ|/coords:  0.1161 (   1)  0.1133 (   3)  0.1102 (   6)
................................................................................
.............................. CYCLE   29 ......................................
................................................................................
   1    -41.0927560 -0.410928E+02  0.177E-01    9.15       0.0  T
   2    -41.0927587 -0.268133E-05  0.134E-01    9.16       1.0  T
   3    -41.0927621 -0.349831E-05  0.108E-02    9.17       2.1  T
   4    -41.0927623 -0.123368E-06  0.376E-03    9.17       6.1  T
   5    -41.0927623 -0.121431E-07  0.149E-03    9.17      15.4  T
   6    -41.0927623 -0.164968E-08  0.577E-04    9.17      39.8  T
speedup  1.08
cpu  time for SCC    0.00 s
wall time for SCC    0.00 s
speedup  1.05
cpu  time for grad    0.01 s
wall time for grad    0.01 s
 E :    -40.89549467  G :  0.010474    pred/act E change: -0.800D-03 -0.356D-03
Maxdispl :   0.3497   ||displ|| :   0.6055   Lambda : -0.116D-02
Largest |displ|/coords:  0.3497 (   3)  0.3451 (   1)  0.2146 (   6)
................................................................................
.............................. CYCLE   30 ......................................
................................................................................
   1    -41.0849647 -0.410850E+02  0.519E-01    9.19       0.0  T
   2    -41.0850011 -0.363513E-04  0.393E-01    9.23       1.0  T
   3    -41.0850349 -0.337585E-04  0.411E-02    9.28       1.0  T
   4    -41.0850388 -0.398533E-05  0.119E-02    9.28       1.9  T
   5    -41.0850390 -0.148118E-06  0.507E-03    9.28       4.5  T
   6    -41.0850390 -0.136768E-07  0.253E-03    9.28       9.1  T
   7    -41.0850390 -0.116816E-07  0.481E-04    9.28      47.7  T
speedup  1.19
cpu  time for SCC    0.00 s
wall time for SCC    0.00 s
speedup  1.09
cpu  time for grad    0.01 s
wall time for grad    0.01 s
 E :    -40.89599234  G :  0.036211    pred/act E change: -0.223D-03 -0.498D-03
Maxdispl :   0.1225   ||displ|| :   0.2057   Lambda : -0.136D-02
Largest |displ|/coords:  0.1225 (   8)  0.0926 (  11)  0.0771 (   7)
................................................................................
.............................. CYCLE   31 ......................................
................................................................................
   1    -41.0888334 -0.410888E+02  0.187E-01    9.28       0.0  T
   2    -41.0888443 -0.108582E-04  0.139E-01    9.28       1.0  T
   3    -41.0888515 -0.719079E-05  0.232E-02    9.28       1.0  T
   4    -41.0888529 -0.138747E-05  0.711E-03    9.27       3.2  T
   5    -41.0888529 -0.726078E-07  0.283E-03    9.28       8.1  T
   6    -41.0888529 -0.404471E-08  0.148E-03    9.28      15.5  T
speedup  1.08
cpu  time for SCC    0.00 s
wall time for SCC    0.00 s
speedup  1.05
cpu  time for grad    0.01 s
wall time for grad    0.01 s
 E :    -40.89664991  G :  0.018899    pred/act E change: -0.794D-03 -0.658D-03
Maxdispl :   0.1825   ||displ|| :   0.3430   Lambda : -0.136D-02
Largest |displ|/coords:  0.1825 (   8)  0.1714 (   5)  0.1305 (   1)
................................................................................
.............................. CYCLE   32 ......................................
................................................................................
   1    -41.0916205 -0.410916E+02  0.260E-01    9.32       0.0  T
   2    -41.0916289 -0.841184E-05  0.196E-01    9.32       1.0  T
   3    -41.0916387 -0.974584E-05  0.195E-02    9.32       1.2  T
   4    -41.0916393 -0.591519E-06  0.745E-03    9.32       3.1  T
   5    -41.0916393 -0.490121E-07  0.283E-03    9.32       8.1  T
   6    -41.0916393 -0.611660E-08  0.154E-03    9.32      14.9  T
speedup  0.81
cpu  time for SCC    0.00 s
wall time for SCC    0.00 s
speedup  0.93
cpu  time for grad    0.01 s
wall time for grad    0.01 s
 E :    -40.89733993  G :  0.016526    pred/act E change: -0.710D-03 -0.690D-03
Maxdispl :   0.2944   ||displ|| :   0.4888   Lambda : -0.152D-02
Largest |displ|/coords:  0.2944 (   1)  0.2032 (   5)  0.1792 (   8)
................................................................................
.............................. CYCLE   33 ......................................
................................................................................
   1    -41.0895655 -0.410896E+02  0.410E-01    9.33       0.0  T
   2    -41.0896299 -0.643257E-04  0.308E-01    9.33       1.0  T
   3    -41.0896609 -0.310295E-04  0.587E-02    9.33       1.0  T
   4    -41.0896705 -0.956130E-05  0.143E-02    9.33       1.6  T
   5    -41.0896710 -0.490406E-06  0.409E-03    9.33       5.6  T
   6    -41.0896710 -0.723227E-08  0.268E-03    9.33       8.6  T
   7    -41.0896710 -0.383194E-08  0.488E-04    9.33      47.0  T
speedup  1.14
cpu  time for SCC    0.00 s
wall time for SCC    0.00 s
speedup  1.08
cpu  time for grad    0.01 s
wall time for grad    0.01 s
 E :    -40.89792930  G :  0.033234    pred/act E change: -0.759D-03 -0.589D-03
Maxdispl :   0.2232   ||displ|| :   0.3350   Lambda : -0.173D-02
Largest |displ|/coords:  0.2232 (   3)  0.1845 (   1)  0.0778 (   8)
................................................................................
.............................. CYCLE   34 ......................................
................................................................................
   1    -41.0849239 -0.410849E+02  0.290E-01    9.40       0.0  T
   2    -41.0849487 -0.248028E-04  0.219E-01    9.40       1.0  T
   3    -41.0849733 -0.246051E-04  0.339E-02    9.40       1.0  T
   4    -41.0849761 -0.283884E-05  0.123E-02    9.40       1.9  T
   5    -41.0849762 -0.134951E-06  0.480E-03    9.40       4.8  T
   6    -41.0849763 -0.203459E-07  0.238E-03    9.40       9.6  T
speedup  1.05
cpu  time for SCC    0.00 s
wall time for SCC    0.00 s
speedup  1.03
cpu  time for grad    0.01 s
wall time for grad    0.01 s
 E :    -40.89836885  G :  0.032516    pred/act E change: -0.939D-03 -0.440D-03
Maxdispl :   0.1820   ||displ|| :   0.3333   Lambda : -0.251D-02
Largest |displ|/coords:  0.1820 (   8)  0.1761 (   3)  0.1573 (   6)
................................................................................
.............................. CYCLE   35 ......................................
................................................................................
   1    -41.1019994 -0.411020E+02  0.380E-01    9.55       0.0  T
   2    -41.1021007 -0.101290E-03  0.279E-01    9.55       1.0  T
   3    -41.1021528 -0.521467E-04  0.661E-02    9.55       1.0  T
   4    -41.1021632 -0.103623E-04  0.104E-02    9.55       2.2  T
   5    -41.1021633 -0.143740E-06  0.535E-03    9.55       4.3  T
   6    -41.1021634 -0.111277E-07  0.256E-03    9.55       9.0  T
speedup  0.81
cpu  time for SCC    0.00 s
wall time for SCC    0.00 s
speedup  0.92
cpu  time for grad    0.01 s
wall time for grad    0.01 s
 E :    -40.89782615  G :  0.033661    pred/act E change: -0.962D-03  0.543D-03
Maxdispl :   0.1924   ||displ|| :   0.3282   Lambda : -0.267D-02
Largest |displ|/coords:  0.1924 (   6)  0.1328 (   3)  0.1308 (   8)
................................................................................
.............................. CYCLE   36 ......................................
................................................................................
   1    -41.0923176 -0.410923E+02  0.324E-01    9.47       0.0  T
   2    -41.0923699 -0.523554E-04  0.242E-01    9.47       1.0  T
   3    -41.0924002 -0.302518E-04  0.493E-02    9.47       1.0  T
   4    -41.0924072 -0.703061E-05  0.110E-02    9.47       2.1  T
   5    -41.0924074 -0.182048E-06  0.494E-03    9.47       4.6  T
   6    -41.0924074 -0.167023E-07  0.307E-03    9.47       7.5  T
speedup  1.00
cpu  time for SCC    0.00 s
wall time for SCC    0.00 s
speedup  0.96
cpu  time for grad    0.01 s
wall time for grad    0.01 s
 E :    -40.89930524  G :  0.019866    pred/act E change: -0.139D-02 -0.148D-02
Maxdispl :   0.0988   ||displ|| :   0.2340   Lambda : -0.112D-02
Largest |displ|/coords:  0.0988 (   1)  0.0923 (  12)  0.0906 (   4)
................................................................................
.............................. CYCLE   37 ......................................
................................................................................
   1    -41.0895795 -0.410896E+02  0.349E-01    9.43       0.0  T
   2    -41.0896320 -0.525229E-04  0.264E-01    9.43       1.0  T
   3    -41.0896619 -0.298368E-04  0.499E-02    9.43       1.0  T
   4    -41.0896700 -0.817142E-05  0.116E-02    9.43       2.0  T
   5    -41.0896703 -0.260453E-06  0.440E-03    9.43       5.2  T
   6    -41.0896703 -0.125581E-07  0.276E-03    9.43       8.3  T
   7    -41.0896703 -0.696203E-08  0.490E-04    9.43      46.8  T
speedup  0.64
cpu  time for SCC    0.00 s
wall time for SCC    0.00 s
speedup  0.82
cpu  time for grad    0.01 s
wall time for grad    0.01 s
 E :    -40.89914313  G :  0.031683    pred/act E change: -0.148D-02  0.162D-03
Maxdispl :   0.0544   ||displ|| :   0.1446   Lambda : -0.121D-02
Largest |displ|/coords:  0.0544 (   3)  0.0498 (   2)  0.0497 (   8)
................................................................................
.............................. CYCLE   38 ......................................
................................................................................
   1    -41.0914378 -0.410914E+02  0.198E-01    9.42       0.0  T
   2    -41.0914574 -0.196450E-04  0.149E-01    9.42       1.0  T
   3    -41.0914691 -0.117435E-04  0.302E-02    9.42       1.0  T
   4    -41.0914721 -0.296497E-05  0.750E-03    9.42       3.1  T
   5    -41.0914722 -0.826481E-07  0.302E-03    9.42       7.6  T
   6    -41.0914722 -0.384956E-08  0.169E-03    9.42      13.6  T
speedup  1.08
cpu  time for SCC    0.00 s
wall time for SCC    0.00 s
speedup  1.03
cpu  time for grad    0.01 s
wall time for grad    0.01 s
 E :    -40.89985274  G :  0.009846    pred/act E change: -0.590D-03 -0.710D-03
Maxdispl :   0.0878   ||displ|| :   0.1954   Lambda : -0.450D-03
Largest |displ|/coords:  0.0878 (   2)  0.0788 (   1)  0.0641 (   7)
................................................................................
.............................. CYCLE   39 ......................................
................................................................................
   1    -41.0903644 -0.410904E+02  0.206E-01    9.46       0.0  T
   2    -41.0903706 -0.623772E-05  0.156E-01    9.46       1.0  T
   3    -41.0903781 -0.749754E-05  0.171E-02    9.46       1.3  T
   4    -41.0903786 -0.443880E-06  0.588E-03    9.46       3.9  T
   5    -41.0903786 -0.306380E-07  0.225E-03    9.46      10.2  T
   6    -41.0903786 -0.415064E-08  0.115E-03    9.46      19.9  T
speedup  0.81
cpu  time for SCC    0.00 s
wall time for SCC    0.00 s
speedup  0.92
cpu  time for grad    0.01 s
wall time for grad    0.01 s
 E :    -40.90004508  G :  0.019737    pred/act E change: -0.620D-03 -0.192D-03
Maxdispl :   0.1209   ||displ|| :   0.1762   Lambda : -0.495D-03
Largest |displ|/coords:  0.1209 (   2)  0.0762 (   1)  0.0509 (   8)
................................................................................
.............................. CYCLE   40 ......................................
................................................................................
   1    -41.0920464 -0.410920E+02  0.122E-01    9.42       0.0  T
   2    -41.0920498 -0.341125E-05  0.918E-02    9.42       1.0  T
   3    -41.0920523 -0.252344E-05  0.136E-02    9.42       1.7  T
   4    -41.0920528 -0.475430E-06  0.452E-03    9.42       5.1  T
   5    -41.0920528 -0.184212E-07  0.136E-03    9.42      16.8  T
   6    -41.0920528 -0.109517E-08  0.783E-04    9.42      29.3  T
speedup  1.08
cpu  time for SCC    0.00 s
wall time for SCC    0.00 s
speedup  1.03
cpu  time for grad    0.01 s
wall time for grad    0.01 s
 E :    -40.90040061  G :  0.011821    pred/act E change: -0.233D-03 -0.356D-03
Maxdispl :   0.2262   ||displ|| :   0.3459   Lambda : -0.702D-03
Largest |displ|/coords:  0.2262 (   2)  0.1568 (   1)  0.0779 (   9)
................................................................................
.............................. CYCLE   41 ......................................
................................................................................
   1    -41.0904464 -0.410904E+02  0.274E-01    9.34       0.0  T
   2    -41.0904597 -0.132598E-04  0.208E-01    9.34       1.0  T
   3    -41.0904704 -0.107617E-04  0.249E-02    9.34       1.0  T
   4    -41.0904722 -0.181158E-05  0.824E-03    9.34       2.8  T
   5    -41.0904723 -0.764717E-07  0.290E-03    9.34       7.9  T
   6    -41.0904723 -0.560229E-08  0.170E-03    9.34      13.5  T
speedup  1.08
cpu  time for SCC    0.00 s
wall time for SCC    0.00 s
speedup  1.03
cpu  time for grad    0.01 s
wall time for grad    0.01 s
 E :    -40.90076128  G :  0.007445    pred/act E change: -0.255D-03 -0.361D-03
Maxdispl :   0.1400   ||displ|| :   0.2538   Lambda : -0.374D-03
Largest |displ|/coords:  0.1400 (   2)  0.1110 (   1)  0.1051 (   8)
................................................................................
.............................. CYCLE   42 ......................................
................................................................................
   1    -41.0905922 -0.410906E+02  0.196E-01    9.33       0.0  T
   2    -41.0905974 -0.516565E-05  0.148E-01    9.33       1.0  T
   3    -41.0906018 -0.442460E-05  0.147E-02    9.33       1.6  T
   4    -41.0906025 -0.700187E-06  0.549E-03    9.33       4.2  T
   5    -41.0906025 -0.298958E-07  0.204E-03    9.33      11.3  T
   6    -41.0906025 -0.264480E-08  0.917E-04    9.33      25.0  T
speedup  1.05
cpu  time for SCC    0.00 s
wall time for SCC    0.00 s
speedup  1.02
cpu  time for grad    0.01 s
wall time for grad    0.01 s
 E :    -40.90096262  G :  0.011890    pred/act E change: -0.393D-03 -0.201D-03
Maxdispl :   0.1157   ||displ|| :   0.1879   Lambda : -0.335D-03
Largest |displ|/coords:  0.1157 (   2)  0.0688 (  12)  0.0608 (   4)
................................................................................
.............................. CYCLE   43 ......................................
................................................................................
   1    -41.0931476 -0.410931E+02  0.133E-01    9.33       0.0  T
   2    -41.0931570 -0.933027E-05  0.992E-02    9.33       1.0  T
   3    -41.0931624 -0.547197E-05  0.201E-02    9.33       1.1  T
   4    -41.0931637 -0.125441E-05  0.558E-03    9.33       4.1  T
   5    -41.0931637 -0.408724E-07  0.223E-03    9.33      10.3  T
   6    -41.0931637 -0.330414E-08  0.116E-03    9.33      19.7  T
speedup  0.81
cpu  time for SCC    0.00 s
wall time for SCC    0.00 s
speedup  0.92
cpu  time for grad    0.01 s
wall time for grad    0.01 s
 E :    -40.90099217  G :  0.015675    pred/act E change: -0.199D-03 -0.296D-04
Maxdispl :   0.2093   ||displ|| :   0.2934   Lambda : -0.598D-03
Largest |displ|/coords:  0.2093 (   1)  0.0678 (   2)  0.0646 (   5)
................................................................................
.............................. CYCLE   44 ......................................
................................................................................
   1    -41.0898114 -0.410898E+02  0.226E-01    9.34       0.0  T
   2    -41.0898199 -0.842880E-05  0.169E-01    9.34       1.0  T
   3    -41.0898260 -0.615975E-05  0.229E-02    9.34       1.0  T
   4    -41.0898273 -0.126578E-05  0.787E-03    9.34       2.9  T
   5    -41.0898273 -0.590872E-07  0.257E-03    9.34       8.9  T
   6    -41.0898274 -0.490581E-08  0.134E-03    9.34      17.1  T
speedup  1.05
cpu  time for SCC    0.00 s
wall time for SCC    0.00 s
speedup  1.02
cpu  time for grad    0.01 s
wall time for grad    0.01 s
 E :    -40.90111935  G :  0.016674    pred/act E change: -0.173D-03 -0.127D-03
Maxdispl :   0.0986   ||displ|| :   0.1648   Lambda : -0.513D-03
Largest |displ|/coords:  0.0986 (   3)  0.0783 (   5)  0.0562 (   9)
................................................................................
.............................. CYCLE   45 ......................................
................................................................................
   1    -41.0960476 -0.410960E+02  0.129E-01    9.38       0.0  T
   2    -41.0960580 -0.104342E-04  0.965E-02    9.38       1.0  T
   3    -41.0960637 -0.567765E-05  0.210E-02    9.38       1.1  T
   4    -41.0960652 -0.143227E-05  0.572E-03    9.38       4.0  T
   5    -41.0960652 -0.528230E-07  0.221E-03    9.38      10.4  T
   6    -41.0960652 -0.284842E-08  0.113E-03    9.38      20.3  T
speedup  0.81
cpu  time for SCC    0.00 s
wall time for SCC    0.00 s
speedup  0.92
cpu  time for grad    0.01 s
wall time for grad    0.01 s
 E :    -40.90116100  G :  0.014734    pred/act E change: -0.325D-03 -0.416D-04
Maxdispl :   0.1199   ||displ|| :   0.1414   Lambda : -0.458D-03
Largest |displ|/coords:  0.1199 (   2)  0.0304 (   4)  0.0303 (  12)
................................................................................
.............................. CYCLE   46 ......................................
................................................................................
   1    -41.0915425 -0.410915E+02  0.112E-01    9.37       0.0  T
   2    -41.0915493 -0.677286E-05  0.839E-02    9.37       1.0  T
   3    -41.0915531 -0.380918E-05  0.177E-02    9.37       1.3  T
   4    -41.0915540 -0.899944E-06  0.492E-03    9.37       4.7  T
   5    -41.0915540 -0.343222E-07  0.159E-03    9.37      14.4  T
   6    -41.0915540 -0.127653E-08  0.926E-04    9.37      24.8  T
speedup  1.08
cpu  time for SCC    0.00 s
wall time for SCC    0.00 s
speedup  1.03
cpu  time for grad    0.01 s
wall time for grad    0.01 s
 E :    -40.90132799  G :  0.009959    pred/act E change: -0.263D-03 -0.167D-03
Maxdispl :   0.0661   ||displ|| :   0.0969   Lambda : -0.183D-03
Largest |displ|/coords:  0.0661 (   1)  0.0437 (  10)  0.0208 (  16)
................................................................................
.............................. CYCLE   47 ......................................
................................................................................
   1    -41.0918717 -0.410919E+02  0.646E-02    9.38       0.0  T
   2    -41.0918737 -0.205761E-05  0.473E-02    9.38       1.0  T
   3    -41.0918747 -0.933024E-06  0.104E-02    9.38       2.2  T
   4    -41.0918749 -0.244266E-06  0.250E-03    9.38       9.2  T
   5    -41.0918749 -0.108096E-07  0.863E-04    9.38      26.6  T
speedup  0.94
cpu  time for SCC    0.00 s
wall time for SCC    0.00 s
speedup  0.98
cpu  time for grad    0.01 s
wall time for grad    0.01 s
 E :    -40.90142310  G :  0.005467    pred/act E change: -0.233D-03 -0.951D-04
Maxdispl :   0.1131   ||displ|| :   0.1885   Lambda : -0.119D-03
Largest |displ|/coords:  0.1131 (   1)  0.0806 (   2)  0.0675 (   4)
................................................................................
.............................. CYCLE   48 ......................................
................................................................................
   1    -41.0921618 -0.410922E+02  0.105E-01    9.39       0.0  T
   2    -41.0921634 -0.164361E-05  0.789E-02    9.39       1.0  T
   3    -41.0921650 -0.160525E-05  0.890E-03    9.39       2.6  T
   4    -41.0921652 -0.189901E-06  0.325E-03    9.39       7.1  T
   5    -41.0921652 -0.118872E-07  0.122E-03    9.39      18.8  T
   6    -41.0921652 -0.117029E-08  0.642E-04    9.39      35.7  T
speedup  1.08
cpu  time for SCC    0.00 s
wall time for SCC    0.00 s
speedup  1.03
cpu  time for grad    0.01 s
wall time for grad    0.01 s
 E :    -40.90150031  G :  0.008487    pred/act E change: -0.922D-04 -0.772D-04
Maxdispl :   0.1666   ||displ|| :   0.2691   Lambda : -0.173D-03
Largest |displ|/coords:  0.1666 (   1)  0.1212 (   2)  0.0909 (   3)
................................................................................
.............................. CYCLE   49 ......................................
................................................................................
   1    -41.0924480 -0.410924E+02  0.123E-01    9.41       0.0  T
   2    -41.0924497 -0.173175E-05  0.930E-02    9.41       1.0  T
   3    -41.0924517 -0.198464E-05  0.948E-03    9.41       2.4  T
   4    -41.0924519 -0.140870E-06  0.387E-03    9.41       5.9  T
   5    -41.0924519 -0.120092E-07  0.122E-03    9.41      18.8  T
   6    -41.0924519 -0.992685E-09  0.746E-04    9.41      30.8  T
speedup  1.08
cpu  time for SCC    0.00 s
wall time for SCC    0.00 s
speedup  1.03
cpu  time for grad    0.01 s
wall time for grad    0.01 s
 E :    -40.90162985  G :  0.006987    pred/act E change: -0.614D-04 -0.130D-03
Maxdispl :   0.2149   ||displ|| :   0.3613   Lambda : -0.243D-03
Largest |displ|/coords:  0.2149 (   1)  0.1628 (   2)  0.1336 (   4)
................................................................................
.............................. CYCLE   50 ......................................
................................................................................
   1    -41.0923037 -0.410923E+02  0.165E-01    9.43       0.0  T
   2    -41.0923098 -0.612229E-05  0.124E-01    9.43       1.0  T
   3    -41.0923137 -0.383261E-05  0.158E-02    9.44       1.5  T
   4    -41.0923146 -0.986988E-06  0.544E-03    9.43       4.2  T
   5    -41.0923147 -0.440390E-07  0.180E-03    9.43      12.7  T
   6    -41.0923147 -0.177264E-08  0.103E-03    9.43      22.2  T
speedup  1.05
cpu  time for SCC    0.00 s
wall time for SCC    0.00 s
speedup  1.02
cpu  time for grad    0.01 s
wall time for grad    0.01 s
 E :    -40.90174153  G :  0.007955    pred/act E change: -0.930D-04 -0.112D-03
Maxdispl :   0.1363   ||displ|| :   0.2052   Lambda : -0.148D-03
Largest |displ|/coords:  0.1363 (   1)  0.0952 (   2)  0.0593 (   3)
................................................................................
.............................. CYCLE   51 ......................................
................................................................................
   1    -41.0914096 -0.410914E+02  0.990E-02    9.42       0.0  T
   2    -41.0914131 -0.348966E-05  0.751E-02    9.42       1.0  T
   3    -41.0914152 -0.211982E-05  0.129E-02    9.43       1.8  T
   4    -41.0914158 -0.575050E-06  0.529E-03    9.42       4.3  T
   5    -41.0914158 -0.325189E-07  0.134E-03    9.42      17.2  T
   6    -41.0914158 -0.159152E-08  0.786E-04    9.42      29.2  T
speedup  1.08
cpu  time for SCC    0.00 s
wall time for SCC    0.00 s
speedup  1.02
cpu  time for grad    0.01 s
wall time for grad    0.01 s
 E :    -40.90181951  G :  0.007193    pred/act E change: -0.137D-03 -0.780D-04
Maxdispl :   0.0767   ||displ|| :   0.0996   Lambda : -0.117D-03
Largest |displ|/coords:  0.0767 (   1)  0.0331 (   2)  0.0222 (   6)
................................................................................
.............................. CYCLE   52 ......................................
................................................................................
   1    -41.0925704 -0.410926E+02  0.619E-02    9.40       0.0  T
   2    -41.0925719 -0.151401E-05  0.452E-02    9.40       1.0  T
   3    -41.0925729 -0.104463E-05  0.113E-02    9.40       2.0  T
   4    -41.0925731 -0.161675E-06  0.379E-03    9.40       6.1  T
   5    -41.0925731 -0.126874E-07  0.843E-04    9.40      27.2  T
   6    -41.0925731 -0.650957E-09  0.547E-04    9.40      42.0  T
speedup  1.08
cpu  time for SCC    0.00 s
wall time for SCC    0.00 s
speedup  1.02
cpu  time for grad    0.01 s
wall time for grad    0.01 s
 E :    -40.90188122  G :  0.005894    pred/act E change: -0.771D-04 -0.617D-04
Maxdispl :   0.2611   ||displ|| :   0.3489   Lambda : -0.150D-03
Largest |displ|/coords:  0.2611 (   1)  0.1613 (   2)  0.0685 (   4)

generating ANC from model Hessian ...
 Shifting diagonal of input Hessian by   5.093712839594428E-003
 Lowest  eigenvalues of input Hessian
    0.005000   -0.000000   -0.000000   -0.000000   -0.000000    0.000000
    0.000000    0.005413    0.005531    0.005660    0.006269    0.008252
    0.010928    0.012160    0.014570    0.015670    0.016953    0.018387
 Highest eigenvalues
    1.351537    1.399315    1.426228    2.816786    3.290508    3.458295
 
cpu  time for ANC gen    0.00 s
wall time for ANC gen    0.00 s
................................................................................
.............................. CYCLE   53 ......................................
................................................................................
   1    -41.0900194 -0.410900E+02  0.177E-01    9.34       0.0  T
   2    -41.0900233 -0.392871E-05  0.133E-01    9.34       1.0  T
   3    -41.0900276 -0.425609E-05  0.151E-02    9.35       1.5  T
   4    -41.0900279 -0.324633E-06  0.360E-03    9.34       6.4  T
   5    -41.0900279 -0.154019E-07  0.183E-03    9.34      12.5  T
   6    -41.0900279 -0.479478E-08  0.897E-04    9.34      25.6  T
   7    -41.0900279 -0.692353E-09  0.172E-04    9.34     133.7  T
speedup  0.89
cpu  time for SCC    0.00 s
wall time for SCC    0.00 s
speedup  1.02
cpu  time for grad    0.01 s
wall time for grad    0.01 s
 E :    -40.90196117  G :  0.008495    pred/act E change:  0.000D+00 -0.799D-04
Maxdispl :   0.1048   ||displ|| :   0.1646   Lambda : -0.261D-03
Largest |displ|/coords:  0.1048 (   2)  0.0691 (   3)  0.0680 (   1)
................................................................................
.............................. CYCLE   54 ......................................
................................................................................
   1    -41.0912235 -0.410912E+02  0.157E-01    9.37       0.0  T
   2    -41.0912259 -0.235167E-05  0.119E-01    9.37       1.0  T
   3    -41.0912292 -0.333622E-05  0.834E-03    9.36       2.8  T
   4    -41.0912293 -0.919600E-07  0.334E-03    9.36       6.9  T
   5    -41.0912293 -0.100821E-07  0.136E-03    9.36      16.9  T
   6    -41.0912293 -0.238268E-08  0.510E-04    9.36      45.0  T
speedup  1.05
cpu  time for SCC    0.00 s
wall time for SCC    0.00 s
speedup  1.01
cpu  time for grad    0.01 s
wall time for grad    0.01 s
 E :    -40.90214934  G :  0.006348    pred/act E change:  0.000D+00 -0.188D-03
Maxdispl :   0.1941   ||displ|| :   0.2716   Lambda : -0.269D-03
Largest |displ|/coords:  0.1941 (   2)  0.1531 (   1)  0.0660 (   4)
................................................................................
.............................. CYCLE   55 ......................................
................................................................................
   1    -41.0908922 -0.410909E+02  0.236E-01    9.40       0.0  T
   2    -41.0908977 -0.551923E-05  0.179E-01    9.40       1.0  T
   3    -41.0909047 -0.697530E-05  0.145E-02    9.40       1.6  T
   4    -41.0909051 -0.398214E-06  0.617E-03    9.40       3.7  T
   5    -41.0909051 -0.400757E-07  0.225E-03    9.40      10.2  T
   6    -41.0909051 -0.452354E-08  0.947E-04    9.40      24.2  T
speedup  1.05
cpu  time for SCC    0.00 s
wall time for SCC    0.00 s
speedup  1.02
cpu  time for grad    0.01 s
wall time for grad    0.01 s
 E :    -40.90225045  G :  0.015245    pred/act E change: -0.134D-03 -0.101D-03
Maxdispl :   0.0773   ||displ|| :   0.1087   Lambda : -0.311D-03
Largest |displ|/coords:  0.0773 (   1)  0.0382 (   4)  0.0287 (   6)
................................................................................
.............................. CYCLE   56 ......................................
................................................................................
   1    -41.0940656 -0.410941E+02  0.715E-02    9.43       0.0  T
   2    -41.0940682 -0.256515E-05  0.531E-02    9.42       1.0  T
   3    -41.0940696 -0.146577E-05  0.107E-02    9.42       2.1  T
   4    -41.0940700 -0.327532E-06  0.222E-03    9.42      10.3  T
   5    -41.0940700 -0.428385E-08  0.108E-03    9.42      21.3  T
speedup  0.94
cpu  time for SCC    0.00 s
wall time for SCC    0.00 s
speedup  0.96
cpu  time for grad    0.01 s
wall time for grad    0.01 s
 E :    -40.90243319  G :  0.004539    pred/act E change: -0.144D-03 -0.183D-03
Maxdispl :   0.2015   ||displ|| :   0.2691   Lambda : -0.200D-03
Largest |displ|/coords:  0.2015 (   1)  0.1332 (   2)  0.0503 (   5)
................................................................................
.............................. CYCLE   57 ......................................
................................................................................
   1    -41.0939644 -0.410940E+02  0.160E-01    9.45       0.0  T
   2    -41.0939679 -0.351556E-05  0.121E-01    9.45       1.0  T
   3    -41.0939726 -0.468696E-05  0.113E-02    9.45       2.0  T
   4    -41.0939728 -0.250756E-06  0.531E-03    9.45       4.3  T
   5    -41.0939729 -0.278762E-07  0.146E-03    9.45      15.8  T
   6    -41.0939729 -0.208512E-08  0.675E-04    9.45      34.0  T
speedup  1.05
cpu  time for SCC    0.00 s
wall time for SCC    0.00 s
speedup  0.99
cpu  time for grad    0.01 s
wall time for grad    0.01 s
 E :    -40.90259928  G :  0.006970    pred/act E change: -0.157D-03 -0.166D-03
Maxdispl :   0.4546   ||displ|| :   0.5695   Lambda : -0.378D-03
Largest |displ|/coords:  0.4546 (   1)  0.2500 (   2)  0.1370 (   5)
................................................................................
.............................. CYCLE   58 ......................................
................................................................................
   1    -41.0903503 -0.410904E+02  0.308E-01    9.46       0.0  T
   2    -41.0903668 -0.164390E-04  0.233E-01    9.46       1.0  T
   3    -41.0903843 -0.175716E-04  0.260E-02    9.46       1.0  T
   4    -41.0903862 -0.187663E-05  0.103E-02    9.46       2.2  T
   5    -41.0903864 -0.132380E-06  0.390E-03    9.46       5.9  T
   6    -41.0903864 -0.103738E-07  0.191E-03    9.46      12.0  T
   7    -41.0903864 -0.917816E-08  0.252E-04    9.46      91.0  T
speedup  0.91
cpu  time for SCC    0.00 s
wall time for SCC    0.00 s
speedup  0.95
cpu  time for grad    0.01 s
wall time for grad    0.01 s
 E :    -40.90266401  G :  0.021733    pred/act E change: -0.107D-03 -0.647D-04
Maxdispl :   0.0704   ||displ|| :   0.1147   Lambda : -0.646D-03
Largest |displ|/coords:  0.0704 (   2)  0.0612 (   4)  0.0430 (   8)
................................................................................
.............................. CYCLE   59 ......................................
................................................................................
   1    -41.0944243 -0.410944E+02  0.102E-01    9.44       0.0  T
   2    -41.0944314 -0.704004E-05  0.747E-02    9.44       1.0  T
   3    -41.0944353 -0.394146E-05  0.176E-02    9.44       1.3  T
   4    -41.0944361 -0.762232E-06  0.270E-03    9.44       8.5  T
   5    -41.0944361 -0.414695E-08  0.163E-03    9.44      14.0  T
speedup  0.97
cpu  time for SCC    0.00 s
wall time for SCC    0.00 s
speedup  0.98
cpu  time for grad    0.01 s
wall time for grad    0.01 s
 E :    -40.90295000  G :  0.005469    pred/act E change: -0.250D-03 -0.286D-03
Maxdispl :   0.2412   ||displ|| :   0.2905   Lambda : -0.203D-03
Largest |displ|/coords:  0.2412 (   1)  0.0932 (   4)  0.0768 (   2)
................................................................................
.............................. CYCLE   60 ......................................
................................................................................
   1    -41.0940561 -0.410941E+02  0.113E-01    9.43       0.0  T
   2    -41.0940588 -0.267418E-05  0.858E-02    9.43       1.0  T
   3    -41.0940616 -0.275660E-05  0.116E-02    9.43       2.0  T
   4    -41.0940619 -0.346102E-06  0.446E-03    9.43       5.1  T
   5    -41.0940619 -0.187039E-07  0.121E-03    9.43      18.9  T
   6    -41.0940619 -0.149220E-08  0.617E-04    9.43      37.2  T
speedup  1.05
cpu  time for SCC    0.00 s
wall time for SCC    0.00 s
speedup  1.01
cpu  time for grad    0.01 s
wall time for grad    0.01 s
 E :    -40.90314197  G :  0.006817    pred/act E change: -0.327D-03 -0.192D-03
Maxdispl :   0.6555   ||displ|| :   0.8058   Lambda : -0.602D-03
Largest |displ|/coords:  0.6555 (   1)  0.2677 (   4)  0.2070 (   2)
................................................................................
.............................. CYCLE   61 ......................................
................................................................................
   1    -41.0882204 -0.410882E+02  0.325E-01    9.39       0.0  T
   2    -41.0882472 -0.267614E-04  0.245E-01    9.39       1.0  T
   3    -41.0882708 -0.236331E-04  0.373E-02    9.39       1.0  T
   4    -41.0882746 -0.378034E-05  0.137E-02    9.39       1.7  T
   5    -41.0882748 -0.245454E-06  0.455E-03    9.39       5.0  T
   6    -41.0882748 -0.166265E-07  0.252E-03    9.39       9.1  T
   7    -41.0882749 -0.122682E-07  0.391E-04    9.39      58.6  T
speedup  0.93
cpu  time for SCC    0.00 s
wall time for SCC    0.00 s
speedup  0.95
cpu  time for grad    0.01 s
wall time for grad    0.01 s
 E :    -40.90330361  G :  0.024658    pred/act E change: -0.110D-03 -0.162D-03
Maxdispl :   0.0785   ||displ|| :   0.1332   Lambda : -0.680D-03
Largest |displ|/coords:  0.0785 (   2)  0.0626 (   1)  0.0588 (   5)
................................................................................
.............................. CYCLE   62 ......................................
................................................................................
   1    -41.0935138 -0.410935E+02  0.109E-01    9.40       0.0  T
   2    -41.0935204 -0.654853E-05  0.811E-02    9.40       1.0  T
   3    -41.0935244 -0.400843E-05  0.172E-02    9.40       1.3  T
   4    -41.0935252 -0.817265E-06  0.339E-03    9.40       6.8  T
   5    -41.0935252 -0.115368E-07  0.178E-03    9.40      12.9  T
speedup  0.97
cpu  time for SCC    0.00 s
wall time for SCC    0.00 s
speedup  0.98
cpu  time for grad    0.01 s
wall time for grad    0.01 s
 E :    -40.90364310  G :  0.007682    pred/act E change: -0.496D-03 -0.339D-03
Maxdispl :   0.3371   ||displ|| :   0.4141   Lambda : -0.304D-03
Largest |displ|/coords:  0.3371 (   1)  0.1844 (   4)  0.0799 (   7)
................................................................................
.............................. CYCLE   63 ......................................
................................................................................
   1    -41.0933582 -0.410934E+02  0.142E-01    9.39       0.0  T
   2    -41.0933616 -0.338992E-05  0.107E-01    9.38       1.0  T
   3    -41.0933647 -0.312581E-05  0.135E-02    9.38       1.7  T
   4    -41.0933652 -0.456996E-06  0.539E-03    9.38       4.3  T
   5    -41.0933652 -0.287830E-07  0.160E-03    9.38      14.4  T
   6    -41.0933652 -0.222852E-08  0.911E-04    9.38      25.2  T
speedup  1.05
cpu  time for SCC    0.00 s
wall time for SCC    0.00 s
speedup  1.01
cpu  time for grad    0.01 s
wall time for grad    0.01 s
 E :    -40.90392850  G :  0.008090    pred/act E change: -0.346D-03 -0.285D-03
Maxdispl :   0.6662   ||displ|| :   0.8536   Lambda : -0.716D-03
Largest |displ|/coords:  0.6662 (   1)  0.3949 (   4)  0.2153 (   7)
................................................................................
.............................. CYCLE   64 ......................................
................................................................................
   1    -41.0900140 -0.410900E+02  0.339E-01    9.38       0.0  T
   2    -41.0900308 -0.168545E-04  0.255E-01    9.38       1.0  T
   3    -41.0900458 -0.149847E-04  0.292E-02    9.37       1.0  T
   4    -41.0900481 -0.235537E-05  0.122E-02    9.37       1.9  T
   5    -41.0900483 -0.139865E-06  0.363E-03    9.37       6.3  T
   6    -41.0900483 -0.106502E-07  0.207E-03    9.37      11.1  T
   7    -41.0900483 -0.575395E-08  0.317E-04    9.37      72.3  T
speedup  0.91
cpu  time for SCC    0.00 s
wall time for SCC    0.00 s
speedup  0.94
cpu  time for grad    0.01 s
wall time for grad    0.01 s
 E :    -40.90453843  G :  0.015488    pred/act E change: -0.178D-03 -0.610D-03
Maxdispl :   0.4551   ||displ|| :   0.6054   Lambda : -0.661D-03
Largest |displ|/coords:  0.4551 (   1)  0.2880 (   4)  0.1742 (   7)
................................................................................
.............................. CYCLE   65 ......................................
................................................................................
   1    -41.0901871 -0.410902E+02  0.242E-01    9.44       0.0  T
   2    -41.0901941 -0.693099E-05  0.182E-01    9.43       1.0  T
   3    -41.0901996 -0.554667E-05  0.185E-02    9.42       1.2  T
   4    -41.0902006 -0.102403E-05  0.741E-03    9.43       3.1  T
   5    -41.0902007 -0.466440E-07  0.214E-03    9.43      10.7  T
   6    -41.0902007 -0.316759E-08  0.122E-03    9.43      18.7  T
speedup  1.08
cpu  time for SCC    0.00 s
wall time for SCC    0.00 s
speedup  1.00
cpu  time for grad    0.01 s
wall time for grad    0.01 s
 E :    -40.90504504  G :  0.019988    pred/act E change: -0.619D-03 -0.507D-03
Maxdispl :   0.2845   ||displ|| :   0.4004   Lambda : -0.107D-02
Largest |displ|/coords:  0.2845 (   1)  0.1794 (   4)  0.1192 (   7)
................................................................................
.............................. CYCLE   66 ......................................
................................................................................
   1    -41.0992040 -0.410992E+02  0.143E-01    9.58       0.0  T
   2    -41.0992119 -0.786504E-05  0.105E-01    9.58       1.0  T
   3    -41.0992163 -0.440879E-05  0.233E-02    9.57       1.0  T
   4    -41.0992171 -0.805549E-06  0.586E-03    9.58       3.9  T
   5    -41.0992172 -0.625475E-07  0.200E-03    9.58      11.5  T
   6    -41.0992172 -0.204179E-08  0.117E-03    9.58      19.6  T
speedup  1.08
[...]
   5    -41.1053924 -0.158863E-09  0.116E-04    9.29     197.8  T
speedup  0.94
cpu  time for SCC    0.00 s
wall time for SCC    0.00 s
speedup  1.01
cpu  time for grad    0.01 s
wall time for grad    0.01 s
 E :    -40.90970003  G :  0.000706    pred/act E change: -0.382D-05 -0.179D-05
Maxdispl :   0.0265   ||displ|| :   0.0443   Lambda : -0.336D-05
Largest |displ|/coords:  0.0265 (   3)  0.0125 (   4)  0.0123 (   8)

generating ANC from model Hessian ...
 Shifting diagonal of input Hessian by   4.598292906781130E-003
 Lowest  eigenvalues of input Hessian
   -0.000000   -0.000000   -0.000000    0.000000    0.000000    0.000000
    0.005000    0.005167    0.005746    0.006541    0.007362    0.008855
    0.009291    0.010174    0.013141    0.015095    0.016318    0.017964
 Highest eigenvalues
    1.356343    1.408887    1.412588    2.814065    3.269706    3.574126
 
cpu  time for ANC gen    0.01 s
wall time for ANC gen    0.01 s
................................................................................
.............................. CYCLE  147 ......................................
................................................................................
   1    -41.1053149 -0.411053E+02  0.616E-02    9.29       0.0  T
   2    -41.1053151 -0.223557E-06  0.465E-02    9.29       1.0  T
   3    -41.1053153 -0.200785E-06  0.359E-03    9.29       6.4  T
   4    -41.1053153 -0.254940E-07  0.126E-03    9.29      18.1  T
   5    -41.1053153 -0.906105E-09  0.389E-04    9.29      58.9  T
   6    -41.1053153 -0.282725E-10  0.192E-04    9.29     119.6  T
speedup  1.08
cpu  time for SCC    0.00 s
wall time for SCC    0.00 s
speedup  1.06
cpu  time for grad    0.01 s
wall time for grad    0.01 s
 E :    -40.90970161  G :  0.001249    pred/act E change:  0.000D+00 -0.157D-05
Maxdispl :   0.0050   ||displ|| :   0.0078   Lambda : -0.169D-05
Largest |displ|/coords:  0.0050 (   3)  0.0047 (   4)  0.0018 (   5)
................................................................................
.............................. CYCLE  148 ......................................
................................................................................
   1    -41.1054440 -0.411054E+02  0.139E-02    9.29       0.0  T
   2    -41.1054440 -0.227860E-07  0.106E-02    9.29       2.2  T
   3    -41.1054440 -0.257053E-07  0.914E-04    9.29      25.1  T
   4    -41.1054440 -0.161722E-08  0.285E-04    9.29      80.5  T
speedup  1.15
cpu  time for SCC    0.00 s
wall time for SCC    0.00 s
speedup  1.08
cpu  time for grad    0.01 s
wall time for grad    0.01 s
 E :    -40.90970253  G :  0.000421    pred/act E change:  0.000D+00 -0.926D-06
Maxdispl :   0.0064   ||displ|| :   0.0109   Lambda : -0.129D-05
Largest |displ|/coords:  0.0064 (   3)  0.0049 (   7)  0.0043 (   5)
................................................................................
.............................. CYCLE  149 ......................................
................................................................................
   1    -41.1055844 -0.411056E+02  0.129E-02    9.29       0.0  T
   2    -41.1055845 -0.151668E-07  0.970E-03    9.29       2.4  T
   3    -41.1055845 -0.108720E-07  0.937E-04    9.29      24.5  T
   4    -41.1055845 -0.202834E-08  0.377E-04    9.29      60.8  T
speedup  0.77
cpu  time for SCC    0.00 s
wall time for SCC    0.00 s
speedup  0.95
cpu  time for grad    0.01 s
wall time for grad    0.01 s
 E :    -40.90970251  G :  0.000681    pred/act E change: -0.844D-06  0.251D-07
Maxdispl :   0.0043   ||displ|| :   0.0058   Lambda : -0.100D-05
Largest |displ|/coords:  0.0043 (   4)  0.0018 (   3)  0.0018 (   1)
................................................................................
.............................. CYCLE  150 ......................................
................................................................................
   1    -41.1055374 -0.411055E+02  0.111E-02    9.29       0.0  T
   2    -41.1055375 -0.153468E-07  0.851E-03    9.29       2.7  T
   3    -41.1055375 -0.159788E-07  0.741E-04    9.29      31.0  T
   4    -41.1055375 -0.136276E-08  0.182E-04    9.29     125.9  T
speedup  1.20
cpu  time for SCC    0.00 s
wall time for SCC    0.00 s
speedup  1.10
cpu  time for grad    0.01 s
wall time for grad    0.01 s
 E :    -40.90970308  G :  0.000282    pred/act E change: -0.644D-06 -0.569D-06
Maxdispl :   0.0057   ||displ|| :   0.0069   Lambda : -0.275D-06
Largest |displ|/coords:  0.0057 (   3)  0.0023 (   1)  0.0019 (   4)
................................................................................
.............................. CYCLE  151 ......................................
................................................................................
   1    -41.1055178 -0.411055E+02  0.106E-02    9.29       0.0  T
   2    -41.1055178 -0.651546E-08  0.803E-03    9.29       2.9  T
   3    -41.1055178 -0.748474E-08  0.504E-04    9.29      45.5  T
   4    -41.1055178 -0.383487E-09  0.176E-04    9.29     130.1  T
speedup  0.74
cpu  time for SCC    0.00 s
wall time for SCC    0.00 s
speedup  0.95
cpu  time for grad    0.01 s
wall time for grad    0.01 s
 E :    -40.90970330  G :  0.000154    pred/act E change: -0.501D-06 -0.219D-06
Maxdispl :   0.0180   ||displ|| :   0.0214   Lambda : -0.564D-06
Largest |displ|/coords:  0.0180 (   3)  0.0073 (   1)  0.0050 (   4)
................................................................................
.............................. CYCLE  152 ......................................
................................................................................
   1    -41.1055005 -0.411055E+02  0.318E-02    9.29       0.0  T
   2    -41.1055005 -0.475257E-07  0.240E-02    9.29       1.0  T
   3    -41.1055006 -0.563384E-07  0.141E-03    9.29      16.3  T
   4    -41.1055006 -0.237350E-08  0.508E-04    9.29      45.1  T
   5    -41.1055006 -0.966054E-10  0.199E-04    9.29     115.4  T
speedup  0.97
cpu  time for SCC    0.00 s
wall time for SCC    0.00 s
speedup  1.02
cpu  time for grad    0.01 s
wall time for grad    0.01 s
 E :    -40.90970367  G :  0.000351    pred/act E change: -0.138D-06 -0.377D-06
Maxdispl :   0.0112   ||displ|| :   0.0133   Lambda : -0.280D-06
Largest |displ|/coords:  0.0112 (   3)  0.0047 (   1)  0.0030 (   7)
................................................................................
.............................. CYCLE  153 ......................................
................................................................................
   1    -41.1055130 -0.411055E+02  0.176E-02    9.29       0.0  T
   2    -41.1055130 -0.116640E-07  0.133E-02    9.29       1.7  T
   3    -41.1055130 -0.134068E-07  0.705E-04    9.29      32.5  T
   4    -41.1055130 -0.676145E-09  0.242E-04    9.29      94.7  T
speedup  1.15
cpu  time for SCC    0.00 s
wall time for SCC    0.00 s
speedup  0.98
cpu  time for grad    0.01 s
wall time for grad    0.01 s
 E :    -40.90970389  G :  0.000342    pred/act E change: -0.282D-06 -0.220D-06
Maxdispl :   0.0162   ||displ|| :   0.0196   Lambda : -0.452D-06
Largest |displ|/coords:  0.0162 (   3)  0.0068 (   1)  0.0060 (   2)
................................................................................
.............................. CYCLE  154 ......................................
................................................................................
   1    -41.1055498 -0.411055E+02  0.230E-02    9.29       0.0  T
   2    -41.1055498 -0.193252E-07  0.174E-02    9.29       1.3  T
   3    -41.1055498 -0.220251E-07  0.895E-04    9.29      25.6  T
   4    -41.1055498 -0.119010E-08  0.309E-04    9.29      74.3  T
speedup  0.77
cpu  time for SCC    0.00 s
wall time for SCC    0.00 s
speedup  0.98
cpu  time for grad    0.01 s
wall time for grad    0.01 s
 E :    -40.90970420  G :  0.000164    pred/act E change: -0.140D-06 -0.310D-06
Maxdispl :   0.0112   ||displ|| :   0.0148   Lambda : -0.218D-06
Largest |displ|/coords:  0.0112 (   3)  0.0063 (   1)  0.0059 (   2)
................................................................................
.............................. CYCLE  155 ......................................
................................................................................
   1    -41.1055623 -0.411056E+02  0.165E-02    9.28       0.0  T
   2    -41.1055623 -0.120731E-07  0.125E-02    9.28       1.8  T
   3    -41.1055623 -0.138912E-07  0.701E-04    9.28      32.7  T
   4    -41.1055623 -0.740883E-09  0.267E-04    9.28      86.0  T
speedup  0.77
cpu  time for SCC    0.00 s
wall time for SCC    0.00 s
speedup  0.98
cpu  time for grad    0.01 s
wall time for grad    0.01 s
 E :    -40.90970437  G :  0.000116    pred/act E change: -0.226D-06 -0.166D-06
Maxdispl :   0.0140   ||displ|| :   0.0185   Lambda : -0.201D-06
Largest |displ|/coords:  0.0140 (   3)  0.0083 (   2)  0.0073 (   1)
................................................................................
.............................. CYCLE  156 ......................................
................................................................................
   1    -41.1055588 -0.411056E+02  0.197E-02    9.28       0.0  T
   2    -41.1055588 -0.184067E-07  0.149E-02    9.28       1.5  T
   3    -41.1055589 -0.223008E-07  0.849E-04    9.28      27.0  T
   4    -41.1055589 -0.902851E-09  0.292E-04    9.28      78.5  T
speedup  1.20
cpu  time for SCC    0.00 s
wall time for SCC    0.00 s
speedup  0.99
cpu  time for grad    0.01 s
wall time for grad    0.01 s
 E :    -40.90970450  G :  0.000116    pred/act E change: -0.109D-06 -0.134D-06
Maxdispl :   0.0040   ||displ|| :   0.0058   Lambda : -0.101D-06
Largest |displ|/coords:  0.0040 (   2)  0.0020 (   8)  0.0019 (   4)
................................................................................
.............................. CYCLE  157 ......................................
................................................................................
   1    -41.1055770 -0.411056E+02  0.250E-03    9.28       0.0  T
   2    -41.1055770 -0.153962E-08  0.181E-03    9.28      12.7  T
   3    -41.1055770 -0.944468E-09  0.379E-04    9.28      60.5  T
   4    -41.1055770 -0.164896E-09  0.110E-04    9.28     207.9  T
speedup  0.80
cpu  time for SCC    0.00 s
wall time for SCC    0.00 s
speedup  0.98
cpu  time for grad    0.01 s
wall time for grad    0.01 s
 E :    -40.90970457  G :  0.000189    pred/act E change: -0.100D-06 -0.699D-07
Maxdispl :   0.0073   ||displ|| :   0.0121   Lambda : -0.117D-06
Largest |displ|/coords:  0.0073 (   2)  0.0068 (   3)  0.0049 (   1)

   *** GEOMETRY OPTIMIZATION CONVERGED AFTER 157 ITERATIONS ***

------------------------------------------------------------------------
 total energy gain (kcal):     -0.0019
------------------------------------------------------------------------
================
 final structure:
================
$coord
        2.01352780693098        1.40816461662824        0.23835005773618      S 
       -0.41066049281995        1.28627708208137        1.67008594010267      O 
        2.18551219160011       -0.75126988652123       -1.44796697400690      O 
        2.19021278870344        3.79502229835210       -1.06952280206625      O 
        4.15955160773081        1.22210350760863        2.24140404316887      O 
        3.73115306573998       -0.26406615767871        3.26048633310061      H 
       -1.88821061209950       -3.79289259729223       -0.72435711679601      O 
       -1.86594597029854       -4.89067581224298        0.71428771315377      H 
       -0.23025900827044       -2.99808674689990       -0.78100833347714      H 
       -1.83483707402886       -0.18460279986907       -4.42133846897987      O 
       -2.71084617371737       -1.61049690607807       -3.66797911925947      H 
       -0.08030465439117       -0.41219375547835       -3.84682121961541      H 
        1.42908119334223       -2.29360256489697        4.59764086538983      O 
        0.25914893107370       -1.19686633378072        3.68147327625633      H 
        1.12394137405130       -2.01783156609710        6.36440671851107      H 
       -2.56202497897511        3.59490207123537       -1.73550655565283      O 
       -2.12701919843511        2.64173918919958       -0.04187550948220      H 
       -0.87187861361545        4.42250414520025       -1.94523058685859      H 
       -2.51014218250996        2.04187219759008       -3.08652829903924      H 
$end
 
 Bond Distances (Angstroems)
 ---------------------------
S1-O2=1.4912         S1-O3=1.4527         S1-O4=1.4433         S1-O5=1.5566         O2-S1=1.4912         O3-S1=1.4527         
O4-S1=1.4433         O5-S1=1.5566         O5-H6=0.9802         H6-O5=0.9802         O7-H8=0.9577         O7-H9=0.9734         
H8-O7=0.9577         H9-O7=0.9734         O10-H11=0.9712       O10-H12=0.9844       H11-O10=0.9712       H12-O10=0.9844       
O13-H14=0.9773       O13-H15=0.9599       H14-O13=0.9773       H15-O13=0.9599       O16-H17=1.0539       O16-H18=1.0020       
O16-H19=1.0896       H17-O16=1.0539       H18-O16=1.0020       H19-O16=1.0896       
 O  H  Rav=0.9950 sigma=0.0409  Rmin=0.9577  Rmax=1.0896    10
 S  O  Rav=1.4860 sigma=0.0445  Rmin=1.4433  Rmax=1.5566     4
 
 selected bond angles (degree)
 --------------------
O3-S1-O2=109.39                O4-S1-O2=109.71                O4-S1-O3=112.94                O5-S1-O2=106.19                
O5-S1-O3=108.83                O5-S1-O4=109.55                H6-O5-S1=104.87                H9-O7-H8=105.99                
H12-O10-H11=103.20             
 
 selected dihedral angles (degree)
 ---------------------------------
H6-O5-S1-O2= 50.95            H6-O5-S1-O3=293.28            H6-O5-S1-O4=169.35            
 
 CMA Distance (Angstroems)
 ---------------------------
R(CMA):  2.0688

========================================================================
 FINAL SINGLEPOINT CALCULATION ON OPTIMIZED GEOMETRY
========================================================================

 Ncao       : 52
 Nao        : 51
 Nshell     : 29
 Nel        : 64
 T(el)      :   300.0
 intcut     :    25.0
 scfconv/Eh :  0.100E-05
   qconv/e  :  0.100E-03
 intneglect :  0.100E-07
 broydamp   :      0.250
 iter      E             dE          RMSdq      gap      omega  full diag
   1    -41.1055770 -0.411056E+02  0.394E-05    9.28       0.0  T
   2    -41.1055770 -0.859757E-12  0.257E-05    9.28     891.0  T
   3    -41.1055770 -0.468958E-12  0.496E-06    9.28    4623.7  T
speedup  1.11
cpu  time for SCC    0.00 s
wall time for SCC    0.00 s

   *** convergence criteria satisfied after 3 iterations ***

          eigenvalues
 #    :          20         21         22         23         24         25         26         27
 occ. :        2.000      2.000      2.000      2.000      2.000      2.000      2.000      2.000
 eps  :       -14.562    -14.280    -13.863    -13.629    -13.177    -12.959    -12.839    -12.737
 #    :          28         29         30         31         32         33         34         35
 occ. :        2.000      2.000      2.000      2.000      2.000      0.000      0.000      0.000
 eps  :       -12.653    -12.392    -12.351    -12.138    -11.976     -2.694     -0.515     -0.311
 #    :          36         37         38         39         40         41         42         43
 occ. :        0.000      0.000      0.000      0.000      0.000      0.000      0.000      0.000
 eps  :         0.292      0.909      1.522      1.963      3.942      4.678      5.003      5.969


   #   Z            q   n(s)   n(p)   n(d)      C6AA      α(0)
   1  16 S      1.702  1.589  1.771  0.939    88.732    15.854
   2   8 O     -0.780  1.784  4.996  0.000    30.965     7.462
   3   8 O     -0.752  1.775  4.976  0.000    30.157     7.363
   4   8 O     -0.721  1.761  4.959  0.000    29.279     7.255
   5   8 O     -0.593  1.753  4.840  0.000    24.991     6.749
   6   1 H      0.378  0.622  0.000  0.000     0.521     1.131
   7   8 O     -0.620  1.738  4.882  0.000    25.671     6.838
   8   1 H      0.286  0.714  0.000  0.000     0.763     1.372
   9   1 H      0.312  0.688  0.000  0.000     0.687     1.302
  10   8 O     -0.574  1.742  4.832  0.000    24.527     6.686
  11   1 H      0.347  0.653  0.000  0.000     0.594     1.211
  12   1 H      0.340  0.660  0.000  0.000     0.612     1.229
  13   8 O     -0.612  1.748  4.864  0.000    25.474     6.812
  14   1 H      0.321  0.679  0.000  0.000     0.660     1.277
  15   1 H      0.295  0.705  0.000  0.000     0.735     1.346
  16   8 O     -0.484  1.720  4.764  0.000    22.482     6.404
  17   1 H      0.385  0.615  0.000  0.000     0.512     1.123
  18   1 H      0.375  0.625  0.000  0.000     0.534     1.148
  19   1 H      0.393  0.607  0.000  0.000     0.494     1.102

 Mol. C6AA /au·bohr⁶  :       3387.397178
 Mol. C8AA /au·bohr⁸  :      76670.292004
 Mol. α(0) /au        :         83.663239

 
 Wiberg/Mayer (AO) data. WBOs > 0.1 written file <wbo>
 largest (>0.05) Wiberg bond orders for each atom
           total WBO             WBO to atom ...
     1  S   4.813    O    4 1.365    O    3 1.290    O    2 1.164    O    5 0.959
     2  O   1.722    S    1 1.164    H   17 0.156    O    3 0.103    O    4 0.102    O    5 0.072    O   16 0.052
     3  O   1.718    S    1 1.290    O    4 0.112    O    2 0.103    O    5 0.082
     4  O   1.743    S    1 1.365    O    3 0.112    O    2 0.102    O    5 0.068    H   18 0.061
     5  O   1.989    S    1 0.959    H    6 0.776    O    3 0.082    O    2 0.072    O    4 0.068
     6  H   0.857    O    5 0.776    O   13 0.063
     7  O   1.815    H    8 0.911    H    9 0.857
     8  H   0.918    O    7 0.911
     9  H   0.903    O    7 0.857
    10  O   2.029    H   11 0.859    H   12 0.828    H   19 0.227    O   16 0.074
    11  H   0.879    O   10 0.859
    12  H   0.884    O   10 0.828
    13  O   1.870    H   15 0.910    H   14 0.842    H    6 0.063
    14  H   0.897    O   13 0.842
    15  H   0.913    O   13 0.910
    16  O   2.253    H   18 0.790    H   17 0.683    H   19 0.615    O   10 0.074    O    2 0.052
    17  H   0.852    O   16 0.683    O    2 0.156
    18  H   0.859    O   16 0.790    O    4 0.061
    19  H   0.845    O   16 0.615    O   10 0.227
 MOs/occ written to file <molden.input>
 
molecular dipole:
                 x           y           z       tot (Debye)
 q only:       -1.236      -0.017       0.359
   full:       -0.706      -0.266       1.074       3.335
molecular quadrupole (traceless):
                xx          xy          yy          xz          yz          zz
 q only:       -4.432      -4.679      -2.442       3.276      -3.429       6.874
  q+dip:       -5.354      -2.755      -2.679       0.985      -2.465       8.033
   full:       -5.207      -2.721      -2.968       1.280      -3.067       8.175

SCC energy    :     -41.1055770
rep           :       0.1957820
ES            :       0.2038500
AES           :      -0.0545298
AXC           :      -0.0111695
disp          :      -0.0142335
XB            :       0.0000000
fix           :       0.0000000
total E       :     -40.9097046
atomizationE  :       3.7038918     2324.23
(atE without considering molecular charge,
 total energy contains solvation terms)
H-L gap (eV)  :          9.2824
optimized geometry written to: xtbopt.xyz


------------------------------------------------------------------------
 * finished run on 2019/09/03 at 10:54:04.319     
------------------------------------------------------------------------
 total:
 * wall-time:     0 d,  0 h,  0 min,  2.577 sec
 *  cpu-time:     0 d,  0 h,  0 min,  2.267 sec
 * ratio c/w:     0.880 speedup
 SCF:
 * wall-time:     0 d,  0 h,  0 min,  0.099 sec
 *  cpu-time:     0 d,  0 h,  0 min,  0.095 sec
 * ratio c/w:     0.962 speedup
 ANC optimizer:
 * wall-time:     0 d,  0 h,  0 min,  2.452 sec
 *  cpu-time:     0 d,  0 h,  0 min,  2.149 sec
 * ratio c/w:     0.876 speedup

