      -----------------------------------------------------------      
     |                   =====================                   |     
     |                           x T B                           |     
     |                   =====================                   |     
     |                         S. Grimme                         |     
     |          Mulliken Center for Theoretical Chemistry        |     
     |                    University of Bonn                     |     
     |                 Version 6.0.1 (SAW181210)                 |     
      -----------------------------------------------------------      

   This program is distributed in the hope that it will be useful,
   but WITHOUT ANY WARRANTY; without even the implied warranty of
   MERCHANTABILITY or FITNESS FOR A PARTICULAR PURPOSE.
   
   FOR NON-COMMERCIAL, ACADEMIA USE ONLY.
   
   Cite this work as:
   S. Grimme, C. Bannwarth, P. Shushkov, J. Comput. Theory Chem., 2017,
   13, 1989-2009.
   C. Bannwarth, S. Ehlert and S. Grimme., ChemRxiv, 2018, preprint.
   http://doi.org/10.26434/chemrxiv.7246238.v1
   
   for sTDA-xTB:
   S. Grimme and C. Bannwarth, J. Chem. Phys., 2016, 145, 054103.
   
   in the mass-spec context:
   V. Asgeirsson, C. Bauer and S. Grimme, Chem. Sci., 2017, 8, 4879.
   
   if GBSA is used:
   P. Shushkov, F. März and S. Grimme, unpublished.
   
   for ANC optimizer:
   S. Grimme, unpublished.
   Rational Function algorithm used in ANCopt:
   F. Eckert, P. Pulay, H.-J. Werner, J. Comput. Chem., 1997, 18, 1473.
   
   with help from (in alphabetical order)
   C. Bannwarth, F. Bohle, G. Brandenburg, E. Caldeweyher, M. Checinski,
   S. Dohm, S. Ehlert, S. Ehrlich, F. März, H. Neugebauer, J. Pisarek,
   P. Pracht, P. Shushkov, and S. Spicher.
   
 * started run on 2019/09/03 at 10:57:48.593     
========================================================================
 # omp threads = 1
========================================================================
number of atoms            : 19
number of electrons        : 64
charge                     : 0
spin                       : .0
first test random number   : .2159

########################################################################
# WARNING! Please study the warnings concerning your input carefully
#  - XTBPATH is not set, using XTBHOME instead
#  - the use of '-opt' is discouraged, please use '--opt' next time
#  - the use of '-chrg' is discouraged, please use '--chrg' next time
#  - the use of '-uhf' is discouraged, please use '--uhf' next time
########################################################################

           ------------------------------------------------- 
          |                 G F N 2 - x T B                 |
          | Geometry, Frequencies, Noncovalent interactions |
          |            JCTC 2018 parametrisation            |
           ------------------------------------------------- 
      method parameters     
 k(s)        :  1.8500
 k(p)        :  2.2300
 k(d)        :  2.2300
 k(f)        :  2.0000
 kEN (H0ij)  : -2.0000
 D4 a1       :  0.5200
 D4 a2       :  5.0000
 D4 s6       :  1.0000
 D4 s8       :  2.7000
 D4 s9       :  5.0000
 alphaj      :  2.0000


            Z     q(EN)     CN     RAES       Cart. coordinates
     1  S   6.0    0.64    4.31    4.26    -0.21291     0.15586     3.11613
     2  O   6.0   -0.30    1.18    1.80    -1.43731    -0.48034     0.66170
     3  O   6.0   -0.29    1.15    1.80    -0.98490     2.74569     3.90666
     4  O   6.0   -0.28    1.15    1.80    -1.01511    -1.70144     5.07445
     5  O   6.0   -0.24    2.08    1.84     2.54738     0.06085     2.82574
     6  H   1.0    0.15    1.21    1.47     3.06510     1.25726     1.56413
     7  O   6.0   -0.28    1.94    1.82     8.01697    -0.51069    -7.55975
     8  H   1.0    0.14    0.97    1.43     8.04215    -0.95144    -9.32603
     9  H   1.0    0.15    0.97    1.43     9.68869     0.11128    -7.19487
    10  O   6.0   -0.28    2.03    1.83    -6.54115    -1.00245     0.68034
    11  H   1.0    0.17    1.03    1.43    -4.77468    -0.96433     0.24130
    12  H   1.0    0.15    0.97    1.43    -7.35630    -1.89588    -0.68052
    13  O   6.0   -0.26    1.92    1.82     3.97751     0.61367    -3.79375
    14  H   1.0    0.16    0.99    1.43     5.38110     0.29413    -4.90841
    15  H   1.0    0.15    0.97    1.43     2.54118    -0.17109    -4.59107
    16  O   6.0   -0.21    2.92    2.58    -5.53855     0.68727     5.25279
    17  H   1.0    0.14    1.00    1.43    -4.47983    -0.62824     6.05177
    18  H   1.0    0.14    1.00    1.43    -4.60701     2.28966     5.01917
    19  H   1.0    0.14    1.04    1.43    -6.31232     0.09025     3.66020

  Z AO/shell   Hii/eV     exponent
  1     Wed Apr 25 08:07:45 CEST 2018   EN: 2.200 GM2: 0.406  GM3: 0.0800  RAES: 1.40
     1s    -10.707211    1.230000
  8     Wed Apr 25 08:07:45 CEST 2018   EN: 3.440 GM2: 0.452  GM3:-0.0517  RAES: 1.80
     2s    -20.229985    2.439742
     2p    -15.503117    2.137023
 16     Tue Apr 24 11:44:34 CEST 2018   EN: 2.580 GM2: 0.340  GM3:-0.0502  RAES: 3.10
     3s    -20.029654    1.981333
     3p    -11.377694    2.025643
     3d     -0.420282    1.702555
 no old-style atom pair restraining (fixing) potential

molecular fragmentation (1/2 indicates fragments):
1111112222222222222
# atoms in fragment 1/2:     6    13
 fragment masses (1/2) :       97.07       73.07
CMA distance (Bohr)    :   4.458
constraining FC (au)   :  0.0500
           ------------------------------------------------- 
          |        Self-Consistent Charge Iterations        |
           ------------------------------------------------- 

 Ncao       : 52
 Nao        : 51
 Nshell     : 29
 Nel        : 64
 T(el)      :   300.0
 intcut     :    25.0
 scfconv/Eh :  0.100E-05
   qconv/e  :  0.100E-03
 intneglect :  0.100E-07
 broydamp   :      0.250
 iter      E             dE          RMSdq      gap      omega  full diag
   1    -40.9741557 -0.409742E+02  0.773E+00   10.67       0.0  T
   2    -41.0166868 -0.425311E-01  0.559E+00   10.11       1.0  T
   3    -41.0492840 -0.325972E-01  0.151E+00    8.17       1.0  T
   4    -41.0535566 -0.427252E-02  0.628E-01    8.10       1.0  T
   5    -41.0541333 -0.576781E-03  0.346E-01    8.00       1.0  T
   6    -41.0544867 -0.353353E-03  0.145E-01    8.02       1.0  T
   7    -41.0545668 -0.800563E-04  0.510E-02    8.08       1.0  T
   8    -41.0545757 -0.897016E-05  0.316E-02    8.08       1.0  T
   9    -41.0545806 -0.486910E-05  0.615E-03    8.08       3.7  T
  10    -41.0545807 -0.102227E-06  0.180E-03    8.07      12.7  T
  11    -41.0545807 -0.894303E-08  0.842E-04    8.07      27.3  T
  12    -41.0545807 -0.219088E-08  0.424E-04    8.07      54.1  T
speedup  0.96
cpu  time for SCC    0.01 s
wall time for SCC    0.01 s

   *** convergence criteria satisfied after 12 iterations ***

          eigenvalues
 #    :          20         21         22         23         24         25         26         27
 occ. :        2.000      2.000      2.000      2.000      2.000      2.000      2.000      2.000
 eps  :       -13.884    -13.113    -12.638    -12.450    -12.381    -12.174    -11.316    -11.292
 #    :          28         29         30         31         32         33         34         35
 occ. :        2.000      2.000      2.000      2.000      2.000      0.000      0.000      0.000
 eps  :       -11.023    -10.957    -10.474    -10.395    -10.163     -2.088     -0.550      0.585
 #    :          36         37         38         39         40         41         42         43
 occ. :        0.000      0.000      0.000      0.000      0.000      0.000      0.000      0.000
 eps  :         1.245      1.719      2.059      2.427      3.736      4.712      4.867      6.040


   #   Z            q   n(s)   n(p)   n(d)      C6AA      α(0)
   1  16 S      1.529  1.590  1.882  0.999    92.759    16.210
   2   8 O     -0.761  1.776  4.984  0.000    30.418     7.395
   3   8 O     -0.771  1.777  4.994  0.000    30.718     7.431
   4   8 O     -0.742  1.770  4.972  0.000    29.875     7.328
   5   8 O     -0.530  1.712  4.818  0.000    23.536     6.549
   6   1 H      0.370  0.630  0.000  0.000     0.536     1.145
   7   8 O     -0.569  1.738  4.832  0.000    24.468     6.676
   8   1 H      0.289  0.711  0.000  0.000     0.756     1.366
   9   1 H      0.290  0.710  0.000  0.000     0.752     1.362
  10   8 O     -0.622  1.725  4.897  0.000    25.711     6.844
  11   1 H      0.339  0.661  0.000  0.000     0.615     1.232
  12   1 H      0.297  0.703  0.000  0.000     0.730     1.342
  13   8 O     -0.592  1.744  4.847  0.000    24.985     6.746
  14   1 H      0.302  0.698  0.000  0.000     0.714     1.327
  15   1 H      0.280  0.720  0.000  0.000     0.783     1.390
  16   8 O     -0.381  1.623  4.758  0.000    20.432     6.105
  17   1 H      0.421  0.579  0.000  0.000     0.448     1.052
  18   1 H      0.420  0.580  0.000  0.000     0.450     1.054
  19   1 H      0.430  0.570  0.000  0.000     0.433     1.034

 Mol. C6AA /au·bohr⁶  :       3373.892567
 Mol. C8AA /au·bohr⁸  :      76651.214715
 Mol. α(0) /au        :         83.586949

 
 Wiberg/Mayer (AO) data. WBOs > 0.1 written file <wbo>
 largest (>0.05) Wiberg bond orders for each atom
           total WBO             WBO to atom ...
     1  S   4.977    O    4 1.336    O    3 1.299    O    2 1.299    O    5 1.018
     2  O   1.670    S    1 1.299    O    3 0.115    O    4 0.115    O    5 0.074
     3  O   1.656    S    1 1.299    O    4 0.115    O    2 0.115    O    5 0.074
     4  O   1.689    S    1 1.336    O    3 0.115    O    2 0.115    O    5 0.055
     5  O   2.063    S    1 1.018    H    6 0.838    O    3 0.074    O    2 0.074    O    4 0.055
     6  H   0.863    O    5 0.838
     7  O   1.847    H    9 0.915    H    8 0.913
     8  H   0.917    O    7 0.913
     9  H   0.916    O    7 0.915
    10  O   1.853    H   12 0.899    H   11 0.835    H   19 0.071
    11  H   0.885    O   10 0.835
    12  H   0.912    O   10 0.899
    13  O   1.825    H   15 0.921    H   14 0.894
    14  H   0.908    O   13 0.894
    15  H   0.921    O   13 0.921
    16  O   2.364    H   18 0.783    H   17 0.780    H   19 0.737
    17  H   0.823    O   16 0.780
    18  H   0.824    O   16 0.783
    19  H   0.815    O   16 0.737    O   10 0.071
 MOs/occ written to file <molden.input>
 
molecular dipole:
                 x           y           z       tot (Debye)
 q only:       -1.543       0.115      -0.751
   full:       -0.555      -0.052      -1.619       4.353
molecular quadrupole (traceless):
                xx          xy          yy          xz          yz          zz
 q only:       23.001       0.762     -25.236     -31.985       5.649       2.235
  q+dip:       22.568       2.213     -26.772     -31.029       6.448       4.204
   full:       23.247       2.567     -27.388     -31.111       6.652       4.140

SCC energy    :     -41.0545807
rep           :       0.2162801
ES            :       0.2616333
AES           :      -0.0462747
AXC           :      -0.0111221
disp          :      -0.0102774
XB            :       0.0000000
fix           :       0.0000000
total E       :     -40.8383146
atomizationE  :       3.6325018     2279.43
(atE without considering molecular charge,
 total energy contains solvation terms)
H-L gap (eV)  :          8.0748
           ------------------------------------------------- 
          |                 ===============                 |
          |                   A N C O P T                   |
          |                 ===============                 |
          |          Approximate Normal Coordinate          |
          |           Rational Function Optimizer           |
           ------------------------------------------------- 
dumping coords to <xtbopt.coord> and <xtbopt.log>
 optlevel               2
 Maxcycle             380
 Maxmicro              25
 Econv         1.000000000000000E-007
 Gconv         2.000000000000000E-004
 Maxdispl       1.00000000000000     
 Hlow          5.000000000000000E-003
 S6             20.0000000000000     
 Nvar               51

generating ANC from model Hessian ...
 Shifting diagonal of input Hessian by   5.137748410442607E-003
 Lowest  eigenvalues of input Hessian
    0.005000    0.005039    0.005102   -0.000000   -0.000000   -0.000000
   -0.000000   -0.000000    0.000000    0.005148    0.005199    0.005439
    0.005503    0.005560    0.005621    0.006084    0.006643    0.006937
 Highest eigenvalues
    1.450719    1.541683    1.552077    3.131600    3.204382    3.307154
 
cpu  time for ANC gen    0.00 s
wall time for ANC gen    0.00 s
................................................................................
.............................. CYCLE    1 ......................................
................................................................................
   1    -41.0545807 -0.410546E+02  0.110E-04    8.07       0.0  T
   2    -41.0545807 -0.147082E-10  0.805E-05    8.07     285.1  T
   3    -41.0545807 -0.974154E-11  0.310E-05    8.07     740.7  T
speedup  1.00
cpu  time for SCC    0.00 s
wall time for SCC    0.00 s
speedup  1.06
cpu  time for grad    0.01 s
wall time for grad    0.01 s
 E :    -40.83831457  G :  0.142430    pred/act E change:  0.000D+00  0.163D-07
Maxdispl :   0.3623   ||displ|| :   0.5517   Lambda : -0.246D-01
Largest |displ|/coords:  0.3623 (  22)  0.2899 (  20)  0.1660 (  19)
................................................................................
.............................. CYCLE    2 ......................................
................................................................................
   1    -41.0710292 -0.410710E+02  0.418E-01    8.70       0.0  T
   2    -41.0711564 -0.127145E-03  0.311E-01    8.77       1.0  T
   3    -41.0712171 -0.607040E-04  0.104E-01    8.90       1.0  T
   4    -41.0712278 -0.107262E-04  0.197E-02    8.90       1.2  T
   5    -41.0712289 -0.108149E-05  0.837E-03    8.89       2.7  T
   6    -41.0712290 -0.127206E-06  0.506E-03    8.89       4.5  T
   7    -41.0712291 -0.984182E-07  0.232E-03    8.89       9.9  T
speedup  0.93
cpu  time for SCC    0.00 s
wall time for SCC    0.00 s
speedup  0.92
cpu  time for grad    0.01 s
wall time for grad    0.01 s
 E :    -40.86045201  G :  0.094134    pred/act E change:  0.000D+00 -0.221D-01
Maxdispl :   0.3871   ||displ|| :   0.6094   Lambda : -0.196D-01
Largest |displ|/coords:  0.3871 (  22)  0.3756 (  20)  0.1511 (  19)
................................................................................
.............................. CYCLE    3 ......................................
................................................................................
   1    -41.0780510 -0.410781E+02  0.511E-01    9.04       0.0  T
   2    -41.0785543 -0.503246E-03  0.372E-01    9.09       1.0  T
   3    -41.0787857 -0.231411E-03  0.142E-01    9.16       1.0  T
   4    -41.0788110 -0.253403E-04  0.240E-02    9.16       1.0  T
   5    -41.0788122 -0.115312E-05  0.133E-02    9.16       1.7  T
   6    -41.0788126 -0.367526E-06  0.725E-03    9.15       3.2  T
   7    -41.0788128 -0.202744E-06  0.335E-03    9.15       6.8  T
   8    -41.0788128 -0.527611E-07  0.959E-04    9.15      23.9  T
speedup  0.96
cpu  time for SCC    0.00 s
wall time for SCC    0.01 s
speedup  1.04
cpu  time for grad    0.01 s
wall time for grad    0.01 s
 E :    -40.87549936  G :  0.055388    pred/act E change: -0.160D-01 -0.150D-01
Maxdispl :   0.2779   ||displ|| :   0.4491   Lambda : -0.662D-02
Largest |displ|/coords:  0.2779 (  20)  0.1592 (  22)  0.1512 (   6)
................................................................................
.............................. CYCLE    4 ......................................
................................................................................
   1    -41.0755902 -0.410756E+02  0.428E-01    9.10       0.0  T
   2    -41.0759660 -0.375859E-03  0.312E-01    9.07       1.0  T
   3    -41.0761261 -0.160048E-03  0.120E-01    8.99       1.0  T
   4    -41.0761455 -0.193820E-04  0.210E-02    8.98       1.1  T
   5    -41.0761462 -0.763167E-06  0.975E-03    8.98       2.4  T
   6    -41.0761464 -0.157895E-06  0.521E-03    8.98       4.4  T
   7    -41.0761465 -0.867548E-07  0.228E-03    8.98      10.1  T
speedup  0.93
cpu  time for SCC    0.00 s
wall time for SCC    0.00 s
speedup  1.02
cpu  time for grad    0.01 s
wall time for grad    0.01 s
 E :    -40.87916845  G :  0.038585    pred/act E change: -0.134D-01 -0.367D-02
Maxdispl :   0.2496   ||displ|| :   0.4902   Lambda : -0.370D-02
Largest |displ|/coords:  0.2496 (  14)  0.2404 (   6)  0.1493 (  16)
................................................................................
.............................. CYCLE    5 ......................................
................................................................................
   1    -41.0765723 -0.410766E+02  0.267E-01    8.91       0.0  T
   2    -41.0766523 -0.799262E-04  0.199E-01    8.91       1.0  T
   3    -41.0766768 -0.245074E-04  0.659E-02    8.92       1.0  T
   4    -41.0766836 -0.684476E-05  0.187E-02    8.92       1.2  T
   5    -41.0766843 -0.706360E-06  0.482E-03    8.92       4.8  T
   6    -41.0766843 -0.302001E-07  0.219E-03    8.92      10.5  T
speedup  1.11
cpu  time for SCC    0.00 s
wall time for SCC    0.00 s
speedup  1.11
cpu  time for grad    0.01 s
wall time for grad    0.01 s
 E :    -40.88111184  G :  0.029396    pred/act E change: -0.398D-02 -0.194D-02
Maxdispl :   0.3151   ||displ|| :   0.5219   Lambda : -0.322D-02
Largest |displ|/coords:  0.3151 (   6)  0.2740 (  16)  0.1665 (   7)
................................................................................
.............................. CYCLE    6 ......................................
................................................................................
   1    -41.0819930 -0.410820E+02  0.236E-01    8.93       0.0  T
   2    -41.0820448 -0.517951E-04  0.179E-01    8.92       1.0  T
   3    -41.0820605 -0.157056E-04  0.719E-02    8.92       1.0  T
   4    -41.0820649 -0.440180E-05  0.133E-02    8.92       1.7  T
   5    -41.0820652 -0.291308E-06  0.415E-03    8.92       5.5  T
   6    -41.0820652 -0.140386E-07  0.173E-03    8.92      13.3  T
speedup  1.03
cpu  time for SCC    0.00 s
wall time for SCC    0.00 s
speedup  0.95
cpu  time for grad    0.01 s
wall time for grad    0.01 s
 E :    -40.88279879  G :  0.021754    pred/act E change: -0.229D-02 -0.169D-02
Maxdispl :   0.3465   ||displ|| :   0.5152   Lambda : -0.262D-02
Largest |displ|/coords:  0.3465 (   6)  0.2131 (   7)  0.1238 (  14)
................................................................................
.............................. CYCLE    7 ......................................
................................................................................
   1    -41.0867611 -0.410868E+02  0.315E-01    9.01       0.0  T
   2    -41.0868102 -0.491620E-04  0.235E-01    9.02       1.0  T
   3    -41.0868331 -0.228396E-04  0.530E-02    9.02       1.0  T
   4    -41.0868397 -0.663193E-05  0.179E-02    9.02       1.3  T
   5    -41.0868402 -0.450029E-06  0.400E-03    9.02       5.7  T
   6    -41.0868402 -0.142482E-07  0.225E-03    9.02      10.2  T
speedup  1.11
cpu  time for SCC    0.00 s
wall time for SCC    0.00 s
speedup  0.99
cpu  time for grad    0.01 s
wall time for grad    0.01 s
 E :    -40.88389485  G :  0.025952    pred/act E change: -0.205D-02 -0.110D-02
Maxdispl :   0.4286   ||displ|| :   0.5709   Lambda : -0.325D-02
Largest |displ|/coords:  0.4286 (   6)  0.2174 (   7)  0.1267 (  13)
................................................................................
.............................. CYCLE    8 ......................................
................................................................................
   1    -41.0858614 -0.410859E+02  0.430E-01    9.25       0.0  T
   2    -41.0859055 -0.440990E-04  0.323E-01    9.25       1.0  T
   3    -41.0859295 -0.240233E-04  0.519E-02    9.23       1.0  T
   4    -41.0859360 -0.642254E-05  0.174E-02    9.24       1.3  T
   5    -41.0859363 -0.392871E-06  0.327E-03    9.24       7.0  T
   6    -41.0859364 -0.703479E-08  0.207E-03    9.24      11.1  T
speedup  0.83
cpu  time for SCC    0.00 s
wall time for SCC    0.00 s
speedup  0.98
cpu  time for grad    0.01 s
wall time for grad    0.01 s
 E :    -40.88568651  G :  0.035634    pred/act E change: -0.166D-02 -0.179D-02
Maxdispl :   0.3977   ||displ|| :   0.5796   Lambda : -0.417D-02
Largest |displ|/coords:  0.3977 (   6)  0.2203 (   7)  0.2065 (  17)
................................................................................
.............................. CYCLE    9 ......................................
................................................................................
   1    -41.0912874 -0.410913E+02  0.406E-01    9.37       0.0  T
   2    -41.0913683 -0.808732E-04  0.299E-01    9.38       1.0  T
   3    -41.0914146 -0.463288E-04  0.707E-02    9.40       1.0  T
   4    -41.0914232 -0.853383E-05  0.161E-02    9.41       1.4  T
   5    -41.0914238 -0.677554E-06  0.561E-03    9.41       4.1  T
   6    -41.0914239 -0.238295E-07  0.321E-03    9.40       7.1  T
speedup  0.83
cpu  time for SCC    0.00 s
wall time for SCC    0.00 s
speedup  0.98
cpu  time for grad    0.01 s
wall time for grad    0.01 s
 E :    -40.88584790  G :  0.048372    pred/act E change: -0.215D-02 -0.161D-03
Maxdispl :   0.2229   ||displ|| :   0.4318   Lambda : -0.512D-02
Largest |displ|/coords:  0.2229 (   6)  0.1650 (   7)  0.1460 (  19)
................................................................................
.............................. CYCLE   10 ......................................
................................................................................
   1    -41.0875517 -0.410876E+02  0.330E-01    9.29       0.0  T
   2    -41.0875891 -0.374366E-04  0.249E-01    9.31       1.0  T
   3    -41.0876115 -0.224086E-04  0.477E-02    9.35       1.0  T
   4    -41.0876165 -0.498382E-05  0.155E-02    9.34       1.5  T
   5    -41.0876169 -0.391649E-06  0.362E-03    9.34       6.3  T
   6    -41.0876169 -0.645846E-08  0.226E-03    9.34      10.2  T
speedup  1.11
cpu  time for SCC    0.00 s
wall time for SCC    0.00 s
speedup  0.98
cpu  time for grad    0.01 s
wall time for grad    0.01 s
 E :    -40.88921044  G :  0.025484    pred/act E change: -0.278D-02 -0.336D-02
Maxdispl :   0.5162   ||displ|| :   0.7128   Lambda : -0.536D-02
Largest |displ|/coords:  0.5162 (   6)  0.2535 (  17)  0.2041 (   5)
................................................................................
.............................. CYCLE   11 ......................................
................................................................................
   1    -41.0946945 -0.410947E+02  0.678E-01    9.34       0.0  T
   2    -41.0948285 -0.133997E-03  0.514E-01    9.34       1.0  T
   3    -41.0949083 -0.797823E-04  0.833E-02    9.33       1.0  T
   4    -41.0949289 -0.206093E-04  0.296E-02    9.34       1.0  T
   5    -41.0949301 -0.120037E-05  0.732E-03    9.34       3.1  T
   6    -41.0949301 -0.249677E-07  0.413E-03    9.34       5.6  T
   7    -41.0949302 -0.218265E-07  0.984E-04    9.34      23.3  T
speedup  0.95
cpu  time for SCC    0.00 s
wall time for SCC    0.00 s
speedup  1.02
cpu  time for grad    0.01 s
wall time for grad    0.01 s
 E :    -40.88893445  G :  0.057470    pred/act E change: -0.304D-02  0.276D-03
Maxdispl :   0.2131   ||displ|| :   0.4984   Lambda : -0.799D-02
Largest |displ|/coords:  0.2131 (   1)  0.1785 (   5)  0.1696 (  10)
................................................................................
.............................. CYCLE   12 ......................................
................................................................................
   1    -41.0913363 -0.410913E+02  0.608E-01    9.51       0.0  T
   2    -41.0914204 -0.841027E-04  0.462E-01    9.51       1.0  T
   3    -41.0914861 -0.656366E-04  0.655E-02    9.52       1.0  T
   4    -41.0914966 -0.105065E-04  0.213E-02    9.52       1.1  T
   5    -41.0914971 -0.573146E-06  0.550E-03    9.52       4.2  T
   6    -41.0914972 -0.194362E-07  0.334E-03    9.52       6.9  T
speedup  1.11
cpu  time for SCC    0.00 s
wall time for SCC    0.00 s
speedup  1.08
cpu  time for grad    0.01 s
wall time for grad    0.01 s
 E :    -40.89238132  G :  0.031937    pred/act E change: -0.404D-02 -0.345D-02
Maxdispl :   0.4080   ||displ|| :   0.5891   Lambda : -0.337D-02
Largest |displ|/coords:  0.4080 (   6)  0.2499 (   4)  0.2208 (   1)
................................................................................
.............................. CYCLE   13 ......................................
................................................................................
   1    -41.0955345 -0.410955E+02  0.293E-01    9.40       0.0  T
   2    -41.0956037 -0.692336E-04  0.224E-01    9.39       1.0  T
   3    -41.0956330 -0.292916E-04  0.640E-02    9.39       1.0  T
   4    -41.0956426 -0.960767E-05  0.243E-02    9.40       1.0  T
   5    -41.0956432 -0.589204E-06  0.530E-03    9.40       4.3  T
   6    -41.0956432 -0.429065E-07  0.303E-03    9.40       7.6  T
speedup  1.08
cpu  time for SCC    0.00 s
wall time for SCC    0.00 s
speedup  1.06
cpu  time for grad    0.01 s
wall time for grad    0.01 s
 E :    -40.89498531  G :  0.029639    pred/act E change: -0.498D-02 -0.260D-02
Maxdispl :   0.3808   ||displ|| :   0.7453   Lambda : -0.438D-02
Largest |displ|/coords:  0.3808 (   1)  0.3676 (   4)  0.2931 (   6)
................................................................................
.............................. CYCLE   14 ......................................
................................................................................
   1    -41.0989157 -0.410989E+02  0.568E-01    9.23       0.0  T
   2    -41.0994663 -0.550629E-03  0.434E-01    9.21       1.0  T
   3    -41.0997057 -0.239336E-03  0.173E-01    9.18       1.0  T
   4    -41.0997484 -0.427193E-04  0.603E-02    9.20       1.0  T
   5    -41.0997538 -0.541294E-05  0.148E-02    9.20       1.5  T
   6    -41.0997540 -0.189100E-06  0.783E-03    9.20       2.9  T
   7    -41.0997540 -0.618034E-07  0.221E-03    9.20      10.4  T
   8    -41.0997541 -0.119364E-07  0.677E-04    9.20      33.9  T
speedup  1.04
cpu  time for SCC    0.00 s
wall time for SCC    0.00 s
speedup  1.05
cpu  time for grad    0.01 s
wall time for grad    0.01 s
 E :    -40.89803007  G :  0.044717    pred/act E change: -0.227D-02 -0.304D-02
Maxdispl :   0.4587   ||displ|| :   0.7064   Lambda : -0.469D-02
Largest |displ|/coords:  0.4587 (   6)  0.2860 (   1)  0.2230 (   4)
................................................................................
.............................. CYCLE   15 ......................................
................................................................................
   1    -41.1042210 -0.411042E+02  0.431E-01    9.34       0.0  T
   2    -41.1045801 -0.359056E-03  0.329E-01    9.33       1.0  T
   3    -41.1047472 -0.167122E-03  0.154E-01    9.33       1.0  T
   4    -41.1047705 -0.232788E-04  0.441E-02    9.33       1.0  T
   5    -41.1047737 -0.324349E-05  0.116E-02    9.33       2.0  T
   6    -41.1047738 -0.796844E-07  0.652E-03    9.33       3.5  T
   7    -41.1047739 -0.433426E-07  0.173E-03    9.33      13.2  T
   8    -41.1047739 -0.844545E-08  0.633E-04    9.33      36.2  T
speedup  0.83
cpu  time for SCC    0.00 s
wall time for SCC    0.00 s
speedup  0.95
cpu  time for grad    0.01 s
wall time for grad    0.01 s
 E :    -40.90106464  G :  0.045668    pred/act E change: -0.341D-02 -0.303D-02
Maxdispl :   0.2075   ||displ|| :   0.5051   Lambda : -0.906D-02
Largest |displ|/coords:  0.2075 (  18)  0.1570 (  20)  0.1495 (   9)
................................................................................
.............................. CYCLE   16 ......................................
................................................................................
   1    -41.1040990 -0.411041E+02  0.434E-01    9.61       0.0  T
   2    -41.1042039 -0.104925E-03  0.314E-01    9.62       1.0  T
   3    -41.1042657 -0.618391E-04  0.786E-02    9.65       1.0  T
   4    -41.1042737 -0.794583E-05  0.286E-02    9.64       1.0  T
   5    -41.1042743 -0.651896E-06  0.619E-03    9.64       3.7  T
   6    -41.1042744 -0.693392E-07  0.378E-03    9.64       6.1  T
   7    -41.1042744 -0.273234E-07  0.122E-03    9.64      18.9  T
speedup  1.09
cpu  time for SCC    0.00 s
wall time for SCC    0.00 s
speedup  0.97
cpu  time for grad    0.01 s
wall time for grad    0.01 s
 E :    -40.90157988  G :  0.052997    pred/act E change: -0.352D-02 -0.515D-03
Maxdispl :   0.1584   ||displ|| :   0.4393   Lambda : -0.125D-01
Largest |displ|/coords:  0.1584 (  15)  0.1576 (  20)  0.1409 (   3)
................................................................................
.............................. CYCLE   17 ......................................
................................................................................
   1    -41.1247986 -0.411248E+02  0.540E-01    9.40       0.0  T
   2    -41.1251033 -0.304745E-03  0.406E-01    9.39       1.0  T
   3    -41.1252946 -0.191289E-03  0.130E-01    9.34       1.0  T
   4    -41.1253233 -0.286894E-04  0.451E-02    9.34       1.0  T
   5    -41.1253260 -0.271986E-05  0.143E-02    9.35       1.6  T
   6    -41.1253261 -0.141102E-06  0.666E-03    9.35       3.4  T
   7    -41.1253262 -0.650798E-07  0.219E-03    9.35      10.5  T
   8    -41.1253262 -0.427487E-08  0.460E-04    9.35      49.9  T
speedup  1.04
cpu  time for SCC    0.01 s
wall time for SCC    0.00 s
speedup  0.94
cpu  time for grad    0.01 s
wall time for grad    0.01 s
 E :    -40.90274635  G :  0.065202    pred/act E change: -0.568D-02 -0.117D-02
Maxdispl :   0.1692   ||displ|| :   0.3619   Lambda : -0.149D-01
Largest |displ|/coords:  0.1692 (   6)  0.1347 (  19)  0.1185 (  21)
................................................................................
.............................. CYCLE   18 ......................................
................................................................................
   1    -41.1088260 -0.411088E+02  0.462E-01    9.49       0.0  T
   2    -41.1091856 -0.359558E-03  0.340E-01    9.52       1.0  T
   3    -41.1093791 -0.193538E-03  0.124E-01    9.54       1.0  T
   4    -41.1094043 -0.252468E-04  0.478E-02    9.53       1.0  T
   5    -41.1094071 -0.270355E-05  0.128E-02    9.53       1.8  T
   6    -41.1094074 -0.333927E-06  0.735E-03    9.53       3.1  T
   7    -41.1094074 -0.495989E-07  0.207E-03    9.53      11.1  T
   8    -41.1094074 -0.634267E-08  0.387E-04    9.53      59.2  T
speedup  1.02
cpu  time for SCC    0.00 s
wall time for SCC    0.00 s
speedup  1.04
cpu  time for grad    0.01 s
wall time for grad    0.01 s
 E :    -40.90363661  G :  0.039581    pred/act E change: -0.746D-02 -0.890D-03
Maxdispl :   0.0830   ||displ|| :   0.2196   Lambda : -0.388D-02
Largest |displ|/coords:  0.0830 (  18)  0.0828 (   1)  0.0795 (   4)
................................................................................
.............................. CYCLE   19 ......................................
................................................................................
   1    -41.1135387 -0.411135E+02  0.195E-01    9.51       0.0  T
   2    -41.1136107 -0.719320E-04  0.144E-01    9.50       1.0  T
   3    -41.1136506 -0.399362E-04  0.566E-02    9.50       1.0  T
   4    -41.1136556 -0.496552E-05  0.200E-02    9.50       1.1  T
   5    -41.1136562 -0.594694E-06  0.625E-03    9.50       3.7  T
   6    -41.1136562 -0.334892E-07  0.290E-03    9.50       7.9  T
   7    -41.1136562 -0.103567E-07  0.907E-04    9.50      25.3  T
speedup  1.16
cpu  time for SCC    0.00 s
wall time for SCC    0.00 s
speedup  1.00
cpu  time for grad    0.01 s
wall time for grad    0.01 s
 E :    -40.90641151  G :  0.023788    pred/act E change: -0.844D-02 -0.277D-02
Maxdispl :   0.2426   ||displ|| :   0.4597   Lambda : -0.382D-02
Largest |displ|/coords:  0.2426 (   9)  0.2227 (   6)  0.1492 (  21)
................................................................................
.............................. CYCLE   20 ......................................
................................................................................
   1    -41.1309938 -0.411310E+02  0.402E-01    9.41       0.0  T
   2    -41.1311399 -0.146033E-03  0.301E-01    9.40       1.0  T
   3    -41.1312392 -0.993485E-04  0.952E-02    9.32       1.0  T
   4    -41.1312541 -0.148698E-04  0.323E-02    9.33       1.0  T
   5    -41.1312554 -0.128180E-05  0.102E-02    9.34       2.2  T
   6    -41.1312554 -0.875985E-07  0.561E-03    9.34       4.1  T
   7    -41.1312555 -0.402078E-07  0.160E-03    9.33      14.3  T
speedup  0.95
cpu  time for SCC    0.00 s
wall time for SCC    0.00 s
speedup  1.00
cpu  time for grad    0.01 s
wall time for grad    0.01 s
 E :    -40.90376345  G :  0.071722    pred/act E change: -0.203D-02  0.265D-02
Maxdispl :   0.2270   ||displ|| :   0.4041   Lambda : -0.156D-01
Largest |displ|/coords:  0.2270 (   9)  0.1333 (  21)  0.1062 (   7)
................................................................................
.............................. CYCLE   21 ......................................
................................................................................
   1    -41.1052535 -0.411053E+02  0.552E-01    9.36       0.0  T
   2    -41.1055128 -0.259331E-03  0.408E-01    9.41       1.0  T
   3    -41.1056786 -0.165797E-03  0.120E-01    9.48       1.0  T
   4    -41.1057035 -0.249474E-04  0.357E-02    9.49       1.0  T
   5    -41.1057050 -0.142270E-05  0.119E-02    9.48       1.9  T
   6    -41.1057052 -0.247713E-06  0.749E-03    9.48       3.1  T
   7    -41.1057053 -0.582398E-07  0.196E-03    9.48      11.7  T
   8    -41.1057053 -0.603744E-08  0.470E-04    9.48      48.8  T
speedup  0.83
cpu  time for SCC    0.00 s
wall time for SCC    0.00 s
speedup  0.94
cpu  time for grad    0.01 s
wall time for grad    0.01 s
 E :    -40.90473525  G :  0.050985    pred/act E change: -0.231D-02 -0.972D-03
Maxdispl :   0.1605   ||displ|| :   0.3298   Lambda : -0.724D-02
Largest |displ|/coords:  0.1605 (   9)  0.1039 (   5)  0.0950 (   1)
................................................................................
.............................. CYCLE   22 ......................................
................................................................................
   1    -41.1242765 -0.411243E+02  0.521E-01    9.42       0.0  T
   2    -41.1243879 -0.111441E-03  0.389E-01    9.42       1.0  T
   3    -41.1244634 -0.755157E-04  0.782E-02    9.40       1.0  T
   4    -41.1244768 -0.133614E-04  0.197E-02    9.42       1.2  T
   5    -41.1244772 -0.402546E-06  0.773E-03    9.42       3.0  T
   6    -41.1244773 -0.475337E-07  0.431E-03    9.42       5.3  T
   7    -41.1244773 -0.212402E-07  0.120E-03    9.42      19.1  T
speedup  0.93
cpu  time for SCC    0.00 s
wall time for SCC    0.00 s
speedup  1.00
cpu  time for grad    0.01 s
wall time for grad    0.01 s
 E :    -40.90688607  G :  0.026064    pred/act E change: -0.910D-02 -0.215D-02
Maxdispl :   0.1177   ||displ|| :   0.2332   Lambda : -0.158D-02
Largest |displ|/coords:  0.1177 (   1)  0.1116 (   4)  0.0711 (   5)
................................................................................
.............................. CYCLE   23 ......................................
................................................................................
   1    -41.1222726 -0.411223E+02  0.338E-01    9.41       0.0  T
   2    -41.1222955 -0.229675E-04  0.256E-01    9.41       1.0  T
   3    -41.1223153 -0.197644E-04  0.344E-02    9.40       1.0  T
   4    -41.1223182 -0.285241E-05  0.856E-03    9.39       2.7  T
   5    -41.1223183 -0.917022E-07  0.405E-03    9.39       5.7  T
   6    -41.1223183 -0.156522E-07  0.226E-03    9.39      10.2  T
speedup  1.08
cpu  time for SCC    0.00 s
wall time for SCC    0.00 s
speedup  1.06
cpu  time for grad    0.01 s
wall time for grad    0.01 s
 E :    -40.90778296  G :  0.012015    pred/act E change: -0.401D-02 -0.897D-03
Maxdispl :   0.0487   ||displ|| :   0.1237   Lambda : -0.444D-03
Largest |displ|/coords:  0.0487 (   4)  0.0465 (  11)  0.0453 (   6)
................................................................................
.............................. CYCLE   24 ......................................
................................................................................
   1    -41.1189966 -0.411190E+02  0.113E-01    9.38       0.0  T
   2    -41.1190013 -0.469303E-05  0.850E-02    9.39       1.0  T
   3    -41.1190051 -0.380850E-05  0.172E-02    9.41       1.3  T
   4    -41.1190056 -0.506218E-06  0.414E-03    9.40       5.5  T
   5    -41.1190056 -0.171971E-07  0.160E-03    9.40      14.3  T
   6    -41.1190056 -0.282288E-08  0.880E-04    9.40      26.1  T
speedup  0.81
cpu  time for SCC    0.00 s
wall time for SCC    0.00 s
speedup  0.95
cpu  time for grad    0.01 s
wall time for grad    0.01 s
 E :    -40.90794805  G :  0.014735    pred/act E change: -0.835D-03 -0.165D-03
Maxdispl :   0.0765   ||displ|| :   0.1464   Lambda : -0.278D-03
Largest |displ|/coords:  0.0765 (   4)  0.0690 (   6)  0.0608 (   1)
................................................................................
.............................. CYCLE   25 ......................................
................................................................................
   1    -41.1197422 -0.411197E+02  0.102E-01    9.40       0.0  T
   2    -41.1197444 -0.219174E-05  0.774E-02    9.39       1.0  T
   3    -41.1197463 -0.196285E-05  0.103E-02    9.39       2.2  T
   4    -41.1197466 -0.282135E-06  0.431E-03    9.39       5.3  T
   5    -41.1197466 -0.166242E-07  0.118E-03    9.39      19.5  T
   6    -41.1197466 -0.130197E-08  0.749E-04    9.39      30.6  T
speedup  0.83
cpu  time for SCC    0.00 s
wall time for SCC    0.00 s
speedup  0.95
cpu  time for grad    0.01 s
wall time for grad    0.01 s
 E :    -40.90815175  G :  0.011387    pred/act E change: -0.225D-03 -0.204D-03
Maxdispl :   0.1468   ||displ|| :   0.3487   Lambda : -0.695D-03
Largest |displ|/coords:  0.1468 (   6)  0.1374 (   3)  0.1268 (   1)

generating ANC from model Hessian ...
 Shifting diagonal of input Hessian by   5.085542194438570E-003
 Lowest  eigenvalues of input Hessian
    0.005000   -0.000000   -0.000000    0.000000    0.000000    0.000000
    0.000000    0.005088    0.005483    0.005638    0.005949    0.006663
    0.007220    0.008563    0.009007    0.010328    0.010685    0.011931
 Highest eigenvalues
    1.415493    1.422955    1.430619    2.645923    3.233843    3.793407
 
cpu  time for ANC gen    0.00 s
wall time for ANC gen    0.00 s
................................................................................
.............................. CYCLE   26 ......................................
................................................................................
   1    -41.1226255 -0.411226E+02  0.189E-01    9.37       0.0  T
   2    -41.1226393 -0.137777E-04  0.142E-01    9.36       1.0  T
   3    -41.1226499 -0.106077E-04  0.279E-02    9.32       1.0  T
   4    -41.1226517 -0.176595E-05  0.753E-03    9.33       3.0  T
   5    -41.1226518 -0.896774E-07  0.317E-03    9.33       7.2  T
   6    -41.1226518 -0.643785E-08  0.173E-03    9.33      13.3  T
   7    -41.1226518 -0.405955E-08  0.449E-04    9.33      51.1  T
   8    -41.1226518 -0.222528E-09  0.119E-04    9.33     192.7  T
speedup  1.04
cpu  time for SCC    0.00 s
wall time for SCC    0.00 s
speedup  1.01
cpu  time for grad    0.01 s
wall time for grad    0.01 s
 E :    -40.90852355  G :  0.014586    pred/act E change:  0.000D+00 -0.372D-03
Maxdispl :   0.0985   ||displ|| :   0.2101   Lambda : -0.692D-03
Largest |displ|/coords:  0.0985 (   6)  0.0914 (   2)  0.0738 (   8)
................................................................................
.............................. CYCLE   27 ......................................
................................................................................
   1    -41.1224532 -0.411225E+02  0.218E-01    9.28       0.0  T
   2    -41.1224615 -0.830537E-05  0.165E-01    9.28       1.0  T
   3    -41.1224689 -0.731968E-05  0.193E-02    9.28       1.2  T
   4    -41.1224699 -0.100591E-05  0.631E-03    9.28       3.6  T
   5    -41.1224699 -0.514150E-07  0.214E-03    9.28      10.7  T
   6    -41.1224699 -0.264848E-08  0.116E-03    9.28      19.7  T
speedup  1.11
cpu  time for SCC    0.00 s
wall time for SCC    0.00 s
speedup  1.07
cpu  time for grad    0.01 s
wall time for grad    0.01 s
 E :    -40.90902344  G :  0.006103    pred/act E change:  0.000D+00 -0.500D-03
Maxdispl :   0.1564   ||displ|| :   0.3179   Lambda : -0.530D-03
Largest |displ|/coords:  0.1564 (   2)  0.1207 (   6)  0.1167 (   7)
................................................................................
.............................. CYCLE   28 ......................................
................................................................................
   1    -41.1203038 -0.411203E+02  0.278E-01    9.20       0.0  T
   2    -41.1203150 -0.111406E-04  0.210E-01    9.20       1.0  T
   3    -41.1203262 -0.111859E-04  0.230E-02    9.19       1.0  T
   4    -41.1203274 -0.121160E-05  0.683E-03    9.19       3.4  T
   5    -41.1203274 -0.449554E-07  0.339E-03    9.19       6.8  T
   6    -41.1203274 -0.144288E-07  0.161E-03    9.19      14.2  T
   7    -41.1203274 -0.525459E-08  0.451E-04    9.19      50.9  T
speedup  1.19
cpu  time for SCC    0.00 s
wall time for SCC    0.00 s
speedup  1.00
cpu  time for grad    0.01 s
wall time for grad    0.01 s
 E :    -40.90928538  G :  0.012995    pred/act E change: -0.361D-03 -0.262D-03
Maxdispl :   0.0991   ||displ|| :   0.1635   Lambda : -0.264D-03
Largest |displ|/coords:  0.0991 (   2)  0.0652 (   5)  0.0644 (   8)
................................................................................
.............................. CYCLE   29 ......................................
................................................................................
   1    -41.1216962 -0.411217E+02  0.123E-01    9.21       0.0  T
   2    -41.1216998 -0.358388E-05  0.924E-02    9.20       1.0  T
   3    -41.1217026 -0.281685E-05  0.135E-02    9.18       1.7  T
   4    -41.1217030 -0.464439E-06  0.440E-03    9.19       5.2  T
   5    -41.1217031 -0.292733E-07  0.158E-03    9.19      14.5  T
   6    -41.1217031 -0.176615E-08  0.875E-04    9.19      26.2  T
speedup  1.11
cpu  time for SCC    0.00 s
wall time for SCC    0.00 s
speedup  1.07
cpu  time for grad    0.01 s
wall time for grad    0.01 s
 E :    -40.90943397  G :  0.005361    pred/act E change: -0.292D-03 -0.149D-03
Maxdispl :   0.1473   ||displ|| :   0.2805   Lambda : -0.302D-03
Largest |displ|/coords:  0.1473 (   2)  0.1313 (   5)  0.0941 (  10)
................................................................................
.............................. CYCLE   30 ......................................
................................................................................
   1    -41.1221475 -0.411221E+02  0.177E-01    9.19       0.0  T
   2    -41.1221504 -0.296398E-05  0.134E-01    9.19       1.0  T
   3    -41.1221542 -0.381204E-05  0.109E-02    9.21       2.1  T
   4    -41.1221544 -0.134182E-06  0.300E-03    9.20       7.7  T
   5    -41.1221544 -0.729398E-08  0.156E-03    9.20      14.7  T
speedup  1.00
cpu  time for SCC    0.00 s
wall time for SCC    0.00 s
speedup  1.03
cpu  time for grad    0.01 s
wall time for grad    0.01 s
 E :    -40.90964945  G :  0.004263    pred/act E change: -0.136D-03 -0.215D-03
Maxdispl :   0.2243   ||displ|| :   0.4333   Lambda : -0.356D-03
Largest |displ|/coords:  0.2243 (   2)  0.1800 (   4)  0.1787 (   5)
................................................................................
.............................. CYCLE   31 ......................................
................................................................................
   1    -41.1214602 -0.411215E+02  0.234E-01    9.20       0.0  T
   2    -41.1214649 -0.468638E-05  0.176E-01    9.21       1.0  T
   3    -41.1214688 -0.394387E-05  0.140E-02    9.23       1.6  T
   4    -41.1214695 -0.605313E-06  0.653E-03    9.23       3.5  T
   5    -41.1214695 -0.427238E-07  0.191E-03    9.22      12.0  T
   6    -41.1214695 -0.246826E-08  0.116E-03    9.22      19.8  T
speedup  0.83
cpu  time for SCC    0.00 s
wall time for SCC    0.00 s
speedup  0.94
cpu  time for grad    0.01 s
wall time for grad    0.01 s
 E :    -40.90988618  G :  0.008012    pred/act E change: -0.163D-03 -0.237D-03
Maxdispl :   0.1778   ||displ|| :   0.3327   Lambda : -0.211D-03
Largest |displ|/coords:  0.1778 (   2)  0.1360 (   4)  0.1291 (   5)
................................................................................
.............................. CYCLE   32 ......................................
................................................................................
   1    -41.1199929 -0.411200E+02  0.159E-01    9.23       0.0  T
   2    -41.1199969 -0.398427E-05  0.120E-01    9.23       1.0  T
   3    -41.1200000 -0.312172E-05  0.150E-02    9.23       1.5  T
   4    -41.1200005 -0.561321E-06  0.613E-03    9.23       3.7  T
   5    -41.1200006 -0.414757E-07  0.180E-03    9.23      12.7  T
   6    -41.1200006 -0.279163E-08  0.108E-03    9.23      21.3  T
speedup  1.11
cpu  time for SCC    0.00 s
wall time for SCC    0.00 s
speedup  0.94
cpu  time for grad    0.01 s
wall time for grad    0.01 s
 E :    -40.91000473  G :  0.007062    pred/act E change: -0.211D-03 -0.119D-03
Maxdispl :   0.1840   ||displ|| :   0.3442   Lambda : -0.319D-03
Largest |displ|/coords:  0.1840 (   2)  0.1696 (   4)  0.1599 (   5)
................................................................................
.............................. CYCLE   33 ......................................
................................................................................
   1    -41.1229036 -0.411229E+02  0.178E-01    9.25       0.0  T
   2    -41.1229105 -0.683291E-05  0.134E-01    9.25       1.0  T
   3    -41.1229160 -0.556472E-05  0.181E-02    9.25       1.3  T
   4    -41.1229169 -0.826418E-06  0.687E-03    9.25       3.3  T
   5    -41.1229169 -0.526532E-07  0.185E-03    9.25      12.4  T
   6    -41.1229169 -0.211664E-08  0.108E-03    9.25      21.2  T
speedup  0.79
cpu  time for SCC    0.00 s
wall time for SCC    0.00 s
speedup  0.92
cpu  time for grad    0.01 s
wall time for grad    0.01 s
 E :    -40.90997324  G :  0.017202    pred/act E change: -0.117D-03  0.315D-04
Maxdispl :   0.0814   ||displ|| :   0.1142   Lambda : -0.349D-03
Largest |displ|/coords:  0.0814 (   3)  0.0363 (  10)  0.0290 (   2)
................................................................................
.............................. CYCLE   34 ......................................
................................................................................
   1    -41.1199366 -0.411199E+02  0.124E-01    9.21       0.0  T
   2    -41.1199417 -0.507525E-05  0.927E-02    9.22       1.0  T
   3    -41.1199452 -0.352158E-05  0.153E-02    9.23       1.5  T
   4    -41.1199458 -0.663753E-06  0.498E-03    9.22       4.6  T
   5    -41.1199459 -0.399136E-07  0.185E-03    9.22      12.4  T
   6    -41.1199459 -0.226605E-08  0.960E-04    9.22      23.9  T
speedup  0.81
cpu  time for SCC    0.00 s
wall time for SCC    0.00 s
speedup  0.93
cpu  time for grad    0.01 s
wall time for grad    0.01 s
 E :    -40.91015202  G :  0.009917    pred/act E change: -0.178D-03 -0.179D-03
Maxdispl :   0.0710   ||displ|| :   0.1310   Lambda : -0.168D-03
Largest |displ|/coords:  0.0710 (   4)  0.0473 (   7)  0.0441 (   9)
................................................................................
.............................. CYCLE   35 ......................................
................................................................................
   1    -41.1214954 -0.411215E+02  0.106E-01    9.26       0.0  T
   2    -41.1214997 -0.435203E-05  0.794E-02    9.25       1.0  T
   3    -41.1215028 -0.312859E-05  0.142E-02    9.23       1.6  T
   4    -41.1215034 -0.554469E-06  0.448E-03    9.24       5.1  T
   5    -41.1215034 -0.279001E-07  0.175E-03    9.24      13.1  T
   6    -41.1215034 -0.204339E-08  0.873E-04    9.24      26.3  T
speedup  1.08
cpu  time for SCC    0.00 s
wall time for SCC    0.00 s
speedup  0.93
cpu  time for grad    0.01 s
wall time for grad    0.01 s
 E :    -40.91014180  G :  0.008915    pred/act E change: -0.177D-03  0.102D-04
Maxdispl :   0.0740   ||displ|| :   0.1183   Lambda : -0.151D-03
Largest |displ|/coords:  0.0740 (   4)  0.0701 (   2)  0.0315 (   7)
................................................................................
.............................. CYCLE   36 ......................................
................................................................................
   1    -41.1210150 -0.411210E+02  0.898E-02    9.21       0.0  T
   2    -41.1210168 -0.176652E-05  0.676E-02    9.21       1.0  T
   3    -41.1210183 -0.151249E-05  0.970E-03    9.22       2.4  T
   4    -41.1210185 -0.216877E-06  0.260E-03    9.22       8.8  T
   5    -41.1210185 -0.637259E-08  0.109E-03    9.22      21.1  T
speedup  0.97
cpu  time for SCC    0.00 s
wall time for SCC    0.00 s
speedup  1.00
cpu  time for grad    0.01 s
wall time for grad    0.01 s
 E :    -40.91023359  G :  0.003030    pred/act E change: -0.855D-04 -0.918D-04
Maxdispl :   0.1588   ||displ|| :   0.2587   Lambda : -0.109D-03
Largest |displ|/coords:  0.1588 (   2)  0.1206 (   4)  0.1079 (   3)
................................................................................
.............................. CYCLE   37 ......................................
................................................................................
   1    -41.1185618 -0.411186E+02  0.194E-01    9.20       0.0  T
   2    -41.1185656 -0.379022E-05  0.147E-01    9.20       1.0  T
   3    -41.1185700 -0.442681E-05  0.128E-02    9.22       1.8  T
   4    -41.1185702 -0.223174E-06  0.348E-03    9.21       6.6  T
   5    -41.1185702 -0.754211E-08  0.163E-03    9.21      14.1  T
   6    -41.1185702 -0.221185E-08  0.752E-04    9.21      30.5  T
   7    -41.1185702 -0.488569E-09  0.149E-04    9.21     153.9  T
speedup  0.93
cpu  time for SCC    0.00 s
wall time for SCC    0.00 s
speedup  1.05
cpu  time for grad    0.01 s
wall time for grad    0.01 s
 E :    -40.91020963  G :  0.014764    pred/act E change: -0.766D-04  0.240D-04
Maxdispl :   0.0380   ||displ|| :   0.0691   Lambda : -0.189D-03
Largest |displ|/coords:  0.0380 (   3)  0.0262 (   5)  0.0203 (  13)
................................................................................
.............................. CYCLE   38 ......................................
................................................................................
   1    -41.1207137 -0.411207E+02  0.648E-02    9.22       0.0  T
   2    -41.1207147 -0.926389E-06  0.488E-02    9.22       1.0  T
   3    -41.1207155 -0.826155E-06  0.622E-03    9.22       3.7  T
   4    -41.1207156 -0.973772E-07  0.240E-03    9.22       9.6  T
   5    -41.1207156 -0.632659E-08  0.827E-04    9.22      27.7  T
speedup  0.97
cpu  time for SCC    0.00 s
wall time for SCC    0.00 s
speedup  1.00
cpu  time for grad    0.01 s
wall time for grad    0.01 s
 E :    -40.91030712  G :  0.005536    pred/act E change: -0.583D-04 -0.975D-04
Maxdispl :   0.0446   ||displ|| :   0.0732   Lambda : -0.515D-04
Largest |displ|/coords:  0.0446 (   2)  0.0328 (   9)  0.0291 (   3)
................................................................................
.............................. CYCLE   39 ......................................
................................................................................
   1    -41.1209811 -0.411210E+02  0.557E-02    9.23       0.0  T
   2    -41.1209816 -0.462175E-06  0.421E-02    9.23       1.0  T
   3    -41.1209821 -0.519958E-06  0.504E-03    9.22       4.6  T
   4    -41.1209821 -0.365982E-07  0.177E-03    9.23      13.0  T
   5    -41.1209821 -0.281882E-08  0.558E-04    9.23      41.1  T
speedup  0.97
cpu  time for SCC    0.00 s
wall time for SCC    0.00 s
speedup  1.00
cpu  time for grad    0.01 s
wall time for grad    0.01 s
 E :    -40.91034813  G :  0.003153    pred/act E change: -0.952D-04 -0.410D-04
Maxdispl :   0.1964   ||displ|| :   0.3121   Lambda : -0.144D-03
Largest |displ|/coords:  0.1964 (   2)  0.1315 (   3)  0.1235 (   4)
................................................................................
.............................. CYCLE   40 ......................................
................................................................................
   1    -41.1204541 -0.411205E+02  0.246E-01    9.22       0.0  T
   2    -41.1204614 -0.725175E-05  0.186E-01    9.23       1.0  T
   3    -41.1204702 -0.883540E-05  0.186E-02    9.23       1.2  T
   4    -41.1204707 -0.438428E-06  0.704E-03    9.23       3.3  T
   5    -41.1204707 -0.391533E-07  0.229E-03    9.23      10.0  T
   6    -41.1204707 -0.299647E-08  0.136E-03    9.23      16.8  T
   7    -41.1204707 -0.158282E-08  0.276E-04    9.23      83.3  T
   8    -41.1204707 -0.126406E-09  0.753E-05    9.23     304.6  T
speedup  1.00
cpu  time for SCC    0.00 s
wall time for SCC    0.00 s
speedup  0.99
cpu  time for grad    0.01 s
wall time for grad    0.01 s
 E :    -40.91042017  G :  0.007906    pred/act E change: -0.259D-04 -0.720D-04
Maxdispl :   0.0743   ||displ|| :   0.0930   Lambda : -0.680D-04
Largest |displ|/coords:  0.0743 (   2)  0.0387 (   4)  0.0161 (   6)
................................................................................
.............................. CYCLE   41 ......................................
................................................................................
   1    -41.1207372 -0.411207E+02  0.623E-02    9.23       0.0  T
   2    -41.1207382 -0.102768E-05  0.467E-02    9.23       1.0  T
   3    -41.1207389 -0.669796E-06  0.724E-03    9.23       3.2  T
   4    -41.1207390 -0.145768E-06  0.232E-03    9.23       9.9  T
   5    -41.1207390 -0.511793E-08  0.603E-04    9.23      38.0  T
speedup  0.97
cpu  time for SCC    0.00 s
wall time for SCC    0.00 s
speedup  1.00
cpu  time for grad    0.01 s
wall time for grad    0.01 s
 E :    -40.91046809  G :  0.004554    pred/act E change: -0.793D-04 -0.479D-04
Maxdispl :   0.1185   ||displ|| :   0.1596   Lambda : -0.736D-04
Largest |displ|/coords:  0.1185 (   2)  0.0627 (   4)  0.0468 (   3)
................................................................................
.............................. CYCLE   42 ......................................
................................................................................
   1    -41.1213146 -0.411213E+02  0.135E-01    9.24       0.0  T
   2    -41.1213167 -0.218692E-05  0.102E-01    9.24       1.0  T
   3    -41.1213193 -0.256890E-05  0.104E-02    9.24       2.2  T
   4    -41.1213194 -0.134478E-06  0.323E-03    9.24       7.1  T
   5    -41.1213195 -0.828071E-08  0.104E-03    9.24      22.0  T
   6    -41.1213195 -0.821167E-09  0.646E-04    9.24      35.5  T
speedup  1.08
cpu  time for SCC    0.00 s
wall time for SCC    0.00 s
speedup  0.93
cpu  time for grad    0.01 s
wall time for grad    0.01 s
 E :    -40.91052066  G :  0.003527    pred/act E change: -0.343D-04 -0.526D-04
Maxdispl :   0.1693   ||displ|| :   0.2406   Lambda : -0.545D-04
Largest |displ|/coords:  0.1693 (   2)  0.1048 (   4)  0.0789 (   3)
................................................................................
.............................. CYCLE   43 ......................................
................................................................................
   1    -41.1197955 -0.411198E+02  0.177E-01    9.21       0.0  T
   2    -41.1197995 -0.396940E-05  0.134E-01    9.21       1.0  T
   3    -41.1198041 -0.459711E-05  0.141E-02    9.21       1.6  T
   4    -41.1198044 -0.275851E-06  0.553E-03    9.21       4.1  T
   5    -41.1198044 -0.203680E-07  0.156E-03    9.21      14.7  T
   6    -41.1198044 -0.160276E-08  0.993E-04    9.21      23.1  T
   7    -41.1198044 -0.758384E-09  0.163E-04    9.21     140.5  T
speedup  1.11
cpu  time for SCC    0.00 s
wall time for SCC    0.00 s
speedup  1.03
cpu  time for grad    0.01 s
wall time for grad    0.01 s
 E :    -40.91054435  G :  0.006391    pred/act E change: -0.377D-04 -0.237D-04
Maxdispl :   0.0369   ||displ|| :   0.0855   Lambda : -0.864D-04
Largest |displ|/coords:  0.0369 (   2)  0.0306 (   5)  0.0295 (  13)
................................................................................
.............................. CYCLE   44 ......................................
................................................................................
   1    -41.1228292 -0.411228E+02  0.853E-02    9.26       0.0  T
   2    -41.1228316 -0.246970E-05  0.646E-02    9.26       1.0  T
   3    -41.1228334 -0.175306E-05  0.112E-02    9.24       2.1  T
   4    -41.1228337 -0.335413E-06  0.410E-03    9.25       5.6  T
   5    -41.1228337 -0.212433E-07  0.104E-03    9.25      22.0  T
   6    -41.1228337 -0.709363E-09  0.599E-04    9.25      38.3  T
speedup  0.81
cpu  time for SCC    0.00 s
wall time for SCC    0.00 s
speedup  0.93
cpu  time for grad    0.01 s
wall time for grad    0.01 s
 E :    -40.91055784  G :  0.005220    pred/act E change: -0.288D-04 -0.135D-04
Maxdispl :   0.0862   ||displ|| :   0.1149   Lambda : -0.529D-04
Largest |displ|/coords:  0.0862 (   2)  0.0493 (   4)  0.0288 (   1)
................................................................................
.............................. CYCLE   45 ......................................
................................................................................
   1    -41.1215101 -0.411215E+02  0.727E-02    9.24       0.0  T
   2    -41.1215111 -0.979652E-06  0.548E-02    9.24       1.0  T
   3    -41.1215119 -0.848079E-06  0.739E-03    9.24       3.1  T
   4    -41.1215120 -0.106638E-06  0.193E-03    9.24      11.9  T
   5    -41.1215120 -0.331473E-08  0.646E-04    9.24      35.5  T
speedup  0.97
cpu  time for SCC    0.00 s
wall time for SCC    0.00 s
speedup  1.00
cpu  time for grad    0.01 s
wall time for grad    0.01 s
 E :    -40.91058251  G :  0.003766    pred/act E change: -0.435D-04 -0.247D-04
Maxdispl :   0.0388   ||displ|| :   0.0727   Lambda : -0.385D-04
Largest |displ|/coords:  0.0388 (   2)  0.0332 (   4)  0.0246 (   8)
................................................................................
.............................. CYCLE   46 ......................................
................................................................................
   1    -41.1205943 -0.411206E+02  0.405E-02    9.21       0.0  T
   2    -41.1205950 -0.705697E-06  0.304E-02    9.21       1.0  T
   3    -41.1205955 -0.502729E-06  0.603E-03    9.22       3.8  T
   4    -41.1205956 -0.913932E-07  0.163E-03    9.22      14.1  T
   5    -41.1205956 -0.320624E-08  0.660E-04    9.22      34.8  T
   6    -41.1205956 -0.338297E-09  0.309E-04    9.22      74.2  T
speedup  1.05
cpu  time for SCC    0.00 s
wall time for SCC    0.00 s
speedup  1.01
cpu  time for grad    0.01 s
wall time for grad    0.01 s
 E :    -40.91059025  G :  0.004070    pred/act E change: -0.268D-04 -0.774D-05
Maxdispl :   0.0165   ||displ|| :   0.0334   Lambda : -0.281D-04
Largest |displ|/coords:  0.0165 (   2)  0.0135 (  13)  0.0106 (   3)
................................................................................
.............................. CYCLE   47 ......................................
................................................................................
   1    -41.1213219 -0.411213E+02  0.287E-02    9.24       0.0  T
   2    -41.1213221 -0.180898E-06  0.218E-02    9.24       1.1  T
   3    -41.1213223 -0.134567E-06  0.301E-03    9.24       7.6  T
   4    -41.1213223 -0.249778E-07  0.974E-04    9.24      23.6  T
   5    -41.1213223 -0.144458E-08  0.281E-04    9.24      81.5  T
speedup  0.97
cpu  time for SCC    0.00 s
wall time for SCC    0.00 s
speedup  0.87
cpu  time for grad    0.01 s
wall time for grad    0.01 s
 E :    -40.91060932  G :  0.002439    pred/act E change: -0.194D-04 -0.191D-04
Maxdispl :   0.0817   ||displ|| :   0.1252   Lambda : -0.341D-04
Largest |displ|/coords:  0.0817 (   2)  0.0484 (   4)  0.0411 (   1)
................................................................................
.............................. CYCLE   48 ......................................
................................................................................
   1    -41.1217275 -0.411217E+02  0.908E-02    9.26       0.0  T
   2    -41.1217284 -0.864876E-06  0.687E-02    9.26       1.0  T
   3    -41.1217294 -0.107692E-05  0.636E-03    9.26       3.6  T
   4    -41.1217295 -0.415972E-07  0.209E-03    9.26      11.0  T
   5    -41.1217295 -0.332450E-08  0.750E-04    9.26      30.6  T
   6    -41.1217295 -0.384020E-09  0.427E-04    9.26      53.7  T
speedup  1.08
cpu  time for SCC    0.00 s
wall time for SCC    0.00 s
speedup  1.01
cpu  time for grad    0.01 s
wall time for grad    0.01 s
 E :    -40.91063274  G :  0.003167    pred/act E change: -0.141D-04 -0.234D-04
Maxdispl :   0.1245   ||displ|| :   0.1979   Lambda : -0.439D-04
Largest |displ|/coords:  0.1245 (   2)  0.0825 (   4)  0.0763 (   1)
................................................................................
.............................. CYCLE   49 ......................................
................................................................................
   1    -41.1219043 -0.411219E+02  0.114E-01    9.26       0.0  T
   2    -41.1219056 -0.129955E-05  0.861E-02    9.27       1.0  T
   3    -41.1219071 -0.150924E-05  0.865E-03    9.27       2.7  T
   4    -41.1219072 -0.911109E-07  0.324E-03    9.27       7.1  T
   5    -41.1219072 -0.743609E-08  0.975E-04    9.27      23.5  T
   6    -41.1219072 -0.619430E-09  0.586E-04    9.27      39.1  T
speedup  1.08
cpu  time for SCC    0.00 s
wall time for SCC    0.00 s
speedup  1.01
cpu  time for grad    0.01 s
wall time for grad    0.01 s
 E :    -40.91066663  G :  0.003848    pred/act E change: -0.173D-04 -0.339D-04
Maxdispl :   0.2320   ||displ|| :   0.3808   Lambda : -0.806D-04
Largest |displ|/coords:  0.2320 (   2)  0.1556 (   4)  0.1549 (   1)
................................................................................
.............................. CYCLE   50 ......................................
................................................................................
   1    -41.1207035 -0.411207E+02  0.219E-01    9.22       0.0  T
   2    -41.1207078 -0.435501E-05  0.165E-01    9.23       1.0  T
   3    -41.1207128 -0.490274E-05  0.164E-02    9.24       1.4  T
   4    -41.1207131 -0.332108E-06  0.586E-03    9.24       3.9  T
   5    -41.1207131 -0.269249E-07  0.192E-03    9.24      11.9  T
   6    -41.1207131 -0.231395E-08  0.109E-03    9.24      21.0  T
   7    -41.1207131 -0.129916E-08  0.215E-04    9.24     106.7  T
   8    -41.1207131 -0.121837E-09  0.824E-05    9.24     278.4  T
speedup  1.02
cpu  time for SCC    0.00 s
wall time for SCC    0.00 s
speedup  0.99
cpu  time for grad    0.01 s
wall time for grad    0.01 s
 E :    -40.91070348  G :  0.005872    pred/act E change: -0.228D-04 -0.368D-04
Maxdispl :   0.0850   ||displ|| :   0.1805   Lambda : -0.966D-04
Largest |displ|/coords:  0.0850 (   1)  0.0830 (   9)  0.0774 (   6)
................................................................................
.............................. CYCLE   51 ......................................
................................................................................
   1    -41.1233358 -0.411233E+02  0.955E-02    9.28       0.0  T
   2    -41.1233392 -0.334765E-05  0.709E-02    9.28       1.0  T
   3    -41.1233413 -0.209467E-05  0.134E-02    9.28       1.7  T
   4    -41.1233417 -0.403288E-06  0.434E-03    9.29       5.3  T
   5    -41.1233417 -0.333305E-07  0.131E-03    9.29      17.5  T
   6    -41.1233417 -0.114979E-08  0.741E-04    9.29      30.9  T
speedup  0.81
cpu  time for SCC    0.00 s
wall time for SCC    0.00 s
speedup  0.92
cpu  time for grad    0.01 s
wall time for grad    0.01 s
 E :    -40.91066035  G :  0.010366    pred/act E change: -0.462D-04  0.431D-04
Maxdispl :   0.0913   ||displ|| :   0.1440   Lambda : -0.186D-03
Largest |displ|/coords:  0.0913 (   2)  0.0559 (   4)  0.0447 (   3)
................................................................................
.............................. CYCLE   52 ......................................
................................................................................
   1    -41.1202345 -0.411202E+02  0.130E-01    9.25       0.0  T
   2    -41.1202394 -0.489711E-05  0.976E-02    9.25       1.0  T
   3    -41.1202433 -0.388166E-05  0.160E-02    9.27       1.4  T
   4    -41.1202439 -0.590919E-06  0.512E-03    9.26       4.5  T
   5    -41.1202440 -0.330293E-07  0.162E-03    9.26      14.1  T
   6    -41.1202440 -0.161042E-08  0.977E-04    9.26      23.5  T
speedup  1.05
cpu  time for SCC    0.00 s
wall time for SCC    0.00 s
speedup  1.03
cpu  time for grad    0.01 s
wall time for grad    0.01 s
 E :    -40.91071856  G :  0.007923    pred/act E change: -0.499D-04 -0.582D-04
Maxdispl :   0.0630   ||displ|| :   0.1358   Lambda : -0.110D-03
Largest |displ|/coords:  0.0630 (   4)  0.0570 (   2)  0.0457 (   9)

generating ANC from model Hessian ...
 Shifting diagonal of input Hessian by   5.131094382071913E-003
 Lowest  eigenvalues of input Hessian
    0.005000   -0.000000   -0.000000   -0.000000    0.000000    0.000000
    0.000000    0.005188    0.005323    0.005548    0.006070    0.006291
    0.006802    0.007840    0.009140    0.010281    0.011742    0.014483
 Highest eigenvalues
    1.397156    1.411639    1.437369    2.662387    3.241709    3.752487
 
cpu  time for ANC gen    0.00 s
wall time for ANC gen    0.00 s
................................................................................
.............................. CYCLE   53 ......................................
................................................................................
   1    -41.1210484 -0.411210E+02  0.939E-02    9.25       0.0  T
   2    -41.1210508 -0.237955E-05  0.702E-02    9.24       1.0  T
   3    -41.1210528 -0.199662E-05  0.116E-02    9.22       2.0  T
   4    -41.1210530 -0.265348E-06  0.383E-03    9.23       6.0  T
   5    -41.1210530 -0.200953E-07  0.134E-03    9.23      17.1  T
   6    -41.1210530 -0.150917E-08  0.683E-04    9.23      33.6  T
   7    -41.1210530 -0.762135E-09  0.171E-04    9.23     133.9  T
speedup  0.93
cpu  time for SCC    0.00 s
wall time for SCC    0.00 s
speedup  1.05
cpu  time for grad    0.01 s
wall time for grad    0.01 s
 E :    -40.91073298  G :  0.005640    pred/act E change:  0.000D+00 -0.144D-04
Maxdispl :   0.0317   ||displ|| :   0.0474   Lambda : -0.478D-04
Largest |displ|/coords:  0.0317 (   4)  0.0241 (   5)  0.0106 (   6)
................................................................................
.............................. CYCLE   54 ......................................
................................................................................
   1    -41.1213454 -0.411213E+02  0.452E-02    9.23       0.0  T
   2    -41.1213457 -0.333146E-06  0.342E-02    9.24       1.0  T
   3    -41.1213461 -0.375518E-06  0.364E-03    9.24       6.3  T
   4    -41.1213461 -0.324558E-07  0.124E-03    9.24      18.5  T
   5    -41.1213461 -0.107568E-08  0.579E-04    9.24      39.6  T
speedup  0.97
cpu  time for SCC    0.00 s
wall time for SCC    0.00 s
speedup  1.00
cpu  time for grad    0.01 s
wall time for grad    0.01 s
 E :    -40.91076691  G :  0.002134    pred/act E change:  0.000D+00 -0.339D-04
Maxdispl :   0.0587   ||displ|| :   0.0836   Lambda : -0.326D-04
Largest |displ|/coords:  0.0587 (   4)  0.0344 (   5)  0.0269 (   3)
................................................................................
.............................. CYCLE   55 ......................................
................................................................................
   1    -41.1215068 -0.411215E+02  0.758E-02    9.25       0.0  T
   2    -41.1215073 -0.513161E-06  0.571E-02    9.25       1.0  T
   3    -41.1215080 -0.645822E-06  0.444E-03    9.26       5.2  T
   4    -41.1215080 -0.387981E-07  0.201E-03    9.26      11.4  T
   5    -41.1215080 -0.341661E-08  0.758E-04    9.25      30.3  T
   6    -41.1215080 -0.705498E-09  0.336E-04    9.25      68.2  T
speedup  1.05
cpu  time for SCC    0.00 s
wall time for SCC    0.00 s
speedup  1.00
cpu  time for grad    0.01 s
wall time for grad    0.01 s
 E :    -40.91079121  G :  0.001877    pred/act E change: -0.239D-04 -0.243D-04
Maxdispl :   0.1238   ||displ|| :   0.1674   Lambda : -0.406D-04
Largest |displ|/coords:  0.1238 (   4)  0.0604 (   3)  0.0564 (   5)
................................................................................
.............................. CYCLE   56 ......................................
................................................................................
   1    -41.1209748 -0.411210E+02  0.149E-01    9.26       0.0  T
   2    -41.1209763 -0.151764E-05  0.112E-01    9.27       1.0  T
   3    -41.1209782 -0.191408E-05  0.776E-03    9.28       3.0  T
   4    -41.1209783 -0.112670E-06  0.389E-03    9.28       5.9  T
   5    -41.1209784 -0.136596E-07  0.128E-03    9.27      17.9  T
   6    -41.1209784 -0.178817E-08  0.587E-04    9.27      39.1  T
   7    -41.1209784 -0.905061E-09  0.103E-04    9.27     222.2  T
speedup  0.93
cpu  time for SCC    0.00 s
wall time for SCC    0.00 s
speedup  1.05
cpu  time for grad    0.01 s
wall time for grad    0.01 s
 E :    -40.91081742  G :  0.004800    pred/act E change: -0.164D-04 -0.262D-04
Maxdispl :   0.0605   ||displ|| :   0.1000   Lambda : -0.273D-04
Largest |displ|/coords:  0.0605 (   4)  0.0452 (   3)  0.0350 (   5)
................................................................................
.............................. CYCLE   57 ......................................
................................................................................
   1    -41.1211168 -0.411211E+02  0.788E-02    9.28       0.0  T
   2    -41.1211172 -0.369646E-06  0.593E-02    9.28       1.0  T
   3    -41.1211177 -0.487590E-06  0.377E-03    9.28       6.1  T
   4    -41.1211177 -0.228741E-07  0.194E-03    9.28      11.8  T
   5    -41.1211177 -0.347471E-08  0.573E-04    9.28      40.1  T
speedup  0.97
cpu  time for SCC    0.00 s
wall time for SCC    0.00 s
speedup  0.99
cpu  time for grad    0.01 s
wall time for grad    0.01 s
 E :    -40.91083925  G :  0.004463    pred/act E change: -0.208D-04 -0.218D-04
Maxdispl :   0.0938   ||displ|| :   0.1801   Lambda : -0.703D-04
Largest |displ|/coords:  0.0938 (   3)  0.0817 (   5)  0.0646 (   4)
................................................................................
.............................. CYCLE   58 ......................................
................................................................................
   1    -41.1223645 -0.411224E+02  0.121E-01    9.26       0.0  T
   2    -41.1223659 -0.143333E-05  0.914E-02    9.27       1.0  T
   3    -41.1223675 -0.159598E-05  0.751E-03    9.27       3.1  T
   4    -41.1223677 -0.124170E-06  0.294E-03    9.27       7.8  T
   5    -41.1223677 -0.937383E-08  0.117E-03    9.27      19.6  T
speedup  0.97
cpu  time for SCC    0.00 s
wall time for SCC    0.00 s
speedup  1.00
cpu  time for grad    0.01 s
wall time for grad    0.01 s
 E :    -40.91087593  G :  0.002396    pred/act E change: -0.138D-04 -0.367D-04
Maxdispl :   0.1926   ||displ|| :   0.3473   Lambda : -0.678D-04
Largest |displ|/coords:  0.1926 (   4)  0.1637 (   3)  0.1550 (   5)
................................................................................
.............................. CYCLE   59 ......................................
................................................................................
   1    -41.1188541 -0.411189E+02  0.277E-01    9.21       0.0  T
   2    -41.1188612 -0.709580E-05  0.209E-01    9.22       1.0  T
   3    -41.1188689 -0.771629E-05  0.172E-02    9.25       1.3  T
   4    -41.1188696 -0.688542E-06  0.736E-03    9.24       3.1  T
   5    -41.1188697 -0.569477E-07  0.294E-03    9.24       7.8  T
   6    -41.1188697 -0.685334E-08  0.140E-03    9.24      16.4  T
   7    -41.1188697 -0.429702E-08  0.240E-04    9.24      95.5  T
   8    -41.1188697 -0.653344E-10  0.770E-05    9.24     297.9  T
speedup  1.02
cpu  time for SCC    0.00 s
wall time for SCC    0.00 s
speedup  0.99
cpu  time for grad    0.01 s
wall time for grad    0.01 s
 E :    -40.91082003  G :  0.012384    pred/act E change: -0.363D-04  0.559D-04
Maxdispl :   0.1338   ||displ|| :   0.2083   Lambda : -0.247D-03
Largest |displ|/coords:  0.1338 (   4)  0.0904 (   3)  0.0792 (   5)
................................................................................
.............................. CYCLE   60 ......................................
................................................................................
   1    -41.1220124 -0.411220E+02  0.172E-01    9.28       0.0  T
   2    -41.1220160 -0.362418E-05  0.130E-01    9.27       1.0  T
   3    -41.1220189 -0.287698E-05  0.128E-02    9.26       1.8  T
   4    -41.1220194 -0.516332E-06  0.449E-03    9.26       5.1  T
   5    -41.1220195 -0.244991E-07  0.202E-03    9.26      11.4  T
   6    -41.1220195 -0.268293E-08  0.996E-04    9.26      23.0  T
speedup  1.00
cpu  time for SCC    0.00 s
wall time for SCC    0.00 s
speedup  1.00
cpu  time for grad    0.01 s
wall time for grad    0.01 s
 E :    -40.91090489  G :  0.001859    pred/act E change: -0.380D-04 -0.849D-04
Maxdispl :   0.0331   ||displ|| :   0.0644   Lambda : -0.148D-04
Largest |displ|/coords:  0.0331 (   3)  0.0308 (   4)  0.0277 (   5)
................................................................................
.............................. CYCLE   61 ......................................
................................................................................
   1    -41.1218778 -0.411219E+02  0.493E-02    9.26       0.0  T
   2    -41.1218781 -0.233247E-06  0.373E-02    9.26       1.0  T
   3    -41.1218784 -0.320275E-06  0.278E-03    9.26       8.2  T
   4    -41.1218784 -0.118788E-07  0.125E-03    9.26      18.4  T
   5    -41.1218784 -0.127039E-08  0.446E-04    9.26      51.4  T
   6    -41.1218784 -0.241897E-09  0.204E-04    9.26     112.5  T
speedup  0.75
cpu  time for SCC    0.00 s
wall time for SCC    0.00 s
speedup  0.87
cpu  time for grad    0.01 s
wall time for grad    0.01 s
 E :    -40.91091773  G :  0.001712    pred/act E change: -0.129D-03 -0.128D-04
Maxdispl :   0.2168   ||displ|| :   0.3841   Lambda : -0.687D-04
Largest |displ|/coords:  0.2168 (   3)  0.1790 (   5)  0.1613 (   4)
................................................................................
.............................. CYCLE   62 ......................................
................................................................................
   1    -41.1186389 -0.411186E+02  0.293E-01    9.21       0.0  T
   2    -41.1186471 -0.826567E-05  0.221E-01    9.22       1.0  T
   3    -41.1186575 -0.103408E-04  0.176E-02    9.24       1.3  T
   4    -41.1186581 -0.573063E-06  0.749E-03    9.24       3.1  T
   5    -41.1186581 -0.499529E-07  0.308E-03    9.24       7.5  T
   6    -41.1186581 -0.892818E-08  0.133E-03    9.24      17.2  T
   7    -41.1186581 -0.366806E-08  0.266E-04    9.24      86.3  T
   8    -41.1186581 -0.891731E-10  0.825E-05    9.24     278.2  T
speedup  1.02
cpu  time for SCC    0.01 s
wall time for SCC    0.00 s
speedup  0.97
cpu  time for grad    0.01 s
wall time for grad    0.01 s
 E :    -40.91089343  G :  0.010624    pred/act E change: -0.743D-05  0.243D-04
Maxdispl :   0.1198   ||displ|| :   0.2223   Lambda : -0.161D-03
Largest |displ|/coords:  0.1198 (   3)  0.1054 (   5)  0.1013 (   4)
................................................................................
.............................. CYCLE   63 ......................................
................................................................................
   1    -41.1218584 -0.411219E+02  0.175E-01    9.28       0.0  T
   2    -41.1218625 -0.401345E-05  0.132E-01    9.28       1.0  T
   3    -41.1218666 -0.410021E-05  0.129E-02    9.26       1.8  T
   4    -41.1218670 -0.435883E-06  0.481E-03    9.27       4.8  T
   5    -41.1218670 -0.233652E-07  0.213E-03    9.27      10.8  T
   6    -41.1218670 -0.360411E-08  0.956E-04    9.27      24.0  T
speedup  1.08
cpu  time for SCC    0.00 s
wall time for SCC    0.00 s
speedup  1.05
cpu  time for grad    0.01 s
wall time for grad    0.01 s
 E :    -40.91094402  G :  0.001923    pred/act E change: -0.394D-04 -0.506D-04
Maxdispl :   0.0349   ||displ|| :   0.0607   Lambda : -0.143D-04
Largest |displ|/coords:  0.0349 (   3)  0.0287 (   5)  0.0201 (   4)
................................................................................
.............................. CYCLE   64 ......................................
................................................................................
   1    -41.1216815 -0.411217E+02  0.530E-02    9.26       0.0  T
   2    -41.1216819 -0.373197E-06  0.402E-02    9.26       1.0  T
   3    -41.1216824 -0.505533E-06  0.341E-03    9.27       6.7  T
   4    -41.1216824 -0.179982E-07  0.124E-03    9.27      18.5  T
   5    -41.1216824 -0.106763E-08  0.533E-04    9.27      43.0  T
   6    -41.1216824 -0.349473E-09  0.172E-04    9.27     133.0  T
speedup  1.05
cpu  time for SCC    0.00 s
wall time for SCC    0.00 s
speedup  1.00
cpu  time for grad    0.01 s
wall time for grad    0.01 s
 E :    -40.91095224  G :  0.002496    pred/act E change: -0.842D-04 -0.823D-05
Maxdispl :   0.1079   ||displ|| :   0.1773   Lambda : -0.275D-04
Largest |displ|/coords:  0.1079 (   3)  0.0776 (   5)  0.0685 (   4)
................................................................................
.............................. CYCLE   65 ......................................
................................................................................
   1    -41.1208283 -0.411208E+02  0.135E-01    9.26       0.0  T
   2    -41.1208300 -0.166233E-05  0.102E-01    9.26       1.0  T
   3    -41.1208322 -0.217264E-05  0.814E-03    9.27       2.8  T
   4    -41.1208323 -0.994711E-07  0.314E-03    9.27       7.3  T
   5    -41.1208323 -0.877207E-08  0.131E-03    9.27      17.5  T
   6    -41.1208323 -0.169937E-08  0.538E-04    9.27      42.7  T
   7    -41.1208323 -0.535358E-09  0.130E-04    9.27     176.3  T
speedup  1.16
cpu  time for SCC    0.00 s
wall time for SCC    0.00 s
speedup  1.05
cpu  time for grad    0.01 s
wall time for grad    0.01 s
 E :    -40.91096723  G :  0.004319    pred/act E change: -0.719D-05 -0.150D-04
Maxdispl :   0.0167   ||displ|| :   0.0248   Lambda : -0.135D-04
Largest |displ|/coords:  0.0167 (   3)  0.0089 (   5)  0.0074 (   2)
................................................................................
[...]
   3    -41.1232351 -0.535587E-07  0.113E-03    9.20      20.2  T
   4    -41.1232351 -0.200510E-08  0.501E-04    9.20      45.8  T
   5    -41.1232351 -0.213142E-09  0.154E-04    9.20     149.3  T
speedup  1.33
cpu  time for SCC    0.00 s
wall time for SCC    0.00 s
speedup  1.08
cpu  time for grad    0.01 s
wall time for grad    0.01 s
 E :    -40.91271523  G :  0.000483    pred/act E change: -0.351D-06 -0.418D-06
Maxdispl :   0.0532   ||displ|| :   0.0940   Lambda : -0.999D-06
Largest |displ|/coords:  0.0532 (   5)  0.0522 (   1)  0.0331 (   6)
................................................................................
.............................. CYCLE  133 ......................................
................................................................................
   1    -41.1229731 -0.411230E+02  0.704E-02    9.20       0.0  T
   2    -41.1229736 -0.450613E-06  0.532E-02    9.19       1.0  T
   3    -41.1229742 -0.605238E-06  0.404E-03    9.19       5.7  T
   4    -41.1229742 -0.195692E-07  0.181E-03    9.19      12.7  T
   5    -41.1229742 -0.256260E-08  0.600E-04    9.19      38.3  T
   6    -41.1229742 -0.309520E-09  0.336E-04    9.19      68.2  T
speedup  0.83
cpu  time for SCC    0.00 s
wall time for SCC    0.00 s
speedup  1.01
cpu  time for grad    0.01 s
wall time for grad    0.01 s
 E :    -40.91271535  G :  0.000992    pred/act E change: -0.304D-06 -0.126D-06
Maxdispl :   0.0177   ||displ|| :   0.0337   Lambda : -0.155D-05
Largest |displ|/coords:  0.0177 (   5)  0.0166 (   1)  0.0142 (   6)
................................................................................
.............................. CYCLE  134 ......................................
................................................................................
   1    -41.1232482 -0.411232E+02  0.277E-02    9.19       0.0  T
   2    -41.1232482 -0.643853E-07  0.209E-02    9.19       1.1  T
   3    -41.1232483 -0.820863E-07  0.159E-03    9.20      14.4  T
   4    -41.1232483 -0.352039E-08  0.714E-04    9.20      32.1  T
   5    -41.1232483 -0.398188E-09  0.229E-04    9.20     100.0  T
speedup  0.97
cpu  time for SCC    0.00 s
wall time for SCC    0.00 s
speedup  0.95
cpu  time for grad    0.01 s
wall time for grad    0.01 s
 E :    -40.91271610  G :  0.000407    pred/act E change: -0.505D-06 -0.745D-06
Maxdispl :   0.0188   ||displ|| :   0.0278   Lambda : -0.636D-06
Largest |displ|/coords:  0.0188 (   1)  0.0162 (   5)  0.0062 (   3)
................................................................................
.............................. CYCLE  135 ......................................
................................................................................
   1    -41.1233030 -0.411233E+02  0.205E-02    9.20       0.0  T
   2    -41.1233030 -0.339504E-07  0.155E-02    9.20       1.5  T
   3    -41.1233031 -0.486113E-07  0.985E-04    9.20      23.3  T
   4    -41.1233031 -0.706322E-09  0.335E-04    9.20      68.5  T
speedup  0.80
cpu  time for SCC    0.00 s
wall time for SCC    0.00 s
speedup  1.03
cpu  time for grad    0.01 s
wall time for grad    0.01 s
 E :    -40.91271662  G :  0.000403    pred/act E change: -0.778D-06 -0.520D-06
Maxdispl :   0.0626   ||displ|| :   0.0955   Lambda : -0.157D-05
Largest |displ|/coords:  0.0626 (   1)  0.0552 (   5)  0.0250 (   3)
................................................................................
.............................. CYCLE  136 ......................................
................................................................................
   1    -41.1232146 -0.411232E+02  0.684E-02    9.20       0.0  T
   2    -41.1232150 -0.421942E-06  0.518E-02    9.20       1.0  T
   3    -41.1232156 -0.584687E-06  0.363E-03    9.20       6.3  T
   4    -41.1232156 -0.136591E-07  0.168E-03    9.20      13.6  T
   5    -41.1232156 -0.220601E-08  0.540E-04    9.20      42.5  T
   6    -41.1232156 -0.244206E-09  0.306E-04    9.20      75.0  T
speedup  0.81
cpu  time for SCC    0.00 s
wall time for SCC    0.00 s
speedup  1.00
cpu  time for grad    0.01 s
wall time for grad    0.01 s
 E :    -40.91271769  G :  0.000487    pred/act E change: -0.318D-06 -0.107D-05
Maxdispl :   0.0171   ||displ|| :   0.0262   Lambda : -0.567D-06
Largest |displ|/coords:  0.0171 (   1)  0.0136 (   5)  0.0067 (   4)
................................................................................
.............................. CYCLE  137 ......................................
................................................................................
   1    -41.1232557 -0.411233E+02  0.205E-02    9.20       0.0  T
   2    -41.1232557 -0.316784E-07  0.155E-02    9.20       1.5  T
   3    -41.1232557 -0.430562E-07  0.937E-04    9.20      24.5  T
   4    -41.1232557 -0.115729E-08  0.418E-04    9.20      54.9  T
speedup  0.77
cpu  time for SCC    0.00 s
wall time for SCC    0.00 s
speedup  1.00
cpu  time for grad    0.01 s
wall time for grad    0.01 s
 E :    -40.91271812  G :  0.000380    pred/act E change: -0.791D-06 -0.427D-06
Maxdispl :   0.0253   ||displ|| :   0.0385   Lambda : -0.563D-06
Largest |displ|/coords:  0.0253 (   1)  0.0213 (   5)  0.0114 (   3)
................................................................................
.............................. CYCLE  138 ......................................
................................................................................
   1    -41.1232244 -0.411232E+02  0.280E-02    9.20       0.0  T
   2    -41.1232244 -0.637450E-07  0.212E-02    9.20       1.1  T
   3    -41.1232245 -0.871364E-07  0.145E-03    9.20      15.8  T
   4    -41.1232245 -0.232682E-08  0.568E-04    9.20      40.4  T
   5    -41.1232245 -0.287585E-09  0.218E-04    9.20     105.1  T
speedup  1.33
cpu  time for SCC    0.00 s
wall time for SCC    0.00 s
speedup  1.07
cpu  time for grad    0.01 s
wall time for grad    0.01 s
 E :    -40.91271857  G :  0.000369    pred/act E change: -0.284D-06 -0.449D-06
Maxdispl :   0.0218   ||displ|| :   0.0345   Lambda : -0.533D-06
Largest |displ|/coords:  0.0218 (   1)  0.0181 (   5)  0.0114 (   3)
................................................................................
.............................. CYCLE  139 ......................................
................................................................................
   1    -41.1232238 -0.411232E+02  0.253E-02    9.20       0.0  T
   2    -41.1232239 -0.557769E-07  0.191E-02    9.20       1.2  T
   3    -41.1232240 -0.726911E-07  0.155E-03    9.20      14.8  T
   4    -41.1232240 -0.264261E-08  0.433E-04    9.20      53.0  T
   5    -41.1232240 -0.274653E-09  0.220E-04    9.20     104.2  T
speedup  1.00
cpu  time for SCC    0.00 s
wall time for SCC    0.00 s
speedup  0.95
cpu  time for grad    0.01 s
wall time for grad    0.01 s
 E :    -40.91271889  G :  0.000298    pred/act E change: -0.282D-06 -0.327D-06
Maxdispl :   0.0172   ||displ|| :   0.0256   Lambda : -0.223D-06
Largest |displ|/coords:  0.0172 (   1)  0.0139 (   5)  0.0091 (   3)
................................................................................
.............................. CYCLE  140 ......................................
................................................................................
   1    -41.1231652 -0.411232E+02  0.180E-02    9.20       0.0  T
   2    -41.1231653 -0.294594E-07  0.136E-02    9.20       1.7  T
   3    -41.1231653 -0.397116E-07  0.114E-03    9.20      20.2  T
   4    -41.1231653 -0.107455E-08  0.419E-04    9.20      54.8  T
   5    -41.1231653 -0.190191E-09  0.146E-04    9.20     156.9  T
speedup  1.00
cpu  time for SCC    0.00 s
wall time for SCC    0.00 s
speedup  1.07
cpu  time for grad    0.01 s
wall time for grad    0.01 s
 E :    -40.91271902  G :  0.000346    pred/act E change: -0.267D-06 -0.131D-06
Maxdispl :   0.0096   ||displ|| :   0.0133   Lambda : -0.338D-06
Largest |displ|/coords:  0.0096 (   2)  0.0061 (   5)  0.0036 (   7)
................................................................................
.............................. CYCLE  141 ......................................
................................................................................
   1    -41.1233077 -0.411233E+02  0.716E-03    9.20       0.0  T
   2    -41.1233077 -0.121200E-07  0.536E-03    9.20       4.3  T
   3    -41.1233077 -0.995722E-08  0.855E-04    9.20      26.8  T
   4    -41.1233077 -0.148618E-08  0.372E-04    9.20      61.7  T
speedup  1.25
cpu  time for SCC    0.00 s
wall time for SCC    0.00 s
speedup  1.03
cpu  time for grad    0.01 s
wall time for grad    0.01 s
 E :    -40.91271909  G :  0.000344    pred/act E change: -0.112D-06 -0.621D-07
Maxdispl :   0.0128   ||displ|| :   0.0190   Lambda : -0.265D-06
Largest |displ|/coords:  0.0128 (   1)  0.0104 (   5)  0.0050 (   3)
................................................................................
.............................. CYCLE  142 ......................................
................................................................................
   1    -41.1232449 -0.411232E+02  0.138E-02    9.20       0.0  T
   2    -41.1232449 -0.215182E-07  0.105E-02    9.20       2.2  T
   3    -41.1232449 -0.276320E-07  0.890E-04    9.20      25.8  T
   4    -41.1232449 -0.119809E-08  0.375E-04    9.20      61.2  T
speedup  1.25
cpu  time for SCC    0.00 s
wall time for SCC    0.00 s
speedup  1.03
cpu  time for grad    0.01 s
wall time for grad    0.01 s
 E :    -40.91271922  G :  0.000160    pred/act E change: -0.169D-06 -0.134D-06
Maxdispl :   0.0012   ||displ|| :   0.0028   Lambda : -0.872D-07
Largest |displ|/coords:  0.0012 (   1)  0.0011 (  11)  0.0009 (   5)
................................................................................
.............................. CYCLE  143 ......................................
................................................................................
   1    -41.1232435 -0.411232E+02  0.214E-03    9.20       0.0  T
   2    -41.1232435 -0.567454E-09  0.157E-03    9.20      14.6  T
   3    -41.1232435 -0.474870E-09  0.256E-04    9.20      89.5  T
   4    -41.1232435 -0.484164E-10  0.617E-05    9.20     371.7  T
speedup  0.80
cpu  time for SCC    0.00 s
wall time for SCC    0.00 s
speedup  0.95
cpu  time for grad    0.01 s
wall time for grad    0.01 s
 E :    -40.91271928  G :  0.000113    pred/act E change: -0.132D-06 -0.602D-07
Maxdispl :   0.0102   ||displ|| :   0.0131   Lambda : -0.930D-07
Largest |displ|/coords:  0.0102 (   1)  0.0046 (   5)  0.0038 (   6)

   *** GEOMETRY OPTIMIZATION CONVERGED AFTER 143 ITERATIONS ***

------------------------------------------------------------------------
 total energy gain (kcal):     -0.0500
------------------------------------------------------------------------
================
 final structure:
================
$coord
        0.17445543571441        0.06004412047960        1.00418917311755      S 
       -1.08273530474476        0.52151752888308       -1.37558018841551      O 
       -0.38352540628799        2.25085713835645        2.84020623934444      O 
       -0.37986400502813       -2.30222849085363        2.17749929978166      O 
        3.04570305183939        0.29365278534798        0.56306239778854      O 
        3.24830779462187        1.60527890386598       -0.84355662949055      H 
        5.24003963213454       -1.59397855016939       -4.24785428119707      O 
        7.02475951569430       -1.88837811181200       -4.37398681082877      H 
        4.75617646709553       -1.97081263800609       -2.53417716837364      H 
       -5.53472643608438       -1.25590911817592        0.39000095640320      O 
       -4.17402684425081       -0.47971934625441       -0.57128340132528      H 
       -5.18914919403010       -3.03765309978688        0.36412478654781      H 
        2.92919312651992        2.96820916520294       -3.39713508301049      O 
        3.74249836046132        1.67451996624091       -4.42142539004899      H 
        1.13401600629331        2.60020357902377       -3.43952334533594      H 
       -4.18140040320517        0.26338338216761        5.00605548594473      O 
       -3.37150096497686       -1.27516378799383        5.54000816070618      H 
       -1.91293684888764        1.73830396299779        3.88383462090680      H 
       -5.08528400186810       -0.17212738958201        3.43554115826752      H 
$end
 
 Bond Distances (Angstroems)
 ---------------------------
S1-O2=1.4450         S1-O3=1.5412         S1-O4=1.4263         S1-O5=1.5422         O2-S1=1.4450         O3-S1=1.5412         
O3-H18=1.0166        O4-S1=1.4263         O5-S1=1.5422         O5-H6=1.0234         H6-O5=1.0234         O7-H8=0.9595         
O7-H9=0.9632         H8-O7=0.9595         H9-O7=0.9632         O10-H11=0.9726       O10-H12=0.9605       H11-O10=0.9726       
H12-O10=0.9605       O13-H14=0.9735       O13-H15=0.9700       H14-O13=0.9735       H15-O13=0.9700       O16-H17=0.9625       
O16-H19=0.9862       H17-O16=0.9625       H18-O3=1.0166        H19-O16=0.9862       
 O  H  Rav=0.9788 sigma=0.0220  Rmin=0.9595  Rmax=1.0234    10
 S  O  Rav=1.4887 sigma=0.0534  Rmin=1.4263  Rmax=1.5422     4
 
 selected bond angles (degree)
 --------------------
O3-S1-O2=109.52                O4-S1-O2=115.65                O4-S1-O3=110.21                O5-S1-O2=107.95                
O5-S1-O3=102.94                O5-S1-O4=109.80                H18-O3-S1=107.11               H6-O5-S1=105.53                
H9-O7-H8=107.07                H12-O10-H11=105.43             
 
 selected dihedral angles (degree)
 ---------------------------------
H18-O3-S1-O2= 93.42           H18-O3-S1-O4=325.11           H18-O3-S1-O5=208.05           H6-O5-S1-O2= 31.36            
H6-O5-S1-O3=275.59            H6-O5-S1-O4=158.24            
 
 CMA Distance (Angstroems)
 ---------------------------
R(CMA):  0.8898

========================================================================
 FINAL SINGLEPOINT CALCULATION ON OPTIMIZED GEOMETRY
========================================================================

 Ncao       : 52
 Nao        : 51
 Nshell     : 29
 Nel        : 64
 T(el)      :   300.0
 intcut     :    25.0
 scfconv/Eh :  0.100E-05
   qconv/e  :  0.100E-03
 intneglect :  0.100E-07
 broydamp   :      0.250
 iter      E             dE          RMSdq      gap      omega  full diag
   1    -41.1232435 -0.411232E+02  0.281E-05    9.20       0.0  T
   2    -41.1232435 -0.333955E-12  0.183E-05    9.20    1251.7  T
   3    -41.1232435 -0.170530E-12  0.346E-06    9.20    6635.7  T
speedup  1.11
cpu  time for SCC    0.00 s
wall time for SCC    0.00 s

   *** convergence criteria satisfied after 3 iterations ***

          eigenvalues
 #    :          20         21         22         23         24         25         26         27
 occ. :        2.000      2.000      2.000      2.000      2.000      2.000      2.000      2.000
 eps  :       -14.591    -14.431    -14.184    -13.961    -13.497    -13.028    -12.937    -12.840
 #    :          28         29         30         31         32         33         34         35
 occ. :        2.000      2.000      2.000      2.000      2.000      0.000      0.000      0.000
 eps  :       -12.803    -12.667    -12.595    -12.542    -12.313     -3.113     -0.981     -0.613
 #    :          36         37         38         39         40         41         42         43
 occ. :        0.000      0.000      0.000      0.000      0.000      0.000      0.000      0.000
 eps  :         0.235      0.888      1.354      2.855      3.300      4.768      5.377      6.401


   #   Z            q   n(s)   n(p)   n(d)      C6AA      α(0)
   1  16 S      1.706  1.582  1.772  0.940    88.628    15.845
   2   8 O     -0.728  1.767  4.961  0.000    29.494     7.281
   3   8 O     -0.616  1.760  4.856  0.000    25.545     6.823
   4   8 O     -0.683  1.752  4.932  0.000    28.249     7.126
   5   8 O     -0.617  1.755  4.862  0.000    25.575     6.827
   6   1 H      0.393  0.607  0.000  0.000     0.493     1.100
   7   8 O     -0.583  1.734  4.849  0.000    24.781     6.719
   8   1 H      0.295  0.705  0.000  0.000     0.736     1.347
   9   1 H      0.304  0.696  0.000  0.000     0.709     1.323
  10   8 O     -0.599  1.739  4.860  0.000    25.164     6.770
  11   1 H      0.314  0.686  0.000  0.000     0.680     1.295
  12   1 H      0.298  0.702  0.000  0.000     0.725     1.338
  13   8 O     -0.587  1.748  4.839  0.000    24.881     6.732
  14   1 H      0.334  0.666  0.000  0.000     0.627     1.244
  15   1 H      0.323  0.677  0.000  0.000     0.656     1.272
  16   8 O     -0.594  1.751  4.843  0.000    25.032     6.753
  17   1 H      0.308  0.692  0.000  0.000     0.697     1.311
  18   1 H      0.393  0.607  0.000  0.000     0.494     1.101
  19   1 H      0.338  0.662  0.000  0.000     0.618     1.235

 Mol. C6AA /au·bohr⁶  :       3360.721573
 Mol. C8AA /au·bohr⁸  :      75979.770711
 Mol. α(0) /au        :         83.442490

 
 Wiberg/Mayer (AO) data. WBOs > 0.1 written file <wbo>
 largest (>0.05) Wiberg bond orders for each atom
           total WBO             WBO to atom ...
     1  S   4.826    O    4 1.450    O    2 1.337    O    5 1.011    O    3 0.995
     2  O   1.733    S    1 1.337    O    4 0.122    O    5 0.090    O    3 0.089
     3  O   1.970    S    1 0.995    H   18 0.683    O    4 0.097    O    2 0.089    O    5 0.055
     4  O   1.765    S    1 1.450    O    2 0.122    O    3 0.097    O    5 0.078
     5  O   1.980    S    1 1.011    H    6 0.674    O    2 0.090    O    4 0.078    O    3 0.055    O   13 0.051
     6  H   0.845    O    5 0.674    O   13 0.153
     7  O   1.861    H    8 0.910    H    9 0.897
     8  H   0.913    O    7 0.910
     9  H   0.908    O    7 0.897
    10  O   1.884    H   12 0.908    H   11 0.856    H   19 0.065
    11  H   0.901    O   10 0.856
    12  H   0.911    O   10 0.908
    13  O   1.965    H   15 0.871    H   14 0.856    H    6 0.153    O    5 0.051
    14  H   0.888    O   13 0.856
    15  H   0.896    O   13 0.871
    16  O   1.952    H   17 0.900    H   19 0.819    H   18 0.144
    17  H   0.905    O   16 0.900
    18  H   0.845    O    3 0.683    O   16 0.144
    19  H   0.886    O   16 0.819    O   10 0.065
 MOs/occ written to file <molden.input>
 
molecular dipole:
                 x           y           z       tot (Debye)
 q only:        0.768      -0.442      -0.259
   full:        1.087      -0.836      -0.305       3.572
molecular quadrupole (traceless):
                xx          xy          yy          xz          yz          zz
 q only:        4.540       0.064      -3.142      -4.596      -0.615      -1.398
  q+dip:        4.641      -0.446      -2.332      -2.705      -1.205      -2.308
   full:        5.042      -0.474      -2.607      -3.210      -1.238      -2.435

SCC energy    :     -41.1232435
rep           :       0.2105061
ES            :       0.1861439
AES           :      -0.0391076
AXC           :      -0.0104760
disp          :      -0.0128627
XB            :       0.0000000
fix           :       0.0000000
total E       :     -40.9127193
atomizationE  :       3.7069065     2326.12
(atE without considering molecular charge,
 total energy contains solvation terms)
H-L gap (eV)  :          9.1996
optimized geometry written to: xtbopt.xyz


------------------------------------------------------------------------
 * finished run on 2019/09/03 at 10:57:50.814     
------------------------------------------------------------------------
 total:
 * wall-time:     0 d,  0 h,  0 min,  2.219 sec
 *  cpu-time:     0 d,  0 h,  0 min,  2.010 sec
 * ratio c/w:     0.906 speedup
 SCF:
 * wall-time:     0 d,  0 h,  0 min,  0.095 sec
 *  cpu-time:     0 d,  0 h,  0 min,  0.092 sec
 * ratio c/w:     0.971 speedup
 ANC optimizer:
 * wall-time:     0 d,  0 h,  0 min,  2.098 sec
 *  cpu-time:     0 d,  0 h,  0 min,  1.895 sec
 * ratio c/w:     0.903 speedup

