      -----------------------------------------------------------      
     |                   =====================                   |     
     |                           x T B                           |     
     |                   =====================                   |     
     |                         S. Grimme                         |     
     |          Mulliken Center for Theoretical Chemistry        |     
     |                    University of Bonn                     |     
     |                 Version 6.0.1 (SAW181210)                 |     
      -----------------------------------------------------------      

   This program is distributed in the hope that it will be useful,
   but WITHOUT ANY WARRANTY; without even the implied warranty of
   MERCHANTABILITY or FITNESS FOR A PARTICULAR PURPOSE.
   
   FOR NON-COMMERCIAL, ACADEMIA USE ONLY.
   
   Cite this work as:
   S. Grimme, C. Bannwarth, P. Shushkov, J. Comput. Theory Chem., 2017,
   13, 1989-2009.
   C. Bannwarth, S. Ehlert and S. Grimme., ChemRxiv, 2018, preprint.
   http://doi.org/10.26434/chemrxiv.7246238.v1
   
   for sTDA-xTB:
   S. Grimme and C. Bannwarth, J. Chem. Phys., 2016, 145, 054103.
   
   in the mass-spec context:
   V. Asgeirsson, C. Bauer and S. Grimme, Chem. Sci., 2017, 8, 4879.
   
   if GBSA is used:
   P. Shushkov, F. März and S. Grimme, unpublished.
   
   for ANC optimizer:
   S. Grimme, unpublished.
   Rational Function algorithm used in ANCopt:
   F. Eckert, P. Pulay, H.-J. Werner, J. Comput. Chem., 1997, 18, 1473.
   
   with help from (in alphabetical order)
   C. Bannwarth, F. Bohle, G. Brandenburg, E. Caldeweyher, M. Checinski,
   S. Dohm, S. Ehlert, S. Ehrlich, F. März, H. Neugebauer, J. Pisarek,
   P. Pracht, P. Shushkov, and S. Spicher.
   
 * started run on 2019/09/03 at 10:59:25.046     
========================================================================
 # omp threads = 1
========================================================================
number of atoms            : 19
number of electrons        : 64
charge                     : 0
spin                       : .0
first test random number   : .0736

########################################################################
# WARNING! Please study the warnings concerning your input carefully
#  - XTBPATH is not set, using XTBHOME instead
#  - the use of '-opt' is discouraged, please use '--opt' next time
#  - the use of '-chrg' is discouraged, please use '--chrg' next time
#  - the use of '-uhf' is discouraged, please use '--uhf' next time
########################################################################

           ------------------------------------------------- 
          |                 G F N 2 - x T B                 |
          | Geometry, Frequencies, Noncovalent interactions |
          |            JCTC 2018 parametrisation            |
           ------------------------------------------------- 
      method parameters     
 k(s)        :  1.8500
 k(p)        :  2.2300
 k(d)        :  2.2300
 k(f)        :  2.0000
 kEN (H0ij)  : -2.0000
 D4 a1       :  0.5200
 D4 a2       :  5.0000
 D4 s6       :  1.0000
 D4 s8       :  2.7000
 D4 s9       :  5.0000
 alphaj      :  2.0000


            Z     q(EN)     CN     RAES       Cart. coordinates
     1  S   6.0    0.64    4.29    4.23     1.52321     0.45454     0.58532
     2  O   6.0   -0.30    1.20    1.80     2.19442    -1.81635    -0.93805
     3  O   6.0   -0.31    1.18    1.80    -0.65629     1.77642    -0.61073
     4  O   6.0   -0.30    1.15    1.80     0.82260    -0.33906     3.19443
     5  O   6.0   -0.25    2.10    1.84     3.70187     2.17330     0.69412
     6  H   1.0    0.17    1.28    1.49     4.15394     2.68512    -0.98658
     7  O   6.0   -0.28    2.00    1.83     5.38872     2.85218    -4.02403
     8  H   1.0    0.15    0.97    1.43     6.00497     1.39957    -4.93221
     9  H   1.0    0.15    0.97    1.43     4.92066     4.05804    -5.30522
    10  O   6.0   -0.27    1.97    1.82    -3.85494    -2.20586     4.48025
    11  H   1.0    0.15    0.97    1.43    -4.78132    -0.77242     3.84647
    12  H   1.0    0.16    1.00    1.43    -2.24507    -1.54203     5.01155
    13  O   6.0   -0.25    1.93    1.82    -5.23377     3.43165    -2.35772
    14  H   1.0    0.15    0.97    1.43    -5.58719     4.91019    -1.35591
    15  H   1.0    0.18    1.02    1.43    -3.53219     2.95134    -1.92350
    16  O   6.0   -0.21    2.87    2.48    -1.03729    -5.13393     0.96276
    17  H   1.0    0.15    1.07    1.44    -0.15609    -3.97172    -0.20454
    18  H   1.0    0.12    0.96    1.42    -0.01249    -6.64694     1.35083
    19  H   1.0    0.14    1.00    1.43    -1.61374    -4.26403     2.51276

  Z AO/shell   Hii/eV     exponent
  1     Wed Apr 25 08:07:45 CEST 2018   EN: 2.200 GM2: 0.406  GM3: 0.0800  RAES: 1.40
     1s    -10.707211    1.230000
  8     Wed Apr 25 08:07:45 CEST 2018   EN: 3.440 GM2: 0.452  GM3:-0.0517  RAES: 1.80
     2s    -20.229985    2.439742
     2p    -15.503117    2.137023
 16     Tue Apr 24 11:44:34 CEST 2018   EN: 2.580 GM2: 0.340  GM3:-0.0502  RAES: 3.10
     3s    -20.029654    1.981333
     3p    -11.377694    2.025643
     3d     -0.420282    1.702555
 no old-style atom pair restraining (fixing) potential

molecular fragmentation (1/2 indicates fragments):
1111112222222222222
# atoms in fragment 1/2:     6    13
 fragment masses (1/2) :       97.07       73.07
CMA distance (Bohr)    :   2.894
constraining FC (au)   :  0.0500
           ------------------------------------------------- 
          |        Self-Consistent Charge Iterations        |
           ------------------------------------------------- 

 Ncao       : 52
 Nao        : 51
 Nshell     : 29
 Nel        : 64
 T(el)      :   300.0
 intcut     :    25.0
 scfconv/Eh :  0.100E-05
   qconv/e  :  0.100E-03
 intneglect :  0.100E-07
 broydamp   :      0.250
 iter      E             dE          RMSdq      gap      omega  full diag
   1    -40.9761802 -0.409762E+02  0.769E+00   10.57       0.0  T
   2    -41.0176951 -0.415149E-01  0.554E+00   10.05       1.0  T
   3    -41.0502759 -0.325807E-01  0.144E+00    7.58       1.0  T
   4    -41.0546496 -0.437378E-02  0.607E-01    7.62       1.0  T
   5    -41.0552678 -0.618110E-03  0.321E-01    7.48       1.0  T
   6    -41.0555867 -0.318947E-03  0.146E-01    7.51       1.0  T
   7    -41.0556707 -0.839930E-04  0.543E-02    7.60       1.0  T
   8    -41.0556809 -0.101663E-04  0.318E-02    7.59       1.0  T
   9    -41.0556853 -0.441066E-05  0.135E-02    7.59       1.7  T
  10    -41.0556861 -0.836139E-06  0.279E-03    7.59       8.2  T
  11    -41.0556861 -0.228936E-07  0.109E-03    7.59      21.0  T
  12    -41.0556861 -0.379271E-08  0.546E-04    7.59      42.0  T
  13    -41.0556861 -0.111024E-08  0.117E-04    7.59     196.3  T
speedup  1.04
cpu  time for SCC    0.01 s
wall time for SCC    0.01 s

   *** convergence criteria satisfied after 13 iterations ***

          eigenvalues
 #    :          20         21         22         23         24         25         26         27
 occ. :        2.000      2.000      2.000      2.000      2.000      2.000      2.000      2.000
 eps  :       -13.691    -12.855    -12.646    -12.474    -12.345    -12.172    -11.609    -11.230
 #    :          28         29         30         31         32         33         34         35
 occ. :        2.000      2.000      2.000      2.000      2.000      0.000      0.000      0.000
 eps  :       -10.934    -10.758    -10.584    -10.467    -10.263     -2.676     -0.924      0.273
 #    :          36         37         38         39         40         41         42         43
 occ. :        0.000      0.000      0.000      0.000      0.000      0.000      0.000      0.000
 eps  :         1.525      1.668      1.950      2.370      4.394      4.689      5.994      6.095


   #   Z            q   n(s)   n(p)   n(d)      C6AA      α(0)
   1  16 S      1.543  1.590  1.871  0.996    92.418    16.180
   2   8 O     -0.774  1.775  4.999  0.000    30.810     7.442
   3   8 O     -0.760  1.778  4.982  0.000    30.384     7.390
   4   8 O     -0.754  1.767  4.987  0.000    30.227     7.371
   5   8 O     -0.555  1.716  4.839  0.000    24.099     6.627
   6   1 H      0.384  0.616  0.000  0.000     0.507     1.114
   7   8 O     -0.575  1.738  4.837  0.000    24.592     6.693
   8   1 H      0.306  0.694  0.000  0.000     0.704     1.318
   9   1 H      0.302  0.698  0.000  0.000     0.714     1.328
  10   8 O     -0.598  1.732  4.866  0.000    25.145     6.768
  11   1 H      0.304  0.696  0.000  0.000     0.708     1.322
  12   1 H      0.318  0.682  0.000  0.000     0.670     1.286
  13   8 O     -0.601  1.743  4.858  0.000    25.206     6.776
  14   1 H      0.263  0.737  0.000  0.000     0.843     1.442
  15   1 H      0.317  0.683  0.000  0.000     0.671     1.287
  16   8 O     -0.368  1.630  4.737  0.000    20.183     6.068
  17   1 H      0.425  0.575  0.000  0.000     0.441     1.044
  18   1 H      0.392  0.608  0.000  0.000     0.500     1.111
  19   1 H      0.430  0.570  0.000  0.000     0.434     1.035

 Mol. C6AA /au·bohr⁶  :       3375.881872
 Mol. C8AA /au·bohr⁸  :      76675.601933
 Mol. α(0) /au        :         83.601149

 
 Wiberg/Mayer (AO) data. WBOs > 0.1 written file <wbo>
 largest (>0.05) Wiberg bond orders for each atom
           total WBO             WBO to atom ...
     1  S   4.969    O    4 1.334    O    3 1.317    O    2 1.253    O    5 1.034
     2  O   1.683    S    1 1.253    O    4 0.111    O    3 0.110    H   17 0.097    O    5 0.071
     3  O   1.661    S    1 1.317    O    4 0.114    O    2 0.110    O    5 0.079
     4  O   1.671    S    1 1.334    O    3 0.114    O    2 0.111    O    5 0.058
     5  O   2.049    S    1 1.034    H    6 0.780    O    3 0.079    O    2 0.071    O    4 0.058
     6  H   0.852    O    5 0.780
     7  O   1.874    H    9 0.904    H    8 0.903
     8  H   0.906    O    7 0.903
     9  H   0.908    O    7 0.904
    10  O   1.867    H   11 0.904    H   12 0.874    H   19 0.052
    11  H   0.907    O   10 0.904
    12  H   0.899    O   10 0.874
    13  O   1.817    H   14 0.930    H   15 0.866
    14  H   0.931    O   13 0.930
    15  H   0.899    O   13 0.866
    16  O   2.369    H   18 0.841    H   19 0.751    H   17 0.715
    17  H   0.819    O   16 0.715    O    2 0.097
    18  H   0.846    O   16 0.841
    19  H   0.816    O   16 0.751    O   10 0.052
 MOs/occ written to file <molden.input>
 
molecular dipole:
                 x           y           z       tot (Debye)
 q only:        0.608      -2.621      -0.179
   full:        1.428      -1.934      -0.331       6.167
molecular quadrupole (traceless):
                xx          xy          yy          xz          yz          zz
 q only:      -13.707       5.305      20.369     -15.405      -7.857      -6.662
  q+dip:      -15.203       2.669      20.220     -19.057      -7.322      -5.017
   full:      -15.187       2.629      20.446     -18.996      -7.336      -5.259

SCC energy    :     -41.0556861
rep           :       0.2163198
ES            :       0.2651765
AES           :      -0.0464393
AXC           :      -0.0111685
disp          :      -0.0113184
XB            :       0.0000000
fix           :       0.0000000
total E       :     -40.8392976
atomizationE  :       3.6334848     2280.05
(atE without considering molecular charge,
 total energy contains solvation terms)
H-L gap (eV)  :          7.5870
           ------------------------------------------------- 
          |                 ===============                 |
          |                   A N C O P T                   |
          |                 ===============                 |
          |          Approximate Normal Coordinate          |
          |           Rational Function Optimizer           |
           ------------------------------------------------- 
dumping coords to <xtbopt.coord> and <xtbopt.log>
 optlevel               2
 Maxcycle             380
 Maxmicro              25
 Econv         1.000000000000000E-007
 Gconv         2.000000000000000E-004
 Maxdispl       1.00000000000000     
 Hlow          5.000000000000000E-003
 S6             20.0000000000000     
 Nvar               51

generating ANC from model Hessian ...
 Shifting diagonal of input Hessian by   5.029550254743400E-003
 Lowest  eigenvalues of input Hessian
    0.005000   -0.000000   -0.000000   -0.000000    0.000000    0.000000
    0.000000    0.005094    0.005221    0.005363    0.005426    0.005581
    0.005754    0.006255    0.006501    0.007139    0.007748    0.008337
 Highest eigenvalues
    1.464201    1.541830    1.547913    3.135171    3.208736    3.307646
 
cpu  time for ANC gen    0.00 s
wall time for ANC gen    0.00 s
................................................................................
.............................. CYCLE    1 ......................................
................................................................................
   1    -41.0556861 -0.410557E+02  0.820E-05    7.59       0.0  T
   2    -41.0556861 -0.739675E-11  0.646E-05    7.59     354.9  T
   3    -41.0556861 -0.109139E-10  0.242E-05    7.59     948.5  T
speedup  0.91
cpu  time for SCC    0.00 s
wall time for SCC    0.00 s
speedup  0.95
cpu  time for grad    0.01 s
wall time for grad    0.01 s
 E :    -40.83929755  G :  0.143402    pred/act E change:  0.000D+00  0.290D-07
Maxdispl :   0.3034   ||displ|| :   0.5578   Lambda : -0.249D-01
Largest |displ|/coords:  0.3034 (  24)  0.2077 (  23)  0.2068 (  16)
................................................................................
.............................. CYCLE    2 ......................................
................................................................................
   1    -41.0705705 -0.410706E+02  0.480E-01    8.19       0.0  T
   2    -41.0707987 -0.228218E-03  0.357E-01    8.31       1.0  T
   3    -41.0709100 -0.111280E-03  0.114E-01    8.51       1.0  T
   4    -41.0709302 -0.202262E-04  0.294E-02    8.51       1.0  T
   5    -41.0709314 -0.119540E-05  0.987E-03    8.51       2.3  T
   6    -41.0709315 -0.110202E-06  0.526E-03    8.50       4.4  T
   7    -41.0709316 -0.637931E-07  0.220E-03    8.50      10.4  T
speedup  1.14
cpu  time for SCC    0.00 s
wall time for SCC    0.00 s
speedup  0.98
cpu  time for grad    0.01 s
wall time for grad    0.01 s
 E :    -40.86228970  G :  0.104810    pred/act E change:  0.000D+00 -0.230D-01
Maxdispl :   0.3837   ||displ|| :   0.6002   Lambda : -0.218D-01
Largest |displ|/coords:  0.3837 (  24)  0.2359 (  16)  0.2102 (  22)
................................................................................
.............................. CYCLE    3 ......................................
................................................................................
   1    -41.0793299 -0.410793E+02  0.540E-01    8.68       0.0  T
   2    -41.0800011 -0.671196E-03  0.396E-01    8.70       1.0  T
   3    -41.0803150 -0.313878E-03  0.160E-01    8.70       1.0  T
   4    -41.0803465 -0.315060E-04  0.488E-02    8.70       1.0  T
   5    -41.0803492 -0.267294E-05  0.154E-02    8.70       1.5  T
   6    -41.0803494 -0.250880E-06  0.753E-03    8.70       3.0  T
   7    -41.0803496 -0.112076E-06  0.288E-03    8.70       8.0  T
   8    -41.0803496 -0.217257E-07  0.116E-03    8.70      19.8  T
speedup  1.02
cpu  time for SCC    0.00 s
wall time for SCC    0.00 s
speedup  1.02
cpu  time for grad    0.01 s
wall time for grad    0.01 s
 E :    -40.87945911  G :  0.077639    pred/act E change: -0.163D-01 -0.172D-01
Maxdispl :   0.2881   ||displ|| :   0.5385   Lambda : -0.104D-01
Largest |displ|/coords:  0.2881 (  16)  0.2054 (  11)  0.1794 (  22)
................................................................................
.............................. CYCLE    4 ......................................
................................................................................
   1    -41.0846183 -0.410846E+02  0.359E-01    8.71       0.0  T
   2    -41.0850440 -0.425689E-03  0.262E-01    8.69       1.0  T
   3    -41.0852388 -0.194848E-03  0.117E-01    8.67       1.0  T
   4    -41.0852534 -0.145974E-04  0.318E-02    8.66       1.0  T
   5    -41.0852548 -0.140928E-05  0.102E-02    8.66       2.3  T
   6    -41.0852549 -0.121497E-06  0.515E-03    8.66       4.5  T
   7    -41.0852550 -0.390901E-07  0.173E-03    8.66      13.3  T
speedup  0.93
cpu  time for SCC    0.00 s
wall time for SCC    0.00 s
speedup  0.98
cpu  time for grad    0.01 s
wall time for grad    0.01 s
 E :    -40.88720511  G :  0.053808    pred/act E change: -0.148D-01 -0.775D-02
Maxdispl :   0.1964   ||displ|| :   0.4608   Lambda : -0.511D-02
Largest |displ|/coords:  0.1964 (  18)  0.1482 (   5)  0.1421 (   9)
................................................................................
.............................. CYCLE    5 ......................................
................................................................................
   1    -41.0906542 -0.410907E+02  0.323E-01    8.63       0.0  T
   2    -41.0908206 -0.166415E-03  0.239E-01    8.61       1.0  T
   3    -41.0908988 -0.781936E-04  0.806E-02    8.57       1.0  T
   4    -41.0909113 -0.125020E-04  0.169E-02    8.57       1.4  T
   5    -41.0909119 -0.562033E-06  0.669E-03    8.57       3.4  T
   6    -41.0909119 -0.485586E-07  0.367E-03    8.57       6.3  T
   7    -41.0909120 -0.186271E-07  0.104E-03    8.57      22.0  T
speedup  0.93
cpu  time for SCC    0.00 s
wall time for SCC    0.00 s
speedup  0.99
cpu  time for grad    0.01 s
wall time for grad    0.01 s
 E :    -40.89142503  G :  0.039627    pred/act E change: -0.672D-02 -0.422D-02
Maxdispl :   0.2431   ||displ|| :   0.6703   Lambda : -0.724D-02
Largest |displ|/coords:  0.2431 (  18)  0.2407 (  13)  0.2176 (   5)
................................................................................
.............................. CYCLE    6 ......................................
................................................................................
   1    -41.0982724 -0.410983E+02  0.508E-01    8.39       0.0  T
   2    -41.0985672 -0.294811E-03  0.379E-01    8.35       1.0  T
   3    -41.0987276 -0.160385E-03  0.111E-01    8.27       1.0  T
   4    -41.0987539 -0.263266E-04  0.334E-02    8.27       1.0  T
   5    -41.0987557 -0.182561E-05  0.111E-02    8.27       2.1  T
   6    -41.0987559 -0.152722E-06  0.635E-03    8.27       3.6  T
   7    -41.0987559 -0.513092E-07  0.185E-03    8.27      12.4  T
   8    -41.0987559 -0.592939E-08  0.552E-04    8.27      41.6  T
speedup  0.82
cpu  time for SCC    0.00 s
wall time for SCC    0.00 s
speedup  0.93
cpu  time for grad    0.01 s
wall time for grad    0.01 s
 E :    -40.89561861  G :  0.038695    pred/act E change: -0.310D-02 -0.419D-02
Maxdispl :   0.2077   ||displ|| :   0.5683   Lambda : -0.682D-02
Largest |displ|/coords:  0.2077 (   3)  0.1944 (   9)  0.1889 (  10)
................................................................................
.............................. CYCLE    7 ......................................
................................................................................
   1    -41.1126691 -0.411127E+02  0.547E-01    8.10       0.0  T
   2    -41.1131010 -0.431875E-03  0.411E-01    8.06       1.0  T
   3    -41.1133514 -0.250408E-03  0.141E-01    7.96       1.0  T
   4    -41.1133895 -0.381236E-04  0.401E-02    7.96       1.0  T
   5    -41.1133922 -0.272295E-05  0.153E-02    7.97       1.5  T
   6    -41.1133924 -0.167741E-06  0.800E-03    7.97       2.9  T
   7    -41.1133925 -0.888547E-07  0.180E-03    7.97      12.8  T
   8    -41.1133925 -0.634731E-08  0.561E-04    7.97      40.9  T
speedup  1.00
cpu  time for SCC    0.00 s
wall time for SCC    0.01 s
speedup  1.02
cpu  time for grad    0.01 s
wall time for grad    0.01 s
 E :    -40.89862616  G :  0.042081    pred/act E change: -0.524D-02 -0.301D-02
Maxdispl :   0.3102   ||displ|| :   0.5012   Lambda : -0.427D-02
Largest |displ|/coords:  0.3102 (   8)  0.2045 (   7)  0.1448 (   2)
................................................................................
.............................. CYCLE    8 ......................................
................................................................................
   1    -41.0976756 -0.410977E+02  0.419E-01    7.87       0.0  T
   2    -41.0977558 -0.802492E-04  0.309E-01    7.86       1.0  T
   3    -41.0977987 -0.429041E-04  0.730E-02    7.84       1.0  T
   4    -41.0978074 -0.869691E-05  0.237E-02    7.84       1.0  T
   5    -41.0978082 -0.791796E-06  0.549E-03    7.84       4.2  T
   6    -41.0978083 -0.260488E-07  0.344E-03    7.84       6.7  T
speedup  1.03
cpu  time for SCC    0.00 s
wall time for SCC    0.00 s
speedup  0.92
cpu  time for grad    0.01 s
wall time for grad    0.01 s
 E :    -40.89912006  G :  0.050973    pred/act E change: -0.451D-02 -0.494D-03
Maxdispl :   0.1970   ||displ|| :   0.4778   Lambda : -0.934D-02
Largest |displ|/coords:  0.1970 (   9)  0.1804 (   8)  0.1730 (  12)
................................................................................
.............................. CYCLE    9 ......................................
................................................................................
   1    -41.1279290 -0.411279E+02  0.494E-01    7.90       0.0  T
   2    -41.1280579 -0.128893E-03  0.369E-01    7.91       1.0  T
   3    -41.1281423 -0.844320E-04  0.838E-02    7.93       1.0  T
   4    -41.1281560 -0.137130E-04  0.278E-02    7.92       1.0  T
   5    -41.1281572 -0.114042E-05  0.837E-03    7.92       2.7  T
   6    -41.1281572 -0.338588E-07  0.457E-03    7.92       5.0  T
   7    -41.1281572 -0.284324E-07  0.116E-03    7.92      19.7  T
speedup  1.16
cpu  time for SCC    0.01 s
wall time for SCC    0.00 s
speedup  0.98
cpu  time for grad    0.01 s
wall time for grad    0.01 s
 E :    -40.89921537  G :  0.062645    pred/act E change: -0.267D-02 -0.953D-04
Maxdispl :   0.1411   ||displ|| :   0.3594   Lambda : -0.767D-02
Largest |displ|/coords:  0.1411 (  14)  0.1356 (  11)  0.1112 (   9)
................................................................................
.............................. CYCLE   10 ......................................
................................................................................
   1    -41.1053070 -0.411053E+02  0.505E-01    8.13       0.0  T
   2    -41.1054861 -0.179112E-03  0.371E-01    8.12       1.0  T
   3    -41.1055746 -0.885353E-04  0.959E-02    8.11       1.0  T
   4    -41.1055920 -0.173935E-04  0.268E-02    8.12       1.0  T
   5    -41.1055934 -0.137008E-05  0.771E-03    8.12       3.0  T
   6    -41.1055935 -0.593601E-07  0.460E-03    8.12       5.0  T
   7    -41.1055935 -0.217556E-07  0.127E-03    8.12      18.1  T
speedup  1.16
cpu  time for SCC    0.00 s
wall time for SCC    0.00 s
speedup  1.09
cpu  time for grad    0.01 s
wall time for grad    0.01 s
 E :    -40.90050416  G :  0.047807    pred/act E change: -0.573D-02 -0.129D-02
Maxdispl :   0.1337   ||displ|| :   0.3309   Lambda : -0.555D-02
Largest |displ|/coords:  0.1337 (  14)  0.1314 (  12)  0.1240 (  15)
................................................................................
.............................. CYCLE   11 ......................................
................................................................................
   1    -41.1125235 -0.411125E+02  0.555E-01    8.17       0.0  T
   2    -41.1126990 -0.175429E-03  0.416E-01    8.17       1.0  T
   3    -41.1128040 -0.105023E-03  0.916E-02    8.14       1.0  T
   4    -41.1128264 -0.224059E-04  0.151E-02    8.13       1.5  T
   5    -41.1128267 -0.262637E-06  0.765E-03    8.13       3.0  T
   6    -41.1128267 -0.254277E-07  0.371E-03    8.13       6.2  T
   7    -41.1128267 -0.170699E-07  0.676E-04    8.14      33.9  T
speedup  1.14
cpu  time for SCC    0.00 s
wall time for SCC    0.00 s
speedup  1.08
cpu  time for grad    0.01 s
wall time for grad    0.01 s
 E :    -40.90031720  G :  0.049030    pred/act E change: -0.433D-02  0.187D-03
Maxdispl :   0.1673   ||displ|| :   0.3391   Lambda : -0.537D-02
Largest |displ|/coords:  0.1673 (  17)  0.1319 (   3)  0.1193 (   9)
................................................................................
.............................. CYCLE   12 ......................................
................................................................................
   1    -41.1241872 -0.411242E+02  0.337E-01    8.01       0.0  T
   2    -41.1242411 -0.539019E-04  0.252E-01    8.01       1.0  T
   3    -41.1242819 -0.408478E-04  0.520E-02    8.00       1.0  T
   4    -41.1242879 -0.600313E-05  0.182E-02    8.01       1.3  T
   5    -41.1242884 -0.431026E-06  0.649E-03    8.01       3.5  T
   6    -41.1242884 -0.258570E-07  0.322E-03    8.01       7.1  T
   7    -41.1242884 -0.177867E-07  0.728E-04    8.01      31.5  T
speedup  1.16
cpu  time for SCC    0.00 s
wall time for SCC    0.00 s
speedup  1.08
cpu  time for grad    0.01 s
wall time for grad    0.01 s
 E :    -40.90145686  G :  0.039730    pred/act E change: -0.308D-02 -0.114D-02
Maxdispl :   0.1132   ||displ|| :   0.2388   Lambda : -0.419D-02
Largest |displ|/coords:  0.1132 (  24)  0.0899 (   3)  0.0799 (  12)
................................................................................
.............................. CYCLE   13 ......................................
................................................................................
   1    -41.1198613 -0.411199E+02  0.274E-01    8.01       0.0  T
   2    -41.1199073 -0.459726E-04  0.203E-01    8.03       1.0  T
   3    -41.1199453 -0.380256E-04  0.567E-02    8.07       1.0  T
   4    -41.1199499 -0.455604E-05  0.197E-02    8.08       1.2  T
   5    -41.1199503 -0.418576E-06  0.546E-03    8.07       4.2  T
   6    -41.1199503 -0.404567E-07  0.310E-03    8.07       7.4  T
speedup  1.05
cpu  time for SCC    0.00 s
wall time for SCC    0.00 s
speedup  1.02
cpu  time for grad    0.01 s
wall time for grad    0.01 s
 E :    -40.90142780  G :  0.039782    pred/act E change: -0.300D-02  0.291D-04
Maxdispl :   0.1101   ||displ|| :   0.2681   Lambda : -0.376D-02
Largest |displ|/coords:  0.1101 (  11)  0.0931 (  10)  0.0905 (  17)
................................................................................
.............................. CYCLE   14 ......................................
................................................................................
   1    -41.1141727 -0.411142E+02  0.323E-01    8.23       0.0  T
   2    -41.1142217 -0.489881E-04  0.242E-01    8.21       1.0  T
   3    -41.1142532 -0.314594E-04  0.513E-02    8.16       1.0  T
   4    -41.1142595 -0.630727E-05  0.147E-02    8.17       1.6  T
   5    -41.1142597 -0.227704E-06  0.491E-03    8.17       4.7  T
   6    -41.1142598 -0.225814E-07  0.299E-03    8.17       7.7  T
speedup  1.08
cpu  time for SCC    0.00 s
wall time for SCC    0.00 s
speedup  1.05
cpu  time for grad    0.01 s
wall time for grad    0.01 s
 E :    -40.90288776  G :  0.029225    pred/act E change: -0.221D-02 -0.146D-02
Maxdispl :   0.1038   ||displ|| :   0.2444   Lambda : -0.166D-02
Largest |displ|/coords:  0.1038 (   3)  0.0910 (   5)  0.0904 (   2)
................................................................................
.............................. CYCLE   15 ......................................
................................................................................
   1    -41.1182414 -0.411182E+02  0.218E-01    8.11       0.0  T
   2    -41.1182674 -0.259273E-04  0.163E-01    8.11       1.0  T
   3    -41.1182852 -0.178266E-04  0.335E-02    8.11       1.0  T
   4    -41.1182884 -0.318591E-05  0.106E-02    8.10       2.2  T
   5    -41.1182885 -0.105568E-06  0.391E-03    8.10       5.9  T
   6    -41.1182885 -0.882616E-08  0.208E-03    8.10      11.0  T
speedup  1.11
cpu  time for SCC    0.00 s
wall time for SCC    0.00 s
speedup  1.05
cpu  time for grad    0.01 s
wall time for grad    0.01 s
 E :    -40.90344925  G :  0.019505    pred/act E change: -0.201D-02 -0.561D-03
Maxdispl :   0.1858   ||displ|| :   0.2495   Lambda : -0.888D-03
Largest |displ|/coords:  0.1858 (   3)  0.1182 (   2)  0.0557 (  10)
................................................................................
.............................. CYCLE   16 ......................................
................................................................................
   1    -41.1248193 -0.411248E+02  0.172E-01    8.11       0.0  T
   2    -41.1248297 -0.104850E-04  0.129E-01    8.09       1.0  T
   3    -41.1248374 -0.770938E-05  0.218E-02    8.06       1.1  T
   4    -41.1248387 -0.129080E-05  0.627E-03    8.08       3.7  T
   5    -41.1248388 -0.482916E-07  0.259E-03    8.08       8.8  T
   6    -41.1248388 -0.403673E-08  0.127E-03    8.08      18.1  T
speedup  0.79
cpu  time for SCC    0.00 s
wall time for SCC    0.00 s
speedup  0.92
cpu  time for grad    0.01 s
wall time for grad    0.01 s
 E :    -40.90376530  G :  0.018161    pred/act E change: -0.878D-03 -0.316D-03
Maxdispl :   0.3001   ||displ|| :   0.5047   Lambda : -0.181D-02
Largest |displ|/coords:  0.3001 (   5)  0.2588 (   2)  0.1950 (   3)
................................................................................
.............................. CYCLE   17 ......................................
................................................................................
   1    -41.1172764 -0.411173E+02  0.524E-01    7.98       0.0  T
   2    -41.1173534 -0.770214E-04  0.394E-01    8.03       1.0  T
   3    -41.1174043 -0.508662E-04  0.570E-02    8.15       1.0  T
   4    -41.1174153 -0.110838E-04  0.123E-02    8.11       1.9  T
   5    -41.1174155 -0.162283E-06  0.571E-03    8.10       4.0  T
   6    -41.1174155 -0.193169E-07  0.278E-03    8.10       8.2  T
   7    -41.1174155 -0.872079E-08  0.652E-04    8.11      35.2  T
speedup  1.16
cpu  time for SCC    0.01 s
wall time for SCC    0.00 s
speedup  1.09
cpu  time for grad    0.01 s
wall time for grad    0.01 s
 E :    -40.90296893  G :  0.056027    pred/act E change: -0.472D-03  0.796D-03
Maxdispl :   0.1859   ||displ|| :   0.4291   Lambda : -0.845D-02
Largest |displ|/coords:  0.1859 (   3)  0.1646 (   5)  0.1511 (   6)
................................................................................
.............................. CYCLE   18 ......................................
................................................................................
   1    -41.1217224 -0.411217E+02  0.688E-01    8.38       0.0  T
   2    -41.1219171 -0.194690E-03  0.517E-01    8.30       1.0  T
   3    -41.1220571 -0.140019E-03  0.958E-02    8.13       1.0  T
   4    -41.1220819 -0.247852E-04  0.183E-02    8.22       1.3  T
   5    -41.1220822 -0.290413E-06  0.108E-02    8.22       2.1  T
   6    -41.1220822 -0.428429E-07  0.420E-03    8.22       5.5  T
   7    -41.1220822 -0.274198E-07  0.920E-04    8.21      24.9  T
speedup  1.16
cpu  time for SCC    0.01 s
wall time for SCC    0.00 s
speedup  1.09
cpu  time for grad    0.01 s
wall time for grad    0.01 s
 E :    -40.90259225  G :  0.061302    pred/act E change: -0.114D-02  0.377D-03
Maxdispl :   0.2135   ||displ|| :   0.3794   Lambda : -0.634D-02
Largest |displ|/coords:  0.2135 (   6)  0.1474 (  10)  0.1234 (  16)
................................................................................
.............................. CYCLE   19 ......................................
................................................................................
   1    -41.1250454 -0.411250E+02  0.498E-01    8.07       0.0  T
   2    -41.1251245 -0.790943E-04  0.374E-01    8.12       1.0  T
   3    -41.1251920 -0.675027E-04  0.628E-02    8.21       1.0  T
   4    -41.1252008 -0.881224E-05  0.167E-02    8.18       1.4  T
   5    -41.1252011 -0.299755E-06  0.718E-03    8.17       3.2  T
   6    -41.1252012 -0.308706E-07  0.346E-03    8.17       6.6  T
   7    -41.1252012 -0.224061E-07  0.712E-04    8.17      32.2  T
speedup  0.93
cpu  time for SCC    0.00 s
wall time for SCC    0.00 s
speedup  0.97
cpu  time for grad    0.01 s
wall time for grad    0.01 s
 E :    -40.90421392  G :  0.039699    pred/act E change: -0.500D-02 -0.162D-02
Maxdispl :   0.1539   ||displ|| :   0.2523   Lambda : -0.230D-02
Largest |displ|/coords:  0.1539 (   6)  0.1035 (   2)  0.0837 (  11)
................................................................................
.............................. CYCLE   20 ......................................
................................................................................
   1    -41.1219796 -0.411220E+02  0.254E-01    8.17       0.0  T
   2    -41.1219966 -0.170108E-04  0.191E-01    8.17       1.0  T
   3    -41.1220138 -0.172361E-04  0.294E-02    8.17       1.0  T
   4    -41.1220154 -0.158525E-05  0.116E-02    8.17       2.0  T
   5    -41.1220155 -0.146039E-06  0.356E-03    8.17       6.4  T
   6    -41.1220156 -0.118641E-07  0.186E-03    8.17      12.4  T
speedup  0.81
cpu  time for SCC    0.00 s
wall time for SCC    0.00 s
speedup  0.93
cpu  time for grad    0.01 s
wall time for grad    0.01 s
 E :    -40.90517305  G :  0.023728    pred/act E change: -0.363D-02 -0.959D-03
Maxdispl :   0.1406   ||displ|| :   0.2579   Lambda : -0.116D-02
Largest |displ|/coords:  0.1406 (   2)  0.1241 (   3)  0.0810 (  16)
................................................................................
.............................. CYCLE   21 ......................................
................................................................................
   1    -41.1177252 -0.411177E+02  0.188E-01    8.18       0.0  T
   2    -41.1177370 -0.118469E-04  0.140E-01    8.17       1.0  T
   3    -41.1177476 -0.105577E-04  0.263E-02    8.14       1.0  T
   4    -41.1177488 -0.118559E-05  0.737E-03    8.15       3.1  T
   5    -41.1177488 -0.524310E-07  0.301E-03    8.15       7.6  T
   6    -41.1177488 -0.778563E-08  0.155E-03    8.15      14.8  T
speedup  1.08
cpu  time for SCC    0.00 s
wall time for SCC    0.00 s
speedup  1.05
cpu  time for grad    0.01 s
wall time for grad    0.01 s
 E :    -40.90548553  G :  0.023182    pred/act E change: -0.122D-02 -0.312D-03
Maxdispl :   0.1495   ||displ|| :   0.2514   Lambda : -0.108D-02
Largest |displ|/coords:  0.1495 (   2)  0.1018 (   3)  0.0864 (  13)
................................................................................
.............................. CYCLE   22 ......................................
................................................................................
   1    -41.1198146 -0.411198E+02  0.162E-01    8.19       0.0  T
   2    -41.1198205 -0.593116E-05  0.122E-01    8.19       1.0  T
   3    -41.1198245 -0.395892E-05  0.193E-02    8.18       1.2  T
   4    -41.1198253 -0.829752E-06  0.497E-03    8.18       4.6  T
   5    -41.1198253 -0.277633E-07  0.172E-03    8.18      13.3  T
speedup  0.97
cpu  time for SCC    0.00 s
wall time for SCC    0.00 s
speedup  1.11
cpu  time for grad    0.01 s
wall time for grad    0.01 s
 E :    -40.90623515  G :  0.018008    pred/act E change: -0.620D-03 -0.750D-03
Maxdispl :   0.3169   ||displ|| :   0.5413   Lambda : -0.165D-02
Largest |displ|/coords:  0.3169 (   2)  0.2510 (   3)  0.1370 (  10)
................................................................................
.............................. CYCLE   23 ......................................
................................................................................
   1    -41.1218521 -0.411219E+02  0.327E-01    8.17       0.0  T
   2    -41.1218737 -0.215783E-04  0.246E-01    8.19       1.0  T
   3    -41.1218895 -0.158841E-04  0.346E-02    8.23       1.0  T
   4    -41.1218923 -0.276759E-05  0.735E-03    8.21       3.1  T
   5    -41.1218924 -0.533671E-07  0.317E-03    8.21       7.2  T
   6    -41.1218924 -0.576983E-08  0.156E-03    8.21      14.7  T
   7    -41.1218924 -0.382518E-08  0.479E-04    8.21      47.9  T
speedup  1.14
cpu  time for SCC    0.01 s
wall time for SCC    0.00 s
speedup  1.06
cpu  time for grad    0.01 s
wall time for grad    0.01 s
 E :    -40.90730767  G :  0.025305    pred/act E change: -0.573D-03 -0.107D-02
Maxdispl :   0.3644   ||displ|| :   0.6507   Lambda : -0.204D-02
Largest |displ|/coords:  0.3644 (   2)  0.3601 (   3)  0.1755 (  21)
................................................................................
.............................. CYCLE   24 ......................................
................................................................................
   1    -41.1222665 -0.411223E+02  0.352E-01    8.28       0.0  T
   2    -41.1222875 -0.210231E-04  0.265E-01    8.28       1.0  T
   3    -41.1223051 -0.175469E-04  0.347E-02    8.26       1.0  T
   4    -41.1223075 -0.244614E-05  0.806E-03    8.27       2.8  T
   5    -41.1223076 -0.685762E-07  0.321E-03    8.27       7.1  T
   6    -41.1223076 -0.112345E-07  0.181E-03    8.27      12.6  T
speedup  0.81
cpu  time for SCC    0.00 s
wall time for SCC    0.00 s
speedup  0.92
cpu  time for grad    0.01 s
wall time for grad    0.01 s
 E :    -40.90899490  G :  0.032706    pred/act E change: -0.107D-02 -0.169D-02
Maxdispl :   0.4800   ||displ|| :   0.6931   Lambda : -0.325D-02
Largest |displ|/coords:  0.4800 (   3)  0.2370 (   2)  0.2264 (  21)
................................................................................
.............................. CYCLE   25 ......................................
................................................................................
   1    -41.1277700 -0.411278E+02  0.366E-01    8.48       0.0  T
   2    -41.1278098 -0.398448E-04  0.272E-01    8.45       1.0  T
   3    -41.1278350 -0.252187E-04  0.497E-02    8.41       1.0  T
   4    -41.1278399 -0.491965E-05  0.135E-02    8.43       1.7  T
   5    -41.1278403 -0.314315E-06  0.453E-03    8.44       5.1  T
   6    -41.1278403 -0.179146E-07  0.278E-03    8.44       8.3  T
speedup  1.05
cpu  time for SCC    0.00 s
wall time for SCC    0.00 s
speedup  1.02
cpu  time for grad    0.01 s
wall time for grad    0.01 s
 E :    -40.91135347  G :  0.027979    pred/act E change: -0.145D-02 -0.236D-02
Maxdispl :   0.5401   ||displ|| :   0.7329   Lambda : -0.395D-02
Largest |displ|/coords:  0.5401 (   3)  0.1900 (  19)  0.1768 (   2)

generating ANC from model Hessian ...
 Shifting diagonal of input Hessian by   5.022409844253409E-003
 Lowest  eigenvalues of input Hessian
    0.005000   -0.000000   -0.000000    0.000000    0.000000    0.000000
    0.000000    0.005077    0.005695    0.006005    0.006316    0.006685
    0.007770    0.008240    0.009562    0.009960    0.012160    0.017069
 Highest eigenvalues
    1.352208    1.388386    1.393457    2.580179    3.273660    3.782159
 
cpu  time for ANC gen    0.00 s
wall time for ANC gen    0.01 s
................................................................................
.............................. CYCLE   26 ......................................
................................................................................
   1    -41.1148037 -0.411148E+02  0.483E-01    8.38       0.0  T
   2    -41.1148704 -0.666971E-04  0.365E-01    8.41       1.0  T
   3    -41.1149322 -0.618478E-04  0.541E-02    8.47       1.0  T
   4    -41.1149404 -0.819550E-05  0.173E-02    8.46       1.3  T
   5    -41.1149407 -0.266476E-06  0.722E-03    8.46       3.2  T
   6    -41.1149407 -0.479520E-07  0.378E-03    8.46       6.1  T
   7    -41.1149408 -0.202941E-07  0.109E-03    8.46      21.1  T
   8    -41.1149408 -0.238350E-08  0.373E-04    8.46      61.5  T
   9    -41.1149408 -0.463864E-09  0.207E-04    8.46     111.0  T
speedup  0.91
cpu  time for SCC    0.00 s
wall time for SCC    0.01 s
speedup  0.91
cpu  time for grad    0.01 s
wall time for grad    0.01 s
 E :    -40.91368275  G :  0.042126    pred/act E change:  0.000D+00 -0.233D-02
Maxdispl :   0.1481   ||displ|| :   0.3460   Lambda : -0.420D-02
Largest |displ|/coords:  0.1481 (  10)  0.1198 (   7)  0.1128 (  14)
................................................................................
.............................. CYCLE   27 ......................................
................................................................................
   1    -41.1213293 -0.411213E+02  0.466E-01    8.47       0.0  T
   2    -41.1213685 -0.392033E-04  0.354E-01    8.47       1.0  T
   3    -41.1214009 -0.323972E-04  0.439E-02    8.48       1.0  T
   4    -41.1214061 -0.519352E-05  0.127E-02    8.48       1.8  T
   5    -41.1214064 -0.219601E-06  0.436E-03    8.48       5.3  T
   6    -41.1214064 -0.428462E-08  0.227E-03    8.48      10.1  T
speedup  1.03
cpu  time for SCC    0.00 s
wall time for SCC    0.00 s
speedup  0.99
cpu  time for grad    0.01 s
wall time for grad    0.01 s
 E :    -40.91611003  G :  0.029101    pred/act E change:  0.000D+00 -0.243D-02
Maxdispl :   0.1938   ||displ|| :   0.3620   Lambda : -0.282D-02
Largest |displ|/coords:  0.1938 (   7)  0.1923 (  12)  0.0997 (  13)
................................................................................
.............................. CYCLE   28 ......................................
................................................................................
   1    -41.1313704 -0.411314E+02  0.352E-01    8.58       0.0  T
   2    -41.1314009 -0.305332E-04  0.267E-01    8.59       1.0  T
   3    -41.1314273 -0.263498E-04  0.385E-02    8.60       1.0  T
   4    -41.1314310 -0.375049E-05  0.113E-02    8.61       2.0  T
   5    -41.1314312 -0.145373E-06  0.415E-03    8.61       5.5  T
   6    -41.1314312 -0.671437E-08  0.218E-03    8.61      10.5  T
speedup  1.05
cpu  time for SCC    0.00 s
wall time for SCC    0.00 s
speedup  1.01
cpu  time for grad    0.01 s
wall time for grad    0.01 s
 E :    -40.91719061  G :  0.026310    pred/act E change: -0.235D-02 -0.108D-02
Maxdispl :   0.1565   ||displ|| :   0.2443   Lambda : -0.131D-02
Largest |displ|/coords:  0.1565 (   7)  0.0857 (  10)  0.0769 (   6)
................................................................................
.............................. CYCLE   29 ......................................
................................................................................
   1    -41.1319498 -0.411319E+02  0.190E-01    8.62       0.0  T
   2    -41.1319646 -0.147938E-04  0.141E-01    8.63       1.0  T
   3    -41.1319739 -0.929532E-05  0.261E-02    8.63       1.0  T
   4    -41.1319759 -0.196182E-05  0.604E-03    8.63       3.8  T
   5    -41.1319759 -0.356843E-07  0.297E-03    8.63       7.7  T
   6    -41.1319759 -0.673892E-08  0.140E-03    8.63      16.4  T
speedup  1.08
cpu  time for SCC    0.00 s
wall time for SCC    0.00 s
speedup  1.02
cpu  time for grad    0.01 s
wall time for grad    0.01 s
 E :    -40.91795587  G :  0.013744    pred/act E change: -0.159D-02 -0.765D-03
Maxdispl :   0.2161   ||displ|| :   0.3643   Lambda : -0.111D-02
Largest |displ|/coords:  0.2161 (   7)  0.1347 (  10)  0.1144 (   5)
................................................................................
.............................. CYCLE   30 ......................................
................................................................................
   1    -41.1227882 -0.411228E+02  0.312E-01    8.58       0.0  T
   2    -41.1228101 -0.219696E-04  0.236E-01    8.58       1.0  T
   3    -41.1228282 -0.180961E-04  0.339E-02    8.58       1.0  T
   4    -41.1228311 -0.286773E-05  0.129E-02    8.58       1.8  T
   5    -41.1228313 -0.195215E-06  0.410E-03    8.58       5.6  T
   6    -41.1228313 -0.101785E-07  0.237E-03    8.58       9.7  T
   7    -41.1228313 -0.851512E-08  0.500E-04    8.58      45.8  T
speedup  0.93
cpu  time for SCC    0.00 s
wall time for SCC    0.00 s
speedup  0.95
cpu  time for grad    0.01 s
wall time for grad    0.01 s
 E :    -40.91828341  G :  0.020671    pred/act E change: -0.693D-03 -0.328D-03
Maxdispl :   0.0766   ||displ|| :   0.1336   Lambda : -0.654D-03
Largest |displ|/coords:  0.0766 (   8)  0.0614 (   2)  0.0370 (  17)
................................................................................
.............................. CYCLE   31 ......................................
................................................................................
   1    -41.1266550 -0.411267E+02  0.108E-01    8.62       0.0  T
   2    -41.1266608 -0.579983E-05  0.819E-02    8.63       1.0  T
   3    -41.1266651 -0.421441E-05  0.153E-02    8.64       1.5  T
   4    -41.1266659 -0.831800E-06  0.423E-03    8.64       5.4  T
   5    -41.1266659 -0.224504E-07  0.183E-03    8.64      12.5  T
speedup  0.94
cpu  time for SCC    0.00 s
wall time for SCC    0.00 s
speedup  1.07
cpu  time for grad    0.01 s
wall time for grad    0.01 s
 E :    -40.91865882  G :  0.008593    pred/act E change: -0.630D-03 -0.375D-03
Maxdispl :   0.0879   ||displ|| :   0.1876   Lambda : -0.356D-03
Largest |displ|/coords:  0.0879 (   7)  0.0746 (   2)  0.0593 (   5)
................................................................................
.............................. CYCLE   32 ......................................
................................................................................
   1    -41.1278424 -0.411278E+02  0.141E-01    8.66       0.0  T
   2    -41.1278482 -0.572636E-05  0.107E-01    8.67       1.0  T
   3    -41.1278528 -0.469569E-05  0.158E-02    8.69       1.4  T
   4    -41.1278536 -0.800321E-06  0.574E-03    8.69       4.0  T
   5    -41.1278537 -0.306627E-07  0.215E-03    8.69      10.7  T
   6    -41.1278537 -0.321705E-08  0.115E-03    8.69      20.0  T
speedup  1.08
cpu  time for SCC    0.00 s
wall time for SCC    0.00 s
speedup  1.01
cpu  time for grad    0.01 s
wall time for grad    0.01 s
 E :    -40.91886844  G :  0.011586    pred/act E change: -0.333D-03 -0.210D-03
Maxdispl :   0.1572   ||displ|| :   0.2605   Lambda : -0.316D-03
Largest |displ|/coords:  0.1572 (   2)  0.1050 (   7)  0.0924 (  10)
................................................................................
.............................. CYCLE   33 ......................................
................................................................................
   1    -41.1264938 -0.411265E+02  0.160E-01    8.68       0.0  T
   2    -41.1265002 -0.639269E-05  0.121E-01    8.69       1.0  T
   3    -41.1265047 -0.447308E-05  0.180E-02    8.72       1.3  T
   4    -41.1265057 -0.102268E-05  0.661E-03    8.71       3.5  T
   5    -41.1265058 -0.580623E-07  0.198E-03    8.71      11.6  T
   6    -41.1265058 -0.266814E-08  0.119E-03    8.71      19.4  T
speedup  1.08
cpu  time for SCC    0.00 s
wall time for SCC    0.00 s
speedup  1.01
cpu  time for grad    0.01 s
wall time for grad    0.01 s
 E :    -40.91906975  G :  0.008771    pred/act E change: -0.184D-03 -0.201D-03
Maxdispl :   0.0739   ||displ|| :   0.1391   Lambda : -0.199D-03
Largest |displ|/coords:  0.0739 (  10)  0.0660 (   2)  0.0428 (   3)
................................................................................
.............................. CYCLE   34 ......................................
................................................................................
   1    -41.1268440 -0.411268E+02  0.902E-02    8.70       0.0  T
   2    -41.1268473 -0.328396E-05  0.679E-02    8.70       1.0  T
   3    -41.1268490 -0.174501E-05  0.130E-02    8.72       1.8  T
   4    -41.1268495 -0.517810E-06  0.434E-03    8.72       5.3  T
   5    -41.1268496 -0.311570E-07  0.139E-03    8.72      16.6  T
   6    -41.1268496 -0.165065E-08  0.809E-04    8.72      28.4  T
speedup  1.05
cpu  time for SCC    0.00 s
wall time for SCC    0.00 s
speedup  1.00
cpu  time for grad    0.01 s
wall time for grad    0.01 s
 E :    -40.91918513  G :  0.006448    pred/act E change: -0.169D-03 -0.115D-03
Maxdispl :   0.0667   ||displ|| :   0.1440   Lambda : -0.137D-03
Largest |displ|/coords:  0.0667 (   6)  0.0642 (  10)  0.0511 (   7)
................................................................................
.............................. CYCLE   35 ......................................
................................................................................
   1    -41.1246225 -0.411246E+02  0.130E-01    8.70       0.0  T
   2    -41.1246257 -0.318230E-05  0.982E-02    8.71       1.0  T
   3    -41.1246282 -0.252462E-05  0.130E-02    8.72       1.8  T
   4    -41.1246287 -0.473978E-06  0.513E-03    8.72       4.5  T
   5    -41.1246287 -0.245180E-07  0.146E-03    8.72      15.7  T
   6    -41.1246287 -0.216184E-08  0.893E-04    8.72      25.7  T
speedup  1.08
cpu  time for SCC    0.00 s
wall time for SCC    0.00 s
speedup  1.00
cpu  time for grad    0.01 s
wall time for grad    0.01 s
 E :    -40.91922792  G :  0.007805    pred/act E change: -0.102D-03 -0.428D-04
Maxdispl :   0.0329   ||displ|| :   0.0776   Lambda : -0.106D-03
Largest |displ|/coords:  0.0329 (   4)  0.0288 (   7)  0.0281 (   2)
................................................................................
.............................. CYCLE   36 ......................................
................................................................................
   1    -41.1263761 -0.411264E+02  0.683E-02    8.72       0.0  T
   2    -41.1263773 -0.126124E-05  0.509E-02    8.71       1.0  T
   3    -41.1263781 -0.780504E-06  0.923E-03    8.71       2.5  T
   4    -41.1263783 -0.167653E-06  0.308E-03    8.71       7.4  T
   5    -41.1263783 -0.123595E-07  0.852E-04    8.71      26.9  T
   6    -41.1263783 -0.535564E-09  0.470E-04    8.71      48.8  T
speedup  0.81
cpu  time for SCC    0.00 s
wall time for SCC    0.00 s
speedup  1.01
cpu  time for grad    0.01 s
wall time for grad    0.01 s
 E :    -40.91928146  G :  0.003992    pred/act E change: -0.701D-04 -0.535D-04
Maxdispl :   0.0277   ||displ|| :   0.0671   Lambda : -0.591D-04
Largest |displ|/coords:  0.0277 (   7)  0.0276 (   2)  0.0190 (   3)
................................................................................
.............................. CYCLE   37 ......................................
................................................................................
   1    -41.1276876 -0.411277E+02  0.667E-02    8.72       0.0  T
   2    -41.1276885 -0.902659E-06  0.501E-02    8.72       1.0  T
   3    -41.1276892 -0.679978E-06  0.705E-03    8.71       3.3  T
   4    -41.1276893 -0.119841E-06  0.195E-03    8.71      11.8  T
   5    -41.1276893 -0.524897E-08  0.776E-04    8.71      29.6  T
   6    -41.1276893 -0.344983E-09  0.428E-04    8.71      53.6  T
speedup  1.05
cpu  time for SCC    0.00 s
wall time for SCC    0.00 s
speedup  0.97
cpu  time for grad    0.01 s
wall time for grad    0.01 s
 E :    -40.91930316  G :  0.006189    pred/act E change: -0.532D-04 -0.217D-04
Maxdispl :   0.0225   ||displ|| :   0.0605   Lambda : -0.692D-04
Largest |displ|/coords:  0.0225 (  18)  0.0225 (  14)  0.0197 (   8)
................................................................................
.............................. CYCLE   38 ......................................
................................................................................
   1    -41.1275253 -0.411275E+02  0.587E-02    8.72       0.0  T
   2    -41.1275257 -0.394497E-06  0.437E-02    8.72       1.0  T
   3    -41.1275260 -0.256758E-06  0.535E-03    8.72       4.3  T
   4    -41.1275260 -0.526746E-07  0.150E-03    8.72      15.3  T
   5    -41.1275260 -0.308114E-08  0.518E-04    8.72      44.3  T
speedup  0.97
cpu  time for SCC    0.00 s
wall time for SCC    0.00 s
speedup  0.96
cpu  time for grad    0.01 s
wall time for grad    0.01 s
 E :    -40.91934518  G :  0.004171    pred/act E change: -0.297D-04 -0.420D-04
Maxdispl :   0.0528   ||displ|| :   0.1150   Lambda : -0.729D-04
Largest |displ|/coords:  0.0528 (   6)  0.0446 (  10)  0.0373 (   5)
................................................................................
.............................. CYCLE   39 ......................................
................................................................................
   1    -41.1262782 -0.411263E+02  0.104E-01    8.71       0.0  T
   2    -41.1262790 -0.794741E-06  0.783E-02    8.71       1.0  T
   3    -41.1262800 -0.103192E-05  0.610E-03    8.71       3.8  T
   4    -41.1262801 -0.436652E-07  0.222E-03    8.71      10.3  T
   5    -41.1262801 -0.494331E-08  0.920E-04    8.71      24.9  T
speedup  0.94
cpu  time for SCC    0.00 s
wall time for SCC    0.00 s
speedup  1.01
cpu  time for grad    0.01 s
wall time for grad    0.01 s
 E :    -40.91937852  G :  0.005097    pred/act E change: -0.347D-04 -0.333D-04
Maxdispl :   0.0271   ||displ|| :   0.0502   Lambda : -0.503D-04
Largest |displ|/coords:  0.0271 (   2)  0.0202 (  11)  0.0168 (   9)
................................................................................
.............................. CYCLE   40 ......................................
................................................................................
   1    -41.1266496 -0.411266E+02  0.431E-02    8.71       0.0  T
   2    -41.1266499 -0.251591E-06  0.324E-02    8.71       1.0  T
   3    -41.1266501 -0.185714E-06  0.378E-03    8.71       6.1  T
   4    -41.1266501 -0.365972E-07  0.142E-03    8.71      16.2  T
   5    -41.1266501 -0.214436E-08  0.412E-04    8.71      55.8  T
speedup  0.94
cpu  time for SCC    0.00 s
wall time for SCC    0.00 s
speedup  0.95
cpu  time for grad    0.01 s
wall time for grad    0.01 s
 E :    -40.91941478  G :  0.003829    pred/act E change: -0.369D-04 -0.363D-04
Maxdispl :   0.0390   ||displ|| :   0.0884   Lambda : -0.538D-04
Largest |displ|/coords:  0.0390 (   6)  0.0371 (   2)  0.0293 (  11)
................................................................................
.............................. CYCLE   41 ......................................
................................................................................
   1    -41.1267724 -0.411268E+02  0.801E-02    8.71       0.0  T
   2    -41.1267729 -0.507819E-06  0.600E-02    8.71       1.0  T
   3    -41.1267733 -0.355131E-06  0.617E-03    8.71       3.7  T
   4    -41.1267734 -0.742342E-07  0.231E-03    8.71       9.9  T
   5    -41.1267734 -0.366092E-08  0.595E-04    8.71      38.6  T
   6    -41.1267734 -0.217653E-09  0.373E-04    8.71      61.5  T
speedup  1.08
cpu  time for SCC    0.00 s
wall time for SCC    0.00 s
speedup  1.09
cpu  time for grad    0.01 s
wall time for grad    0.01 s
 E :    -40.91945109  G :  0.003185    pred/act E change: -0.252D-04 -0.363D-04
Maxdispl :   0.0555   ||displ|| :   0.0930   Lambda : -0.402D-04
Largest |displ|/coords:  0.0555 (   6)  0.0468 (   2)  0.0243 (  14)
................................................................................
.............................. CYCLE   42 ......................................
................................................................................
   1    -41.1268211 -0.411268E+02  0.779E-02    8.71       0.0  T
   2    -41.1268216 -0.458822E-06  0.580E-02    8.71       1.0  T
   3    -41.1268220 -0.393755E-06  0.669E-03    8.70       3.4  T
   4    -41.1268220 -0.516485E-07  0.225E-03    8.71      10.2  T
   5    -41.1268220 -0.464738E-08  0.659E-04    8.71      34.8  T
   6    -41.1268220 -0.283890E-09  0.409E-04    8.71      56.1  T
speedup  0.81
cpu  time for SCC    0.00 s
wall time for SCC    0.00 s
speedup  0.98
cpu  time for grad    0.01 s
wall time for grad    0.01 s
 E :    -40.91947819  G :  0.003432    pred/act E change: -0.271D-04 -0.271D-04
Maxdispl :   0.0639   ||displ|| :   0.0955   Lambda : -0.399D-04
Largest |displ|/coords:  0.0639 (   2)  0.0503 (   6)  0.0207 (  29)
................................................................................
.............................. CYCLE   43 ......................................
................................................................................
   1    -41.1272572 -0.411273E+02  0.717E-02    8.71       0.0  T
   2    -41.1272577 -0.542261E-06  0.528E-02    8.71       1.0  T
   3    -41.1272581 -0.361262E-06  0.769E-03    8.71       3.0  T
   4    -41.1272582 -0.693810E-07  0.254E-03    8.71       9.0  T
   5    -41.1272582 -0.584188E-08  0.645E-04    8.71      35.6  T
   6    -41.1272582 -0.283386E-09  0.413E-04    8.71      55.5  T
speedup  1.08
cpu  time for SCC    0.00 s
wall time for SCC    0.00 s
speedup  0.98
cpu  time for grad    0.01 s
wall time for grad    0.01 s
 E :    -40.91950203  G :  0.002388    pred/act E change: -0.203D-04 -0.238D-04
Maxdispl :   0.0953   ||displ|| :   0.1493   Lambda : -0.363D-04
Largest |displ|/coords:  0.0953 (   6)  0.0762 (   2)  0.0444 (   5)
................................................................................
.............................. CYCLE   44 ......................................
................................................................................
   1    -41.1266460 -0.411266E+02  0.116E-01    8.72       0.0  T
   2    -41.1266468 -0.815204E-06  0.868E-02    8.72       1.0  T
   3    -41.1266477 -0.879667E-06  0.801E-03    8.71       2.9  T
   4    -41.1266477 -0.669329E-07  0.267E-03    8.71       8.6  T
   5    -41.1266477 -0.610703E-08  0.944E-04    8.71      24.3  T
   6    -41.1266477 -0.596380E-09  0.497E-04    8.71      46.1  T
speedup  1.08
cpu  time for SCC    0.00 s
wall time for SCC    0.00 s
speedup  0.98
cpu  time for grad    0.01 s
wall time for grad    0.01 s
 E :    -40.91950336  G :  0.006011    pred/act E change: -0.201D-04 -0.133D-05
Maxdispl :   0.0294   ||displ|| :   0.0520   Lambda : -0.483D-04
Largest |displ|/coords:  0.0294 (   6)  0.0177 (  11)  0.0150 (  14)
................................................................................
.............................. CYCLE   45 ......................................
................................................................................
   1    -41.1275502 -0.411276E+02  0.510E-02    8.72       0.0  T
   2    -41.1275505 -0.295612E-06  0.381E-02    8.72       1.0  T
   3    -41.1275507 -0.244547E-06  0.478E-03    8.72       4.8  T
   4    -41.1275507 -0.303500E-07  0.108E-03    8.72      21.2  T
   5    -41.1275507 -0.103278E-08  0.445E-04    8.72      51.5  T
speedup  0.97
cpu  time for SCC    0.00 s
wall time for SCC    0.00 s
speedup  0.96
cpu  time for grad    0.01 s
wall time for grad    0.01 s
 E :    -40.91952670  G :  0.001851    pred/act E change: -0.186D-04 -0.233D-04
Maxdispl :   0.0141   ||displ|| :   0.0284   Lambda : -0.785D-05
Largest |displ|/coords:  0.0141 (   2)  0.0130 (   5)  0.0114 (   6)
................................................................................
.............................. CYCLE   46 ......................................
................................................................................
   1    -41.1273904 -0.411274E+02  0.233E-02    8.72       0.0  T
   2    -41.1273905 -0.638452E-07  0.174E-02    8.72       1.3  T
   3    -41.1273905 -0.534345E-07  0.184E-03    8.72      12.4  T
   4    -41.1273905 -0.836239E-08  0.624E-04    8.72      36.8  T
   5    -41.1273905 -0.369454E-09  0.242E-04    8.72      94.9  T
speedup  1.29
cpu  time for SCC    0.00 s
wall time for SCC    0.00 s
speedup  1.02
cpu  time for grad    0.01 s
wall time for grad    0.01 s
 E :    -40.91953275  G :  0.001645    pred/act E change: -0.242D-04 -0.605D-05
Maxdispl :   0.0491   ||displ|| :   0.0898   Lambda : -0.166D-04
Largest |displ|/coords:  0.0491 (   2)  0.0400 (   5)  0.0362 (   6)
................................................................................
.............................. CYCLE   47 ......................................
................................................................................
   1    -41.1271770 -0.411272E+02  0.632E-02    8.72       0.0  T
   2    -41.1271773 -0.332585E-06  0.475E-02    8.72       1.0  T
   3    -41.1271776 -0.299980E-06  0.428E-03    8.72       5.4  T
   4    -41.1271776 -0.394924E-07  0.196E-03    8.72      11.7  T
   5    -41.1271776 -0.293828E-08  0.541E-04    8.72      42.4  T
   6    -41.1271776 -0.213660E-09  0.336E-04    8.72      68.3  T
speedup  1.05
cpu  time for SCC    0.00 s
wall time for SCC    0.00 s
speedup  1.09
cpu  time for grad    0.01 s
wall time for grad    0.01 s
 E :    -40.91954192  G :  0.001409    pred/act E change: -0.393D-05 -0.917D-05
Maxdispl :   0.0116   ||displ|| :   0.0273   Lambda : -0.468D-05
Largest |displ|/coords:  0.0116 (   5)  0.0113 (   6)  0.0112 (   2)
................................................................................
.............................. CYCLE   48 ......................................
................................................................................
   1    -41.1271060 -0.411271E+02  0.224E-02    8.71       0.0  T
   2    -41.1271060 -0.448543E-07  0.169E-02    8.71       1.4  T
   3    -41.1271061 -0.494706E-07  0.161E-03    8.71      14.2  T
   4    -41.1271061 -0.449886E-08  0.775E-04    8.71      29.6  T
   5    -41.1271061 -0.383004E-09  0.202E-04    8.71     113.5  T
speedup  0.94
cpu  time for SCC    0.00 s
wall time for SCC    0.00 s
speedup  0.92
cpu  time for grad    0.01 s
wall time for grad    0.01 s
 E :    -40.91954534  G :  0.001135    pred/act E change: -0.835D-05 -0.342D-05
Maxdispl :   0.0161   ||displ|| :   0.0367   Lambda : -0.553D-05
Largest |displ|/coords:  0.0161 (   9)  0.0145 (   7)  0.0127 (   5)
................................................................................
.............................. CYCLE   49 ......................................
................................................................................
   1    -41.1272041 -0.411272E+02  0.270E-02    8.71       0.0  T
   2    -41.1272042 -0.974310E-07  0.203E-02    8.71       1.1  T
   3    -41.1272042 -0.691905E-07  0.267E-03    8.71       8.6  T
   4    -41.1272042 -0.153504E-07  0.111E-03    8.71      20.6  T
   5    -41.1272042 -0.656989E-09  0.226E-04    8.71     101.3  T
   6    -41.1272042 -0.337010E-10  0.147E-04    8.71     156.5  T
speedup  1.08
cpu  time for SCC    0.00 s
wall time for SCC    0.00 s
speedup  1.09
cpu  time for grad    0.01 s
wall time for grad    0.01 s
 E :    -40.91954855  G :  0.000616    pred/act E change: -0.234D-05 -0.321D-05
Maxdispl :   0.0076   ||displ|| :   0.0173   Lambda : -0.126D-05
Largest |displ|/coords:  0.0076 (   6)  0.0076 (   7)  0.0051 (   3)
................................................................................
.............................. CYCLE   50 ......................................
................................................................................
   1    -41.1272081 -0.411272E+02  0.111E-02    8.71       0.0  T
   2    -41.1272081 -0.176266E-07  0.835E-03    8.71       2.7  T
   3    -41.1272081 -0.134478E-07  0.104E-03    8.71      22.2  T
   4    -41.1272081 -0.268330E-08  0.366E-04    8.71      62.6  T
   5    -41.1272081 -0.123002E-09  0.945E-05    8.71     242.7  T
speedup  0.94
cpu  time for SCC    0.00 s
wall time for SCC    0.00 s
speedup  0.92
cpu  time for grad    0.01 s
wall time for grad    0.01 s
 E :    -40.91954938  G :  0.000503    pred/act E change: -0.277D-05 -0.831D-06
Maxdispl :   0.0048   ||displ|| :   0.0092   Lambda : -0.667D-06
Largest |displ|/coords:  0.0048 (   3)  0.0041 (  11)  0.0030 (   9)
................................................................................
.............................. CYCLE   51 ......................................
................................................................................
   1    -41.1272548 -0.411273E+02  0.645E-03    8.71       0.0  T
   2    -41.1272548 -0.845155E-08  0.481E-03    8.71       4.8  T
   3    -41.1272548 -0.556572E-08  0.857E-04    8.71      26.8  T
   4    -41.1272548 -0.115416E-08  0.285E-04    8.71      80.5  T
speedup  1.20
cpu  time for SCC    0.00 s
wall time for SCC    0.00 s
speedup  1.00
cpu  time for grad    0.01 s
wall time for grad    0.01 s
 E :    -40.91954982  G :  0.000362    pred/act E change: -0.631D-06 -0.439D-06
Maxdispl :   0.0032   ||displ|| :   0.0056   Lambda : -0.272D-06
Largest |displ|/coords:  0.0032 (   2)  0.0021 (   3)  0.0020 (   6)
................................................................................
.............................. CYCLE   52 ......................................
................................................................................
   1    -41.1272682 -0.411273E+02  0.429E-03    8.71       0.0  T
   2    -41.1272682 -0.307298E-08  0.321E-03    8.71       7.1  T
   3    -41.1272683 -0.246510E-08  0.474E-04    8.71      48.5  T
   4    -41.1272683 -0.368757E-09  0.207E-04    8.71     110.8  T
speedup  1.15
cpu  time for SCC    0.00 s
wall time for SCC    0.00 s
speedup  0.99
cpu  time for grad    0.01 s
wall time for grad    0.01 s
 E :    -40.91955002  G :  0.000212    pred/act E change: -0.334D-06 -0.197D-06
Maxdispl :   0.0040   ||displ|| :   0.0067   Lambda : -0.194D-06
Largest |displ|/coords:  0.0040 (   2)  0.0033 (   6)  0.0028 (   4)

generating ANC from model Hessian ...
 Shifting diagonal of input Hessian by   4.970224075684909E-003
 Lowest  eigenvalues of input Hessian
   -0.000000   -0.000000   -0.000000    0.000000    0.000000    0.000000
    0.005000    0.005380    0.005922    0.006477    0.007189    0.007518
    0.009484    0.009840    0.012228    0.013648    0.015515    0.017762
 Highest eigenvalues
    1.376834    1.411796    1.414206    2.669923    3.283622    3.789717
 
cpu  time for ANC gen    0.01 s
wall time for ANC gen    0.01 s
................................................................................
.............................. CYCLE   53 ......................................
................................................................................
   1    -41.1272667 -0.411273E+02  0.467E-03    8.71       0.0  T
   2    -41.1272667 -0.316452E-08  0.352E-03    8.71       6.5  T
   3    -41.1272667 -0.311412E-08  0.415E-04    8.71      55.3  T
   4    -41.1272667 -0.322245E-09  0.223E-04    8.71     102.9  T
speedup  1.15
cpu  time for SCC    0.00 s
wall time for SCC    0.00 s
speedup  1.12
cpu  time for grad    0.01 s
wall time for grad    0.01 s
 E :    -40.91955015  G :  0.000173    pred/act E change:  0.000D+00 -0.139D-06
Maxdispl :   0.0015   ||displ|| :   0.0027   Lambda : -0.120D-06
Largest |displ|/coords:  0.0015 (   5)  0.0013 (   3)  0.0009 (  11)
................................................................................
.............................. CYCLE   54 ......................................
................................................................................
   1    -41.1272606 -0.411273E+02  0.268E-03    8.71       0.0  T
   2    -41.1272606 -0.113295E-08  0.204E-03    8.71      11.2  T
   3    -41.1272606 -0.158953E-08  0.198E-04    8.71     116.1  T
   4    -41.1272606 -0.331326E-10  0.495E-05    8.71     463.3  T
speedup  0.80
cpu  time for SCC    0.00 s
wall time for SCC    0.00 s
speedup  0.87
cpu  time for grad    0.01 s
wall time for grad    0.01 s
 E :    -40.91955023  G :  0.000096    pred/act E change:  0.000D+00 -0.811D-07
Maxdispl :   0.0031   ||displ|| :   0.0045   Lambda : -0.104D-06
Largest |displ|/coords:  0.0031 (   5)  0.0019 (   3)  0.0013 (   2)

   *** GEOMETRY OPTIMIZATION CONVERGED AFTER 54 ITERATIONS ***

------------------------------------------------------------------------
 total energy gain (kcal):     -0.0001
------------------------------------------------------------------------
================
 final structure:
================
$coord
        1.81129681581974        1.02894143110502        0.71034436635079      S 
        2.47355779506852       -1.56739992755092       -0.42491540224741      O 
        0.33692884571365        2.42075236761913       -1.11796993788040      O 
        0.68977569097446        0.75731576120947        3.14352018103823      O 
        4.44026574278817        2.26189655869594        0.95339973434294      O 
        5.00708072818624        2.44765518422745       -0.82062179472425      H 
        4.54068279337470        2.17546868375061       -3.95216498436676      O 
        4.63213098752341        0.42509359085725       -4.42897335743795      H 
        2.76405800302640        2.55293827898725       -3.68950193441703      H 
       -3.85206736309414       -1.68001673186250        2.93454105470298      O 
       -4.61743064370462       -0.54656528840791        1.69140633507219      H 
       -2.43084700000264       -0.73746266225119        3.60852447340105      H 
       -4.74468108597128        1.92895762375086       -0.57337529426124      O 
       -5.38356596126741        3.55473344411702       -0.09127986095673      H 
       -2.95952028083223        2.16541349666772       -0.95163989602337      H 
       -1.00756255520414       -4.67804797470253        0.35706946219411      O 
        1.04057142106544       -2.89798365368052       -0.16354005595871      H 
       -0.43138850278954       -5.95725285774663        1.50774647711870      H 
       -2.30928544958216       -3.65443734368712        1.30743045295013      H 
$end
 
 Bond Distances (Angstroems)
 ---------------------------
S1-O2=1.5399         S1-O3=1.4447         S1-O4=1.4250         S1-O5=1.5420         O2-S1=1.5399         O2-H17=1.0440        
O3-S1=1.4447         O4-S1=1.4250         O5-S1=1.5420         O5-H6=0.9904         H6-O5=0.9904         O7-H8=0.9612         
O7-H9=0.9711         H8-O7=0.9612         H9-O7=0.9711         O10-H11=0.9780       O10-H12=0.9704       H11-O10=0.9780       
H12-O10=0.9704       O13-H14=0.9589       O13-H15=0.9737       H14-O13=0.9589       H15-O13=0.9737       O16-H18=0.9602       
O16-H19=1.0104       H17-O2=1.0440        H18-O16=0.9602       H19-O16=1.0104       
 O  H  Rav=0.9818 sigma=0.0255  Rmin=0.9589  Rmax=1.0440    10
 S  O  Rav=1.4879 sigma=0.0535  Rmin=1.4250  Rmax=1.5420     4
 
 selected bond angles (degree)
 --------------------
O3-S1-O2=108.45                O4-S1-O2=110.93                O4-S1-O3=115.57                O5-S1-O2=101.81                
O5-S1-O3=109.11                O5-S1-O4=110.06                H17-O2-S1=112.63               H6-O5-S1=103.66                
H9-O7-H8=106.53                H12-O10-H11=104.65             
 
 selected dihedral angles (degree)
 ---------------------------------
H17-O2-S1-O3=275.34           H17-O2-S1-O4= 43.27           H17-O2-S1-O5=160.35           H6-O5-S1-O2= 65.23            
H6-O5-S1-O3=310.73            H6-O5-S1-O4=182.94            
 
 CMA Distance (Angstroems)
 ---------------------------
R(CMA):  1.9500

========================================================================
 FINAL SINGLEPOINT CALCULATION ON OPTIMIZED GEOMETRY
========================================================================

 Ncao       : 52
 Nao        : 51
 Nshell     : 29
 Nel        : 64
 T(el)      :   300.0
 intcut     :    25.0
 scfconv/Eh :  0.100E-05
   qconv/e  :  0.100E-03
 intneglect :  0.100E-07
 broydamp   :      0.250
 iter      E             dE          RMSdq      gap      omega  full diag
   1    -41.1272606 -0.411273E+02  0.208E-05    8.71       0.0  T
   2    -41.1272606 -0.397904E-12  0.136E-05    8.71    1690.5  T
   3    -41.1272606 -0.234479E-12  0.518E-06    8.71    4426.0  T
speedup  1.05
cpu  time for SCC    0.00 s
wall time for SCC    0.00 s

   *** convergence criteria satisfied after 3 iterations ***

          eigenvalues
 #    :          20         21         22         23         24         25         26         27
 occ. :        2.000      2.000      2.000      2.000      2.000      2.000      2.000      2.000
 eps  :       -14.499    -14.290    -14.084    -13.895    -13.604    -13.151    -13.084    -12.997
 #    :          28         29         30         31         32         33         34         35
 occ. :        2.000      2.000      2.000      2.000      2.000      0.000      0.000      0.000
 eps  :       -12.871    -12.767    -12.705    -12.102    -12.046     -3.338     -1.196     -0.803
 #    :          36         37         38         39         40         41         42         43
 occ. :        0.000      0.000      0.000      0.000      0.000      0.000      0.000      0.000
 eps  :         0.433      0.953      1.378      2.156      4.255      4.605      5.278      6.414


   #   Z            q   n(s)   n(p)   n(d)      C6AA      α(0)
   1  16 S      1.725  1.578  1.760  0.936    88.208    15.807
   2   8 O     -0.645  1.761  4.885  0.000    26.279     6.920
   3   8 O     -0.729  1.767  4.962  0.000    29.509     7.283
   4   8 O     -0.673  1.749  4.924  0.000    27.974     7.091
   5   8 O     -0.586  1.750  4.835  0.000    24.823     6.726
   6   1 H      0.388  0.612  0.000  0.000     0.499     1.106
   7   8 O     -0.590  1.739  4.851  0.000    24.947     6.741
   8   1 H      0.307  0.693  0.000  0.000     0.700     1.314
   9   1 H      0.320  0.680  0.000  0.000     0.663     1.279
  10   8 O     -0.611  1.751  4.860  0.000    25.457     6.810
  11   1 H      0.328  0.672  0.000  0.000     0.643     1.259
  12   1 H      0.313  0.687  0.000  0.000     0.682     1.297
  13   8 O     -0.602  1.740  4.862  0.000    25.235     6.780
  14   1 H      0.289  0.711  0.000  0.000     0.754     1.364
  15   1 H      0.316  0.684  0.000  0.000     0.676     1.291
  16   8 O     -0.604  1.759  4.845  0.000    25.261     6.785
  17   1 H      0.398  0.602  0.000  0.000     0.486     1.093
  18   1 H      0.304  0.696  0.000  0.000     0.710     1.323
  19   1 H      0.352  0.648  0.000  0.000     0.585     1.201

 Mol. C6AA /au·bohr⁶  :       3364.346188
 Mol. C8AA /au·bohr⁸  :      76039.411663
 Mol. α(0) /au        :         83.471369

 
 Wiberg/Mayer (AO) data. WBOs > 0.1 written file <wbo>
 largest (>0.05) Wiberg bond orders for each atom
           total WBO             WBO to atom ...
     1  S   4.814    O    4 1.443    O    3 1.329    O    2 1.005    O    5 1.000
     2  O   1.939    S    1 1.005    H   17 0.630    O    4 0.096    O    3 0.091    O   16 0.057    O    5 0.055
     3  O   1.733    S    1 1.329    O    4 0.122    O    2 0.091    O    5 0.087
     4  O   1.785    S    1 1.443    O    3 0.122    O    2 0.096    O    5 0.073
     5  O   2.005    S    1 1.000    H    6 0.743    O    3 0.087    O    4 0.073    O    2 0.055
     6  H   0.849    O    5 0.743    O    7 0.088
     7  O   1.909    H    8 0.903    H    9 0.866    H    6 0.088
     8  H   0.906    O    7 0.903
     9  H   0.897    O    7 0.866
    10  O   1.924    H   12 0.870    H   11 0.842    H   19 0.118
    11  H   0.892    O   10 0.842
    12  H   0.902    O   10 0.870
    13  O   1.864    H   14 0.913    H   15 0.855
    14  H   0.916    O   13 0.913
    15  H   0.900    O   13 0.855
    16  O   1.973    H   18 0.905    H   19 0.757    H   17 0.194    O    2 0.057
    17  H   0.842    O    2 0.630    O   16 0.194
    18  H   0.908    O   16 0.905
    19  H   0.876    O   16 0.757    O   10 0.118
 MOs/occ written to file <molden.input>
 
molecular dipole:
                 x           y           z       tot (Debye)
 q only:        0.313      -0.451      -0.341
   full:        0.515      -0.281      -0.313       1.690
molecular quadrupole (traceless):
                xx          xy          yy          xz          yz          zz
 q only:       -2.743      -6.340       5.970      -2.194      -1.168      -3.227
  q+dip:       -5.210     -10.308       7.997      -1.312      -1.003      -2.787
   full:       -4.887     -10.202       8.259      -1.528      -0.949      -3.372

SCC energy    :     -41.1272606
rep           :       0.2076182
ES            :       0.1845411
AES           :      -0.0421679
AXC           :      -0.0105939
disp          :      -0.0130643
XB            :       0.0000000
fix           :       0.0000000
total E       :     -40.9195502
atomizationE  :       3.7137374     2330.41
(atE without considering molecular charge,
 total energy contains solvation terms)
H-L gap (eV)  :          8.7079
optimized geometry written to: xtbopt.xyz


------------------------------------------------------------------------
 * finished run on 2019/09/03 at 10:59:26.371     
------------------------------------------------------------------------
 total:
 * wall-time:     0 d,  0 h,  0 min,  1.322 sec
 *  cpu-time:     0 d,  0 h,  0 min,  0.906 sec
 * ratio c/w:     0.685 speedup
 SCF:
 * wall-time:     0 d,  0 h,  0 min,  0.298 sec
 *  cpu-time:     0 d,  0 h,  0 min,  0.093 sec
 * ratio c/w:     0.312 speedup
 ANC optimizer:
 * wall-time:     0 d,  0 h,  0 min,  1.002 sec
 *  cpu-time:     0 d,  0 h,  0 min,  0.794 sec
 * ratio c/w:     0.792 speedup

