      -----------------------------------------------------------      
     |                   =====================                   |     
     |                           x T B                           |     
     |                   =====================                   |     
     |                         S. Grimme                         |     
     |          Mulliken Center for Theoretical Chemistry        |     
     |                    University of Bonn                     |     
     |                 Version 6.0.1 (SAW181210)                 |     
      -----------------------------------------------------------      

   This program is distributed in the hope that it will be useful,
   but WITHOUT ANY WARRANTY; without even the implied warranty of
   MERCHANTABILITY or FITNESS FOR A PARTICULAR PURPOSE.
   
   FOR NON-COMMERCIAL, ACADEMIA USE ONLY.
   
   Cite this work as:
   S. Grimme, C. Bannwarth, P. Shushkov, J. Comput. Theory Chem., 2017,
   13, 1989-2009.
   C. Bannwarth, S. Ehlert and S. Grimme., ChemRxiv, 2018, preprint.
   http://doi.org/10.26434/chemrxiv.7246238.v1
   
   for sTDA-xTB:
   S. Grimme and C. Bannwarth, J. Chem. Phys., 2016, 145, 054103.
   
   in the mass-spec context:
   V. Asgeirsson, C. Bauer and S. Grimme, Chem. Sci., 2017, 8, 4879.
   
   if GBSA is used:
   P. Shushkov, F. März and S. Grimme, unpublished.
   
   for ANC optimizer:
   S. Grimme, unpublished.
   Rational Function algorithm used in ANCopt:
   F. Eckert, P. Pulay, H.-J. Werner, J. Comput. Chem., 1997, 18, 1473.
   
   with help from (in alphabetical order)
   C. Bannwarth, F. Bohle, G. Brandenburg, E. Caldeweyher, M. Checinski,
   S. Dohm, S. Ehlert, S. Ehrlich, F. März, H. Neugebauer, J. Pisarek,
   P. Pracht, P. Shushkov, and S. Spicher.
   
 * started run on 2019/09/03 at 11:05:27.299     
========================================================================
 # omp threads = 1
========================================================================
number of atoms            : 19
number of electrons        : 64
charge                     : 0
spin                       : .0
first test random number   : .0652

########################################################################
# WARNING! Please study the warnings concerning your input carefully
#  - XTBPATH is not set, using XTBHOME instead
#  - the use of '-opt' is discouraged, please use '--opt' next time
#  - the use of '-chrg' is discouraged, please use '--chrg' next time
#  - the use of '-uhf' is discouraged, please use '--uhf' next time
########################################################################

           ------------------------------------------------- 
          |                 G F N 2 - x T B                 |
          | Geometry, Frequencies, Noncovalent interactions |
          |            JCTC 2018 parametrisation            |
           ------------------------------------------------- 
      method parameters     
 k(s)        :  1.8500
 k(p)        :  2.2300
 k(d)        :  2.2300
 k(f)        :  2.0000
 kEN (H0ij)  : -2.0000
 D4 a1       :  0.5200
 D4 a2       :  5.0000
 D4 s6       :  1.0000
 D4 s8       :  2.7000
 D4 s9       :  5.0000
 alphaj      :  2.0000


            Z     q(EN)     CN     RAES       Cart. coordinates
     1  S   6.0    0.64    4.34    4.31     1.57488     2.23587     1.32379
     2  O   6.0   -0.31    1.21    1.80     2.15014    -0.25912     0.15238
     3  O   6.0   -0.30    1.18    1.80    -1.21272     2.62959     1.37226
     4  O   6.0   -0.28    1.15    1.80     2.57640     2.29072     3.95478
     5  O   6.0   -0.24    2.09    1.84     2.76914     4.25427    -0.16360
     6  H   1.0    0.16    1.25    1.48     2.12440     4.21964    -1.85894
     7  O   6.0   -0.27    2.01    1.83     0.29110     2.52416    -4.36206
     8  H   1.0    0.16    0.97    1.43    -1.47192     2.70357    -4.77942
     9  H   1.0    0.16    0.98    1.43     0.50293     0.77354    -3.90920
    10  O   6.0   -0.26    1.93    1.82    -2.66084    -2.69489    -4.05415
    11  H   1.0    0.15    0.97    1.43    -2.43780    -3.61223    -5.61087
    12  H   1.0    0.16    1.02    1.43    -1.62014    -3.55684    -2.83406
    13  O   6.0   -0.28    2.00    1.83     0.69817    -4.98072    -0.85686
    14  H   1.0    0.15    0.97    1.43     2.06621    -6.07884    -0.36982
    15  H   1.0    0.18    1.05    1.44     1.28650    -3.29391    -0.50590
    16  O   6.0   -0.21    2.90    2.53    -1.88096     0.85296     5.93391
    17  H   1.0    0.14    1.00    1.43    -0.09890     1.25979     6.31938
    18  H   1.0    0.15    1.03    1.43    -2.48050     1.72291     4.39322
    19  H   1.0    0.12    0.96    1.42    -2.17609    -0.99046     5.85516

  Z AO/shell   Hii/eV     exponent
  1     Wed Apr 25 08:07:45 CEST 2018   EN: 2.200 GM2: 0.406  GM3: 0.0800  RAES: 1.40
     1s    -10.707211    1.230000
  8     Wed Apr 25 08:07:45 CEST 2018   EN: 3.440 GM2: 0.452  GM3:-0.0517  RAES: 1.80
     2s    -20.229985    2.439742
     2p    -15.503117    2.137023
 16     Tue Apr 24 11:44:34 CEST 2018   EN: 2.580 GM2: 0.340  GM3:-0.0502  RAES: 3.10
     3s    -20.029654    1.981333
     3p    -11.377694    2.025643
     3d     -0.420282    1.702555
 no old-style atom pair restraining (fixing) potential

molecular fragmentation (1/2 indicates fragments):
1111112222222222222
# atoms in fragment 1/2:     6    13
 fragment masses (1/2) :       97.07       73.07
CMA distance (Bohr)    :   4.621
constraining FC (au)   :  0.0500
           ------------------------------------------------- 
          |        Self-Consistent Charge Iterations        |
           ------------------------------------------------- 

 Ncao       : 52
 Nao        : 51
 Nshell     : 29
 Nel        : 64
 T(el)      :   300.0
 intcut     :    25.0
 scfconv/Eh :  0.100E-05
   qconv/e  :  0.100E-03
 intneglect :  0.100E-07
 broydamp   :      0.250
 iter      E             dE          RMSdq      gap      omega  full diag
   1    -40.9773972 -0.409774E+02  0.771E+00   10.59       0.0  T
   2    -41.0177503 -0.403531E-01  0.556E+00   10.06       1.0  T
   3    -41.0505756 -0.328254E-01  0.142E+00    7.54       1.0  T
   4    -41.0546963 -0.412063E-02  0.621E-01    7.48       1.0  T
   5    -41.0554000 -0.703768E-03  0.307E-01    7.36       1.0  T
   6    -41.0557035 -0.303427E-03  0.149E-01    7.40       1.0  T
   7    -41.0557963 -0.928791E-04  0.502E-02    7.47       1.0  T
   8    -41.0558044 -0.802021E-05  0.321E-02    7.47       1.0  T
   9    -41.0558093 -0.497549E-05  0.750E-03    7.47       3.1  T
  10    -41.0558095 -0.173608E-06  0.227E-03    7.46      10.1  T
  11    -41.0558095 -0.143834E-07  0.975E-04    7.46      23.5  T
  12    -41.0558095 -0.270101E-08  0.482E-04    7.46      47.6  T
speedup  0.93
cpu  time for SCC    0.01 s
wall time for SCC    0.01 s

   *** convergence criteria satisfied after 12 iterations ***

          eigenvalues
 #    :          20         21         22         23         24         25         26         27
 occ. :        2.000      2.000      2.000      2.000      2.000      2.000      2.000      2.000
 eps  :       -13.493    -12.848    -12.765    -12.437    -11.822    -11.648    -11.519    -11.397
 #    :          28         29         30         31         32         33         34         35
 occ. :        2.000      2.000      2.000      2.000      2.000      0.000      0.000      0.000
 eps  :       -11.229    -11.200    -10.921    -10.726    -10.544     -3.080     -1.023      0.437
 #    :          36         37         38         39         40         41         42         43
 occ. :        0.000      0.000      0.000      0.000      0.000      0.000      0.000      0.000
 eps  :         1.443      1.587      2.175      2.812      3.503      4.732      4.796      5.871


   #   Z            q   n(s)   n(p)   n(d)      C6AA      α(0)
   1  16 S      1.569  1.591  1.858  0.982    91.815    16.127
   2   8 O     -0.765  1.776  4.989  0.000    30.533     7.408
   3   8 O     -0.774  1.775  4.999  0.000    30.803     7.441
   4   8 O     -0.754  1.770  4.984  0.000    30.233     7.372
   5   8 O     -0.553  1.716  4.836  0.000    24.048     6.620
   6   1 H      0.385  0.615  0.000  0.000     0.504     1.111
   7   8 O     -0.599  1.738  4.861  0.000    25.166     6.771
   8   1 H      0.300  0.700  0.000  0.000     0.721     1.333
   9   1 H      0.318  0.682  0.000  0.000     0.668     1.284
  10   8 O     -0.606  1.746  4.860  0.000    25.337     6.794
  11   1 H      0.269  0.731  0.000  0.000     0.822     1.424
  12   1 H      0.321  0.679  0.000  0.000     0.662     1.278
  13   8 O     -0.619  1.740  4.879  0.000    25.653     6.836
  14   1 H      0.276  0.724  0.000  0.000     0.796     1.402
  15   1 H      0.329  0.671  0.000  0.000     0.639     1.256
  16   8 O     -0.362  1.623  4.739  0.000    20.073     6.051
  17   1 H      0.429  0.571  0.000  0.000     0.436     1.037
  18   1 H      0.433  0.567  0.000  0.000     0.428     1.028
  19   1 H      0.402  0.598  0.000  0.000     0.481     1.090

 Mol. C6AA /au·bohr⁶  :       3382.645022
 Mol. C8AA /au·bohr⁸  :      76792.354731
 Mol. α(0) /au        :         83.662266

 
 Wiberg/Mayer (AO) data. WBOs > 0.1 written file <wbo>
 largest (>0.05) Wiberg bond orders for each atom
           total WBO             WBO to atom ...
     1  S   4.934    O    4 1.320    O    2 1.289    O    3 1.263    O    5 1.028
     2  O   1.663    S    1 1.289    O    3 0.111    O    4 0.110    O    5 0.078
     3  O   1.671    S    1 1.263    O    4 0.113    O    2 0.111    H   18 0.077    O    5 0.073
     4  O   1.681    S    1 1.320    O    3 0.113    O    2 0.110    O    5 0.057
     5  O   2.049    S    1 1.028    H    6 0.789    O    2 0.078    O    3 0.073    O    4 0.057
     6  H   0.851    O    5 0.789
     7  O   1.856    H    8 0.906    H    9 0.887
     8  H   0.910    O    7 0.906
     9  H   0.899    O    7 0.887
    10  O   1.819    H   11 0.927    H   12 0.863
    11  H   0.928    O   10 0.927
    12  H   0.897    O   10 0.863
    13  O   1.823    H   14 0.913    H   15 0.840
    14  H   0.924    O   13 0.913
    15  H   0.892    O   13 0.840
    16  O   2.377    H   19 0.833    H   17 0.766    H   18 0.728
    17  H   0.816    O   16 0.766
    18  H   0.812    O   16 0.728    O    3 0.077
    19  H   0.838    O   16 0.833
 MOs/occ written to file <molden.input>
 
molecular dipole:
                 x           y           z       tot (Debye)
 q only:       -1.657      -0.816       2.342
   full:       -1.205      -0.893       1.885       6.123
molecular quadrupole (traceless):
                xx          xy          yy          xz          yz          zz
 q only:      -12.732      -5.851      -9.223     -14.877      -4.077      21.955
  q+dip:      -12.771      -6.582      -6.599     -13.405      -4.266      19.370
   full:      -12.917      -6.686      -6.394     -13.095      -4.533      19.311

SCC energy    :     -41.0558095
rep           :       0.2163312
ES            :       0.2674612
AES           :      -0.0506453
AXC           :      -0.0114473
disp          :      -0.0118877
XB            :       0.0000000
fix           :       0.0000000
total E       :     -40.8393516
atomizationE  :       3.6335388     2280.08
(atE without considering molecular charge,
 total energy contains solvation terms)
H-L gap (eV)  :          7.4642
           ------------------------------------------------- 
          |                 ===============                 |
          |                   A N C O P T                   |
          |                 ===============                 |
          |          Approximate Normal Coordinate          |
          |           Rational Function Optimizer           |
           ------------------------------------------------- 
dumping coords to <xtbopt.coord> and <xtbopt.log>
 optlevel               2
 Maxcycle             380
 Maxmicro              25
 Econv         1.000000000000000E-007
 Gconv         2.000000000000000E-004
 Maxdispl       1.00000000000000     
 Hlow          5.000000000000000E-003
 S6             20.0000000000000     
 Nvar               51

generating ANC from model Hessian ...
 Shifting diagonal of input Hessian by   5.177058493985530E-003
 Lowest  eigenvalues of input Hessian
    0.005000   -0.000000   -0.000000    0.000000    0.000000    0.000000
    0.000000    0.005244    0.005390    0.005638    0.005746    0.005979
    0.005989    0.006418    0.006727    0.007423    0.008073    0.008282
 Highest eigenvalues
    1.457395    1.543472    1.545078    3.136464    3.206775    3.310404
 
cpu  time for ANC gen    0.00 s
wall time for ANC gen    0.00 s
................................................................................
.............................. CYCLE    1 ......................................
................................................................................
   1    -41.0558095 -0.410558E+02  0.117E-04    7.46       0.0  T
   2    -41.0558095 -0.207550E-10  0.820E-05    7.46     279.8  T
   3    -41.0558095 -0.105160E-10  0.260E-05    7.46     880.8  T
speedup  1.00
cpu  time for SCC    0.00 s
wall time for SCC    0.00 s
speedup  0.96
cpu  time for grad    0.01 s
wall time for grad    0.01 s
 E :    -40.83935159  G :  0.139022    pred/act E change:  0.000D+00  0.262D-07
Maxdispl :   0.3540   ||displ|| :   0.5426   Lambda : -0.257D-01
Largest |displ|/coords:  0.3540 (  19)  0.1776 (  23)  0.1733 (  21)
................................................................................
.............................. CYCLE    2 ......................................
................................................................................
   1    -41.0719501 -0.410720E+02  0.434E-01    8.35       0.0  T
   2    -41.0721440 -0.193906E-03  0.321E-01    8.46       1.0  T
   3    -41.0722442 -0.100200E-03  0.110E-01    8.67       1.0  T
   4    -41.0722575 -0.132961E-04  0.262E-02    8.68       1.0  T
   5    -41.0722587 -0.117301E-05  0.936E-03    8.67       2.5  T
   6    -41.0722588 -0.153358E-06  0.524E-03    8.67       4.4  T
   7    -41.0722589 -0.809558E-07  0.262E-03    8.66       8.8  T
speedup  1.11
cpu  time for SCC    0.00 s
wall time for SCC    0.00 s
speedup  0.99
cpu  time for grad    0.01 s
wall time for grad    0.01 s
 E :    -40.86295475  G :  0.100789    pred/act E change:  0.000D+00 -0.236D-01
Maxdispl :   0.4228   ||displ|| :   0.5788   Lambda : -0.219D-01
Largest |displ|/coords:  0.4228 (  19)  0.2008 (  23)  0.1412 (  22)
................................................................................
.............................. CYCLE    3 ......................................
................................................................................
   1    -41.0816278 -0.410816E+02  0.542E-01    9.01       0.0  T
   2    -41.0823568 -0.728908E-03  0.385E-01    9.01       1.0  T
   3    -41.0827069 -0.350143E-03  0.157E-01    8.96       1.0  T
   4    -41.0827294 -0.225099E-04  0.375E-02    8.94       1.0  T
   5    -41.0827311 -0.170542E-05  0.152E-02    8.95       1.5  T
   6    -41.0827314 -0.334268E-06  0.758E-03    8.95       3.0  T
   7    -41.0827316 -0.147831E-06  0.355E-03    8.95       6.5  T
   8    -41.0827316 -0.493568E-07  0.126E-03    8.95      18.2  T
speedup  1.02
cpu  time for SCC    0.00 s
wall time for SCC    0.00 s
speedup  1.01
cpu  time for grad    0.01 s
wall time for grad    0.01 s
 E :    -40.88025619  G :  0.070948    pred/act E change: -0.166D-01 -0.173D-01
Maxdispl :   0.2008   ||displ|| :   0.4287   Lambda : -0.918D-02
Largest |displ|/coords:  0.2008 (  19)  0.1709 (  12)  0.1518 (  10)
................................................................................
.............................. CYCLE    4 ......................................
................................................................................
   1    -41.0821626 -0.410822E+02  0.459E-01    8.83       0.0  T
   2    -41.0826955 -0.532887E-03  0.331E-01    8.81       1.0  T
   3    -41.0829327 -0.237253E-03  0.137E-01    8.77       1.0  T
   4    -41.0829518 -0.190673E-04  0.324E-02    8.75       1.0  T
   5    -41.0829531 -0.133438E-05  0.115E-02    8.75       2.0  T
   6    -41.0829533 -0.154342E-06  0.573E-03    8.76       4.0  T
   7    -41.0829534 -0.623340E-07  0.242E-03    8.76       9.5  T
speedup  0.89
cpu  time for SCC    0.00 s
wall time for SCC    0.00 s
speedup  0.94
cpu  time for grad    0.01 s
wall time for grad    0.01 s
 E :    -40.88663376  G :  0.048595    pred/act E change: -0.147D-01 -0.638D-02
Maxdispl :   0.1990   ||displ|| :   0.5123   Lambda : -0.644D-02
Largest |displ|/coords:  0.1990 (  12)  0.1683 (   4)  0.1626 (  18)
................................................................................
.............................. CYCLE    5 ......................................
................................................................................
   1    -41.0883568 -0.410884E+02  0.422E-01    8.67       0.0  T
   2    -41.0886260 -0.269180E-03  0.310E-01    8.65       1.0  T
   3    -41.0887194 -0.933991E-04  0.131E-01    8.62       1.0  T
   4    -41.0887326 -0.131905E-04  0.312E-02    8.62       1.0  T
   5    -41.0887344 -0.178493E-05  0.768E-03    8.63       3.0  T
   6    -41.0887344 -0.654901E-07  0.379E-03    8.63       6.1  T
   7    -41.0887345 -0.241222E-07  0.178E-03    8.63      12.9  T
speedup  0.91
cpu  time for SCC    0.00 s
wall time for SCC    0.00 s
speedup  0.95
cpu  time for grad    0.01 s
wall time for grad    0.01 s
 E :    -40.89034219  G :  0.032347    pred/act E change: -0.543D-02 -0.371D-02
Maxdispl :   0.2013   ||displ|| :   0.5463   Lambda : -0.440D-02
Largest |displ|/coords:  0.2013 (   9)  0.1880 (  16)  0.1828 (   6)
................................................................................
.............................. CYCLE    6 ......................................
................................................................................
   1    -41.0831224 -0.410831E+02  0.635E-01    8.40       0.0  T
   2    -41.0834370 -0.314554E-03  0.480E-01    8.44       1.0  T
   3    -41.0835567 -0.119694E-03  0.137E-01    8.51       1.0  T
   4    -41.0835970 -0.403284E-04  0.434E-02    8.49       1.0  T
   5    -41.0836002 -0.323973E-05  0.106E-02    8.48       2.2  T
   6    -41.0836003 -0.854129E-07  0.581E-03    8.48       3.9  T
   7    -41.0836003 -0.419706E-07  0.213E-03    8.48      10.8  T
speedup  1.16
cpu  time for SCC    0.00 s
wall time for SCC    0.00 s
speedup  1.08
cpu  time for grad    0.01 s
wall time for grad    0.01 s
 E :    -40.89229603  G :  0.056800    pred/act E change: -0.406D-02 -0.195D-02
Maxdispl :   0.1972   ||displ|| :   0.4530   Lambda : -0.845D-02
Largest |displ|/coords:  0.1972 (   5)  0.1737 (   4)  0.1204 (  23)
................................................................................
.............................. CYCLE    7 ......................................
................................................................................
   1    -41.0991280 -0.410991E+02  0.734E-01    8.64       0.0  T
   2    -41.0994629 -0.334982E-03  0.558E-01    8.57       1.0  T
   3    -41.0996315 -0.168560E-03  0.130E-01    8.42       1.0  T
   4    -41.0996810 -0.494655E-04  0.482E-02    8.47       1.0  T
   5    -41.0996849 -0.391343E-05  0.125E-02    8.50       1.8  T
   6    -41.0996849 -0.655740E-07  0.664E-03    8.50       3.5  T
   7    -41.0996850 -0.492339E-07  0.154E-03    8.50      14.9  T
   8    -41.0996850 -0.594710E-08  0.486E-04    8.50      47.2  T
speedup  1.00
cpu  time for SCC    0.00 s
wall time for SCC    0.01 s
speedup  1.00
cpu  time for grad    0.01 s
wall time for grad    0.01 s
 E :    -40.89485770  G :  0.061972    pred/act E change: -0.286D-02 -0.256D-02
Maxdispl :   0.1820   ||displ|| :   0.4029   Lambda : -0.674D-02
Largest |displ|/coords:  0.1820 (  17)  0.1740 (  19)  0.1625 (   9)
................................................................................
.............................. CYCLE    8 ......................................
................................................................................
   1    -41.0975861 -0.410976E+02  0.438E-01    8.50       0.0  T
   2    -41.0976761 -0.899672E-04  0.331E-01    8.55       1.0  T
   3    -41.0977190 -0.429212E-04  0.741E-02    8.63       1.0  T
   4    -41.0977312 -0.121528E-04  0.251E-02    8.62       1.0  T
   5    -41.0977322 -0.107738E-05  0.508E-03    8.60       4.5  T
   6    -41.0977323 -0.236817E-07  0.307E-03    8.60       7.5  T
speedup  1.05
cpu  time for SCC    0.00 s
wall time for SCC    0.00 s
speedup  1.02
cpu  time for grad    0.01 s
wall time for grad    0.01 s
 E :    -40.89902641  G :  0.053789    pred/act E change: -0.509D-02 -0.417D-02
Maxdispl :   0.1460   ||displ|| :   0.3918   Lambda : -0.684D-02
Largest |displ|/coords:  0.1460 (  23)  0.1400 (   9)  0.1360 (  22)
................................................................................
.............................. CYCLE    9 ......................................
................................................................................
   1    -41.1156446 -0.411156E+02  0.387E-01    8.64       0.0  T
   2    -41.1158392 -0.194569E-03  0.289E-01    8.62       1.0  T
   3    -41.1159646 -0.125405E-03  0.107E-01    8.58       1.0  T
   4    -41.1159833 -0.187079E-04  0.330E-02    8.57       1.0  T
   5    -41.1159848 -0.151831E-05  0.122E-02    8.58       1.9  T
   6    -41.1159849 -0.698237E-07  0.559E-03    8.58       4.1  T
   7    -41.1159849 -0.485246E-07  0.162E-03    8.58      14.2  T
speedup  0.93
cpu  time for SCC    0.00 s
wall time for SCC    0.00 s
speedup  0.96
cpu  time for grad    0.01 s
wall time for grad    0.01 s
 E :    -40.90077088  G :  0.068039    pred/act E change: -0.392D-02 -0.174D-02
Maxdispl :   0.1156   ||displ|| :   0.3093   Lambda : -0.113D-01
Largest |displ|/coords:  0.1156 (  23)  0.0942 (  24)  0.0817 (   9)
................................................................................
.............................. CYCLE   10 ......................................
................................................................................
   1    -41.1035931 -0.411036E+02  0.366E-01    8.56       0.0  T
   2    -41.1037551 -0.161977E-03  0.269E-01    8.58       1.0  T
   3    -41.1038489 -0.938044E-04  0.882E-02    8.63       1.0  T
   4    -41.1038615 -0.126116E-04  0.289E-02    8.63       1.0  T
   5    -41.1038624 -0.872716E-06  0.867E-03    8.63       2.6  T
   6    -41.1038625 -0.124296E-06  0.494E-03    8.63       4.6  T
   7    -41.1038626 -0.259292E-07  0.148E-03    8.63      15.5  T
speedup  0.93
cpu  time for SCC    0.00 s
wall time for SCC    0.00 s
speedup  1.08
cpu  time for grad    0.01 s
wall time for grad    0.01 s
 E :    -40.90201238  G :  0.048054    pred/act E change: -0.395D-02 -0.124D-02
Maxdispl :   0.0889   ||displ|| :   0.2066   Lambda : -0.398D-02
Largest |displ|/coords:  0.0889 (   2)  0.0737 (   9)  0.0687 (  24)
................................................................................
.............................. CYCLE   11 ......................................
................................................................................
   1    -41.1118325 -0.411118E+02  0.209E-01    8.75       0.0  T
   2    -41.1118946 -0.620405E-04  0.157E-01    8.74       1.0  T
   3    -41.1119333 -0.387126E-04  0.552E-02    8.72       1.0  T
   4    -41.1119394 -0.612017E-05  0.158E-02    8.72       1.5  T
   5    -41.1119397 -0.353538E-06  0.638E-03    8.72       3.6  T
   6    -41.1119398 -0.207771E-07  0.306E-03    8.72       7.5  T
   7    -41.1119398 -0.109156E-07  0.620E-04    8.72      37.0  T
speedup  1.14
cpu  time for SCC    0.00 s
wall time for SCC    0.00 s
speedup  1.06
cpu  time for grad    0.01 s
wall time for grad    0.01 s
 E :    -40.90501702  G :  0.036025    pred/act E change: -0.616D-02 -0.300D-02
Maxdispl :   0.1789   ||displ|| :   0.4463   Lambda : -0.541D-02
Largest |displ|/coords:  0.1789 (   9)  0.1526 (   1)  0.1502 (  22)
................................................................................
.............................. CYCLE   12 ......................................
................................................................................
   1    -41.1361295 -0.411361E+02  0.460E-01    8.70       0.0  T
   2    -41.1363515 -0.222028E-03  0.338E-01    8.67       1.0  T
   3    -41.1364908 -0.139286E-03  0.115E-01    8.60       1.0  T
   4    -41.1365104 -0.196139E-04  0.372E-02    8.60       1.0  T
   5    -41.1365129 -0.245726E-05  0.124E-02    8.61       1.8  T
   6    -41.1365130 -0.618136E-07  0.632E-03    8.61       3.6  T
   7    -41.1365130 -0.511331E-07  0.126E-03    8.61      18.1  T
   8    -41.1365130 -0.152556E-08  0.287E-04    8.61      80.0  T
speedup  1.02
cpu  time for SCC    0.00 s
wall time for SCC    0.00 s
speedup  1.01
cpu  time for grad    0.01 s
wall time for grad    0.01 s
 E :    -40.90313310  G :  0.087085    pred/act E change: -0.207D-02  0.188D-02
Maxdispl :   0.1261   ||displ|| :   0.3163   Lambda : -0.171D-01
Largest |displ|/coords:  0.1261 (  22)  0.1034 (  16)  0.1017 (  23)
................................................................................
.............................. CYCLE   13 ......................................
................................................................................
   1    -41.1042527 -0.411043E+02  0.496E-01    8.50       0.0  T
   2    -41.1045654 -0.312724E-03  0.354E-01    8.56       1.0  T
   3    -41.1047557 -0.190297E-03  0.125E-01    8.67       1.0  T
   4    -41.1047785 -0.227738E-04  0.353E-02    8.67       1.0  T
   5    -41.1047801 -0.157342E-05  0.126E-02    8.66       1.8  T
   6    -41.1047803 -0.219340E-06  0.700E-03    8.66       3.3  T
   7    -41.1047804 -0.519716E-07  0.205E-03    8.66      11.2  T
   8    -41.1047804 -0.441091E-08  0.337E-04    8.66      68.1  T
speedup  1.00
cpu  time for SCC    0.00 s
wall time for SCC    0.01 s
speedup  0.97
cpu  time for grad    0.01 s
wall time for grad    0.01 s
 E :    -40.90457826  G :  0.052049    pred/act E change: -0.325D-02 -0.145D-02
Maxdispl :   0.1395   ||displ|| :   0.2894   Lambda : -0.696D-02
Largest |displ|/coords:  0.1395 (   1)  0.0935 (  14)  0.0843 (  15)
................................................................................
.............................. CYCLE   14 ......................................
................................................................................
   1    -41.1268936 -0.411269E+02  0.346E-01    8.97       0.0  T
   2    -41.1270181 -0.124545E-03  0.254E-01    8.93       1.0  T
   3    -41.1270968 -0.786636E-04  0.759E-02    8.85       1.0  T
   4    -41.1271079 -0.111037E-04  0.172E-02    8.87       1.3  T
   5    -41.1271081 -0.262163E-06  0.814E-03    8.88       2.8  T
   6    -41.1271082 -0.339022E-07  0.335E-03    8.88       6.9  T
   7    -41.1271082 -0.187577E-07  0.892E-04    8.88      25.7  T
speedup  0.93
cpu  time for SCC    0.00 s
wall time for SCC    0.00 s
speedup  0.96
cpu  time for grad    0.01 s
wall time for grad    0.01 s
 E :    -40.90757646  G :  0.028285    pred/act E change: -0.943D-02 -0.300D-02
Maxdispl :   0.2387   ||displ|| :   0.3132   Lambda : -0.180D-02
Largest |displ|/coords:  0.2387 (   9)  0.0901 (   2)  0.0755 (   4)
................................................................................
.............................. CYCLE   15 ......................................
................................................................................
   1    -41.1219579 -0.411220E+02  0.253E-01    8.73       0.0  T
   2    -41.1219827 -0.247905E-04  0.191E-01    8.74       1.0  T
   3    -41.1220070 -0.242888E-04  0.353E-02    8.76       1.0  T
   4    -41.1220095 -0.255435E-05  0.108E-02    8.75       2.1  T
   5    -41.1220097 -0.147686E-06  0.462E-03    8.75       5.0  T
   6    -41.1220097 -0.179189E-07  0.237E-03    8.75       9.7  T
speedup  1.08
cpu  time for SCC    0.00 s
wall time for SCC    0.00 s
speedup  1.03
cpu  time for grad    0.01 s
wall time for grad    0.01 s
 E :    -40.90830003  G :  0.029699    pred/act E change: -0.377D-02 -0.724D-03
Maxdispl :   0.1181   ||displ|| :   0.2929   Lambda : -0.182D-02
Largest |displ|/coords:  0.1181 (   4)  0.1175 (  12)  0.1157 (   2)
................................................................................
.............................. CYCLE   16 ......................................
................................................................................
   1    -41.1202922 -0.411203E+02  0.227E-01    8.65       0.0  T
   2    -41.1203155 -0.232402E-04  0.171E-01    8.68       1.0  T
   3    -41.1203341 -0.185949E-04  0.354E-02    8.74       1.0  T
   4    -41.1203368 -0.274337E-05  0.132E-02    8.73       1.7  T
   5    -41.1203370 -0.180770E-06  0.376E-03    8.72       6.1  T
   6    -41.1203370 -0.114052E-07  0.218E-03    8.72      10.5  T
speedup  1.08
cpu  time for SCC    0.00 s
wall time for SCC    0.00 s
speedup  1.02
cpu  time for grad    0.01 s
wall time for grad    0.01 s
 E :    -40.90905488  G :  0.027748    pred/act E change: -0.989D-03 -0.755D-03
Maxdispl :   0.1370   ||displ|| :   0.2775   Lambda : -0.141D-02
Largest |displ|/coords:  0.1370 (   1)  0.1264 (   4)  0.0934 (   7)
................................................................................
.............................. CYCLE   17 ......................................
................................................................................
   1    -41.1188021 -0.411188E+02  0.201E-01    8.77       0.0  T
   2    -41.1188200 -0.179382E-04  0.150E-01    8.76       1.0  T
   3    -41.1188312 -0.111823E-04  0.316E-02    8.75       1.0  T
   4    -41.1188334 -0.220709E-05  0.973E-03    8.76       2.4  T
   5    -41.1188335 -0.127127E-06  0.323E-03    8.76       7.1  T
   6    -41.1188336 -0.840255E-08  0.184E-03    8.76      12.5  T
speedup  1.05
cpu  time for SCC    0.00 s
wall time for SCC    0.00 s
speedup  1.02
cpu  time for grad    0.01 s
wall time for grad    0.01 s
 E :    -40.90971299  G :  0.025791    pred/act E change: -0.990D-03 -0.658D-03
Maxdispl :   0.1356   ||displ|| :   0.2846   Lambda : -0.161D-02
Largest |displ|/coords:  0.1356 (   4)  0.1251 (   9)  0.1009 (   3)
................................................................................
.............................. CYCLE   18 ......................................
................................................................................
   1    -41.1298517 -0.411299E+02  0.174E-01    8.91       0.0  T
   2    -41.1298732 -0.214642E-04  0.129E-01    8.90       1.0  T
   3    -41.1298864 -0.131974E-04  0.317E-02    8.87       1.0  T
   4    -41.1298886 -0.216941E-05  0.677E-03    8.88       3.4  T
   5    -41.1298886 -0.519199E-07  0.285E-03    8.88       8.0  T
   6    -41.1298886 -0.381136E-08  0.157E-03    8.88      14.6  T
speedup  0.81
cpu  time for SCC    0.00 s
wall time for SCC    0.00 s
speedup  0.92
cpu  time for grad    0.01 s
wall time for grad    0.01 s
 E :    -40.91004319  G :  0.025984    pred/act E change: -0.758D-03 -0.330D-03
Maxdispl :   0.1635   ||displ|| :   0.3384   Lambda : -0.187D-02
Largest |displ|/coords:  0.1635 (   9)  0.1451 (  14)  0.1139 (  13)
................................................................................
.............................. CYCLE   19 ......................................
................................................................................
   1    -41.1250901 -0.411251E+02  0.265E-01    8.84       0.0  T
   2    -41.1251264 -0.363442E-04  0.198E-01    8.85       1.0  T
   3    -41.1251526 -0.262003E-04  0.409E-02    8.89       1.0  T
   4    -41.1251571 -0.444616E-05  0.988E-03    8.87       2.3  T
   5    -41.1251571 -0.720443E-07  0.486E-03    8.87       4.7  T
   6    -41.1251572 -0.244861E-07  0.150E-03    8.87      15.3  T
speedup  1.08
cpu  time for SCC    0.00 s
wall time for SCC    0.00 s
speedup  1.02
cpu  time for grad    0.01 s
wall time for grad    0.01 s
 E :    -40.91018442  G :  0.032437    pred/act E change: -0.872D-03 -0.141D-03
Maxdispl :   0.1060   ||displ|| :   0.2088   Lambda : -0.199D-02
Largest |displ|/coords:  0.1060 (  11)  0.0935 (  12)  0.0707 (   6)
................................................................................
.............................. CYCLE   20 ......................................
................................................................................
   1    -41.1230948 -0.411231E+02  0.258E-01    8.70       0.0  T
   2    -41.1231221 -0.273794E-04  0.194E-01    8.70       1.0  T
   3    -41.1231398 -0.176578E-04  0.357E-02    8.71       1.0  T
   4    -41.1231433 -0.347020E-05  0.104E-02    8.70       2.2  T
   5    -41.1231435 -0.190718E-06  0.363E-03    8.70       6.3  T
   6    -41.1231435 -0.637132E-08  0.188E-03    8.70      12.2  T
speedup  1.05
cpu  time for SCC    0.00 s
wall time for SCC    0.00 s
speedup  1.01
cpu  time for grad    0.01 s
wall time for grad    0.01 s
 E :    -40.91067700  G :  0.023790    pred/act E change: -0.104D-02 -0.493D-03
Maxdispl :   0.1055   ||displ|| :   0.1807   Lambda : -0.100D-02
Largest |displ|/coords:  0.1055 (   1)  0.0606 (  11)  0.0594 (  10)
................................................................................
.............................. CYCLE   21 ......................................
................................................................................
   1    -41.1223520 -0.411224E+02  0.181E-01    8.80       0.0  T
   2    -41.1223642 -0.122665E-04  0.135E-01    8.81       1.0  T
   3    -41.1223721 -0.787601E-05  0.257E-02    8.82       1.0  T
   4    -41.1223736 -0.153530E-05  0.678E-03    8.82       3.4  T
   5    -41.1223737 -0.563678E-07  0.262E-03    8.82       8.7  T
   6    -41.1223737 -0.483831E-08  0.139E-03    8.82      16.5  T
speedup  1.08
cpu  time for SCC    0.00 s
wall time for SCC    0.00 s
speedup  1.02
cpu  time for grad    0.01 s
wall time for grad    0.01 s
 E :    -40.91091698  G :  0.014071    pred/act E change: -0.104D-02 -0.240D-03
Maxdispl :   0.0440   ||displ|| :   0.1077   Lambda : -0.492D-03
Largest |displ|/coords:  0.0440 (  13)  0.0423 (  10)  0.0403 (   8)
................................................................................
.............................. CYCLE   22 ......................................
................................................................................
   1    -41.1259154 -0.411259E+02  0.103E-01    8.88       0.0  T
   2    -41.1259192 -0.378732E-05  0.777E-02    8.87       1.0  T
   3    -41.1259222 -0.307627E-05  0.130E-02    8.86       1.8  T
   4    -41.1259227 -0.511074E-06  0.478E-03    8.87       4.8  T
   5    -41.1259228 -0.265870E-07  0.165E-03    8.87      13.9  T
   6    -41.1259228 -0.251224E-08  0.858E-04    8.87      26.7  T
speedup  1.08
cpu  time for SCC    0.00 s
wall time for SCC    0.00 s
speedup  1.02
cpu  time for grad    0.01 s
wall time for grad    0.01 s
 E :    -40.91116679  G :  0.006523    pred/act E change: -0.517D-03 -0.250D-03
Maxdispl :   0.1057   ||displ|| :   0.1652   Lambda : -0.221D-03
Largest |displ|/coords:  0.1057 (   9)  0.0584 (   1)  0.0464 (   4)
................................................................................
.............................. CYCLE   23 ......................................
................................................................................
   1    -41.1234808 -0.411235E+02  0.119E-01    8.82       0.0  T
   2    -41.1234840 -0.320644E-05  0.893E-02    8.82       1.0  T
   3    -41.1234878 -0.382832E-05  0.142E-02    8.83       1.6  T
   4    -41.1234880 -0.241415E-06  0.357E-03    8.83       6.4  T
   5    -41.1234880 -0.141798E-07  0.164E-03    8.83      14.0  T
   6    -41.1234880 -0.251011E-08  0.904E-04    8.83      25.4  T
speedup  1.05
cpu  time for SCC    0.00 s
wall time for SCC    0.00 s
speedup  1.00
cpu  time for grad    0.01 s
wall time for grad    0.01 s
 E :    -40.91119626  G :  0.011756    pred/act E change: -0.249D-03 -0.295D-04
Maxdispl :   0.0624   ||displ|| :   0.1295   Lambda : -0.309D-03
Largest |displ|/coords:  0.0624 (   2)  0.0540 (   1)  0.0406 (  15)
................................................................................
.............................. CYCLE   24 ......................................
................................................................................
   1    -41.1222994 -0.411223E+02  0.110E-01    8.77       0.0  T
   2    -41.1223022 -0.288313E-05  0.810E-02    8.77       1.0  T
   3    -41.1223044 -0.213698E-05  0.167E-02    8.77       1.4  T
   4    -41.1223047 -0.280931E-06  0.395E-03    8.77       5.8  T
   5    -41.1223047 -0.214677E-07  0.133E-03    8.77      17.2  T
   6    -41.1223047 -0.155153E-08  0.741E-04    8.77      30.9  T
speedup  1.08
cpu  time for SCC    0.00 s
wall time for SCC    0.00 s
speedup  1.02
cpu  time for grad    0.01 s
wall time for grad    0.01 s
 E :    -40.91136021  G :  0.011032    pred/act E change: -0.114D-03 -0.164D-03
Maxdispl :   0.0838   ||displ|| :   0.1397   Lambda : -0.283D-03
Largest |displ|/coords:  0.0838 (   1)  0.0597 (   2)  0.0421 (   6)
................................................................................
.............................. CYCLE   25 ......................................
................................................................................
   1    -41.1255143 -0.411255E+02  0.972E-02    8.92       0.0  T
   2    -41.1255168 -0.247081E-05  0.721E-02    8.92       1.0  T
   3    -41.1255186 -0.178304E-05  0.122E-02    8.92       1.9  T
   4    -41.1255188 -0.270873E-06  0.436E-03    8.92       5.3  T
   5    -41.1255188 -0.214980E-07  0.119E-03    8.92      19.2  T
   6    -41.1255188 -0.132781E-08  0.728E-04    8.92      31.5  T
speedup  1.08
cpu  time for SCC    0.00 s
wall time for SCC    0.00 s
speedup  1.02
cpu  time for grad    0.01 s
wall time for grad    0.01 s
 E :    -40.91150945  G :  0.007320    pred/act E change: -0.157D-03 -0.149D-03
Maxdispl :   0.1028   ||displ|| :   0.2038   Lambda : -0.221D-03
Largest |displ|/coords:  0.1028 (   1)  0.0850 (   9)  0.0611 (   5)

generating ANC from model Hessian ...
 Shifting diagonal of input Hessian by   5.058737724996776E-003
 Lowest  eigenvalues of input Hessian
    0.005000   -0.000000   -0.000000    0.000000    0.000000    0.000000
    0.000000    0.005317    0.005637    0.006279    0.006502    0.006863
    0.007824    0.008821    0.009921    0.011061    0.015797    0.016804
 Highest eigenvalues
    1.401823    1.412628    1.414159    2.623580    3.273357    3.811332
 
cpu  time for ANC gen    0.00 s
wall time for ANC gen    0.01 s
................................................................................
.............................. CYCLE   26 ......................................
................................................................................
   1    -41.1250369 -0.411250E+02  0.154E-01    8.91       0.0  T
   2    -41.1250402 -0.329565E-05  0.115E-01    8.91       1.0  T
   3    -41.1250439 -0.374556E-05  0.183E-02    8.91       1.3  T
   4    -41.1250442 -0.248540E-06  0.444E-03    8.91       5.2  T
   5    -41.1250442 -0.225341E-07  0.156E-03    8.91      14.8  T
   6    -41.1250442 -0.230588E-08  0.947E-04    8.91      24.2  T
   7    -41.1250442 -0.832976E-09  0.156E-04    8.91     147.3  T
speedup  0.93
cpu  time for SCC    0.00 s
wall time for SCC    0.00 s
speedup  1.03
cpu  time for grad    0.01 s
wall time for grad    0.01 s
 E :    -40.91167283  G :  0.006634    pred/act E change:  0.000D+00 -0.163D-03
Maxdispl :   0.0793   ||displ|| :   0.1496   Lambda : -0.268D-03
Largest |displ|/coords:  0.0793 (   3)  0.0701 (   7)  0.0426 (   2)
................................................................................
.............................. CYCLE   27 ......................................
................................................................................
   1    -41.1249247 -0.411249E+02  0.127E-01    8.92       0.0  T
   2    -41.1249265 -0.181957E-05  0.956E-02    8.93       1.0  T
   3    -41.1249284 -0.186687E-05  0.957E-03    8.94       2.4  T
   4    -41.1249285 -0.166468E-06  0.377E-03    8.94       6.1  T
   5    -41.1249285 -0.109437E-07  0.118E-03    8.93      19.5  T
   6    -41.1249285 -0.100742E-08  0.697E-04    8.93      32.9  T
speedup  1.05
cpu  time for SCC    0.00 s
wall time for SCC    0.00 s
speedup  1.02
cpu  time for grad    0.01 s
wall time for grad    0.01 s
 E :    -40.91187830  G :  0.004255    pred/act E change:  0.000D+00 -0.205D-03
Maxdispl :   0.1575   ||displ|| :   0.3345   Lambda : -0.396D-03
Largest |displ|/coords:  0.1575 (   7)  0.1277 (   2)  0.1271 (   6)
................................................................................
.............................. CYCLE   28 ......................................
................................................................................
   1    -41.1222310 -0.411222E+02  0.298E-01    8.93       0.0  T
   2    -41.1222405 -0.954987E-05  0.225E-01    8.94       1.0  T
   3    -41.1222512 -0.107063E-04  0.220E-02    8.97       1.0  T
   4    -41.1222520 -0.728595E-06  0.734E-03    8.96       3.1  T
   5    -41.1222520 -0.404962E-07  0.289E-03    8.96       7.9  T
   6    -41.1222520 -0.705894E-08  0.162E-03    8.96      14.1  T
speedup  1.08
cpu  time for SCC    0.00 s
wall time for SCC    0.00 s
speedup  1.02
cpu  time for grad    0.01 s
wall time for grad    0.01 s
 E :    -40.91208417  G :  0.011915    pred/act E change: -0.137D-03 -0.206D-03
Maxdispl :   0.0382   ||displ|| :   0.0720   Lambda : -0.147D-03
Largest |displ|/coords:  0.0382 (   2)  0.0331 (   9)  0.0251 (  10)
................................................................................
.............................. CYCLE   29 ......................................
................................................................................
   1    -41.1237760 -0.411238E+02  0.497E-02    8.97       0.0  T
   2    -41.1237772 -0.119784E-05  0.370E-02    8.97       1.0  T
   3    -41.1237780 -0.865654E-06  0.747E-03    8.96       3.1  T
   4    -41.1237782 -0.131461E-06  0.223E-03    8.97      10.3  T
   5    -41.1237782 -0.571842E-08  0.750E-04    8.97      30.6  T
speedup  0.97
cpu  time for SCC    0.00 s
wall time for SCC    0.00 s
speedup  0.98
cpu  time for grad    0.01 s
wall time for grad    0.01 s
 E :    -40.91217501  G :  0.004881    pred/act E change: -0.220D-03 -0.908D-04
Maxdispl :   0.0821   ||displ|| :   0.1534   Lambda : -0.124D-03
Largest |displ|/coords:  0.0821 (   7)  0.0608 (   2)  0.0593 (   9)
................................................................................
.............................. CYCLE   30 ......................................
................................................................................
   1    -41.1238485 -0.411238E+02  0.128E-01    8.96       0.0  T
   2    -41.1238505 -0.207621E-05  0.967E-02    8.97       1.0  T
   3    -41.1238530 -0.251668E-05  0.954E-03    8.97       2.4  T
   4    -41.1238532 -0.132163E-06  0.286E-03    8.97       8.0  T
   5    -41.1238532 -0.817029E-08  0.117E-03    8.97      19.7  T
speedup  0.97
cpu  time for SCC    0.00 s
wall time for SCC    0.00 s
speedup  0.99
cpu  time for grad    0.01 s
wall time for grad    0.01 s
 E :    -40.91226151  G :  0.003291    pred/act E change: -0.741D-04 -0.865D-04
Maxdispl :   0.1089   ||displ|| :   0.1901   Lambda : -0.100D-03
Largest |displ|/coords:  0.1089 (   7)  0.0802 (   2)  0.0694 (   4)
................................................................................
.............................. CYCLE   31 ......................................
................................................................................
   1    -41.1226999 -0.411227E+02  0.161E-01    8.96       0.0  T
   2    -41.1227032 -0.323342E-05  0.122E-01    8.97       1.0  T
   3    -41.1227070 -0.381420E-05  0.125E-02    8.98       1.8  T
   4    -41.1227072 -0.243425E-06  0.463E-03    8.97       5.0  T
   5    -41.1227072 -0.177446E-07  0.149E-03    8.97      15.4  T
   6    -41.1227073 -0.198677E-08  0.871E-04    8.97      26.3  T
   7    -41.1227073 -0.899078E-09  0.168E-04    8.97     136.8  T
speedup  0.93
cpu  time for SCC    0.00 s
wall time for SCC    0.00 s
speedup  0.93
cpu  time for grad    0.01 s
wall time for grad    0.01 s
 E :    -40.91232173  G :  0.004165    pred/act E change: -0.635D-04 -0.602D-04
Maxdispl :   0.0554   ||displ|| :   0.1046   Lambda : -0.657D-04
Largest |displ|/coords:  0.0554 (   2)  0.0458 (   7)  0.0358 (   9)
................................................................................
.............................. CYCLE   32 ......................................
................................................................................
   1    -41.1233173 -0.411233E+02  0.828E-02    8.98       0.0  T
   2    -41.1233184 -0.112950E-05  0.623E-02    8.98       1.0  T
   3    -41.1233194 -0.937282E-06  0.857E-03    8.98       2.7  T
   4    -41.1233195 -0.147683E-06  0.330E-03    8.98       7.0  T
   5    -41.1233195 -0.832766E-08  0.756E-04    8.98      30.3  T
   6    -41.1233195 -0.472085E-09  0.484E-04    8.98      47.4  T
speedup  1.08
cpu  time for SCC    0.00 s
wall time for SCC    0.00 s
speedup  1.12
cpu  time for grad    0.01 s
wall time for grad    0.01 s
 E :    -40.91236568  G :  0.004351    pred/act E change: -0.519D-04 -0.439D-04
Maxdispl :   0.1120   ||displ|| :   0.1633   Lambda : -0.705D-04
Largest |displ|/coords:  0.1120 (   2)  0.0490 (   7)  0.0460 (   4)
................................................................................
.............................. CYCLE   33 ......................................
................................................................................
   1    -41.1233396 -0.411233E+02  0.114E-01    8.98       0.0  T
   2    -41.1233412 -0.165807E-05  0.853E-02    8.99       1.0  T
   3    -41.1233424 -0.118050E-05  0.107E-02    8.99       2.2  T
   4    -41.1233427 -0.248758E-06  0.374E-03    8.99       6.1  T
   5    -41.1233427 -0.103817E-07  0.906E-04    8.99      25.3  T
   6    -41.1233427 -0.598753E-09  0.569E-04    8.99      40.3  T
speedup  0.79
cpu  time for SCC    0.00 s
wall time for SCC    0.00 s
speedup  1.01
cpu  time for grad    0.01 s
wall time for grad    0.01 s
 E :    -40.91241465  G :  0.003222    pred/act E change: -0.332D-04 -0.490D-04
Maxdispl :   0.1555   ||displ|| :   0.2130   Lambda : -0.758D-04
Largest |displ|/coords:  0.1555 (   2)  0.0705 (   1)  0.0488 (   4)
................................................................................
.............................. CYCLE   34 ......................................
................................................................................
   1    -41.1233718 -0.411234E+02  0.136E-01    9.00       0.0  T
   2    -41.1233738 -0.203171E-05  0.102E-01    9.00       1.0  T
   3    -41.1233755 -0.167792E-05  0.122E-02    9.00       1.9  T
   4    -41.1233758 -0.277603E-06  0.423E-03    9.00       5.4  T
   5    -41.1233758 -0.116171E-07  0.109E-03    9.00      21.1  T
   6    -41.1233758 -0.838007E-09  0.679E-04    9.00      33.8  T
   7    -41.1233758 -0.476284E-09  0.162E-04    9.00     141.2  T
speedup  0.93
cpu  time for SCC    0.00 s
wall time for SCC    0.00 s
speedup  0.93
cpu  time for grad    0.01 s
wall time for grad    0.01 s
 E :    -40.91245732  G :  0.004976    pred/act E change: -0.362D-04 -0.427D-04
Maxdispl :   0.1496   ||displ|| :   0.1964   Lambda : -0.990D-04
Largest |displ|/coords:  0.1496 (   2)  0.0503 (  13)  0.0416 (   8)
................................................................................
.............................. CYCLE   35 ......................................
................................................................................
   1    -41.1258016 -0.411258E+02  0.954E-02    9.03       0.0  T
   2    -41.1258042 -0.264407E-05  0.710E-02    9.03       1.0  T
   3    -41.1258062 -0.199081E-05  0.134E-02    9.03       1.7  T
   4    -41.1258065 -0.331529E-06  0.404E-03    9.03       5.7  T
   5    -41.1258066 -0.214647E-07  0.128E-03    9.03      17.9  T
   6    -41.1258066 -0.128163E-08  0.756E-04    9.03      30.3  T
speedup  1.08
cpu  time for SCC    0.00 s
wall time for SCC    0.00 s
speedup  1.02
cpu  time for grad    0.01 s
wall time for grad    0.01 s
 E :    -40.91248145  G :  0.008388    pred/act E change: -0.396D-04 -0.241D-04
Maxdispl :   0.1310   ||displ|| :   0.1663   Lambda : -0.966D-04
Largest |displ|/coords:  0.1310 (   2)  0.0501 (   3)  0.0428 (   1)
................................................................................
.............................. CYCLE   36 ......................................
................................................................................
   1    -41.1245551 -0.411246E+02  0.929E-02    9.02       0.0  T
   2    -41.1245564 -0.128460E-05  0.699E-02    9.02       1.0  T
   3    -41.1245572 -0.873008E-06  0.774E-03    9.03       3.0  T
   4    -41.1245574 -0.197290E-06  0.217E-03    9.03      10.6  T
   5    -41.1245574 -0.717042E-08  0.835E-04    9.03      27.5  T
speedup  0.97
cpu  time for SCC    0.00 s
wall time for SCC    0.00 s
speedup  0.98
cpu  time for grad    0.01 s
wall time for grad    0.01 s
 E :    -40.91255498  G :  0.004685    pred/act E change: -0.514D-04 -0.735D-04
Maxdispl :   0.2397   ||displ|| :   0.3068   Lambda : -0.143D-03
Largest |displ|/coords:  0.2397 (   2)  0.0903 (   3)  0.0890 (   1)
................................................................................
.............................. CYCLE   37 ......................................
................................................................................
   1    -41.1233027 -0.411233E+02  0.145E-01    9.00       0.0  T
   2    -41.1233056 -0.284502E-05  0.109E-01    9.00       1.0  T
   3    -41.1233073 -0.177427E-05  0.110E-02    9.01       2.1  T
   4    -41.1233078 -0.460878E-06  0.316E-03    9.01       7.3  T
   5    -41.1233078 -0.201118E-07  0.115E-03    9.01      20.0  T
   6    -41.1233078 -0.242473E-09  0.624E-04    9.01      36.7  T
speedup  0.81
cpu  time for SCC    0.00 s
wall time for SCC    0.00 s
speedup  1.03
cpu  time for grad    0.01 s
wall time for grad    0.01 s
 E :    -40.91265092  G :  0.006060    pred/act E change: -0.496D-04 -0.959D-04
Maxdispl :   0.1883   ||displ|| :   0.2583   Lambda : -0.122D-03
Largest |displ|/coords:  0.1883 (   2)  0.0764 (   9)  0.0717 (   1)
................................................................................
.............................. CYCLE   38 ......................................
................................................................................
   1    -41.1235036 -0.411235E+02  0.119E-01    8.99       0.0  T
   2    -41.1235054 -0.178511E-05  0.891E-02    8.99       1.0  T
   3    -41.1235070 -0.157666E-05  0.107E-02    8.99       2.2  T
   4    -41.1235072 -0.231378E-06  0.323E-03    8.99       7.1  T
   5    -41.1235072 -0.110656E-07  0.112E-03    8.99      20.5  T
   6    -41.1235072 -0.946926E-09  0.577E-04    8.99      39.8  T
speedup  1.08
cpu  time for SCC    0.00 s
wall time for SCC    0.00 s
speedup  1.02
cpu  time for grad    0.01 s
wall time for grad    0.01 s
 E :    -40.91273716  G :  0.006330    pred/act E change: -0.780D-04 -0.862D-04
Maxdispl :   0.3883   ||displ|| :   0.4900   Lambda : -0.154D-03
Largest |displ|/coords:  0.3883 (   2)  0.1591 (   1)  0.1233 (   3)
................................................................................
.............................. CYCLE   39 ......................................
................................................................................
   1    -41.1212867 -0.411213E+02  0.231E-01    8.94       0.0  T
   2    -41.1212927 -0.602791E-05  0.174E-01    8.94       1.0  T
   3    -41.1212973 -0.462414E-05  0.155E-02    8.94       1.5  T
   4    -41.1212982 -0.897022E-06  0.631E-03    8.94       3.6  T
   5    -41.1212982 -0.451788E-07  0.212E-03    8.94      10.8  T
   6    -41.1212982 -0.240111E-08  0.110E-03    8.94      20.8  T
speedup  1.05
cpu  time for SCC    0.00 s
wall time for SCC    0.00 s
speedup  1.01
cpu  time for grad    0.01 s
wall time for grad    0.01 s
 E :    -40.91278608  G :  0.012644    pred/act E change: -0.649D-04 -0.489D-04
Maxdispl :   0.0806   ||displ|| :   0.1646   Lambda : -0.239D-03
Largest |displ|/coords:  0.0806 (   9)  0.0784 (   7)  0.0587 (   1)
................................................................................
.............................. CYCLE   40 ......................................
................................................................................
   1    -41.1233955 -0.411234E+02  0.124E-01    8.92       0.0  T
   2    -41.1233989 -0.333367E-05  0.930E-02    8.92       1.0  T
   3    -41.1234017 -0.278958E-05  0.151E-02    8.92       1.5  T
   4    -41.1234021 -0.407507E-06  0.467E-03    8.92       4.9  T
   5    -41.1234021 -0.254102E-07  0.148E-03    8.92      15.5  T
   6    -41.1234021 -0.207630E-08  0.880E-04    8.92      26.1  T
speedup  1.08
cpu  time for SCC    0.00 s
wall time for SCC    0.00 s
speedup  1.02
cpu  time for grad    0.01 s
wall time for grad    0.01 s
 E :    -40.91289300  G :  0.007773    pred/act E change: -0.954D-04 -0.107D-03
Maxdispl :   0.0795   ||displ|| :   0.1207   Lambda : -0.114D-03
Largest |displ|/coords:  0.0795 (   2)  0.0616 (   1)  0.0239 (  14)
................................................................................
.............................. CYCLE   41 ......................................
................................................................................
   1    -41.1239526 -0.411240E+02  0.726E-02    8.92       0.0  T
   2    -41.1239534 -0.789875E-06  0.546E-02    8.92       1.0  T
   3    -41.1239538 -0.464886E-06  0.669E-03    8.92       3.4  T
   4    -41.1239540 -0.137532E-06  0.253E-03    8.92       9.1  T
   5    -41.1239540 -0.520042E-08  0.585E-04    8.92      39.2  T
speedup  1.21
cpu  time for SCC    0.00 s
wall time for SCC    0.00 s
speedup  1.08
cpu  time for grad    0.01 s
wall time for grad    0.01 s
 E :    -40.91297069  G :  0.003925    pred/act E change: -0.122D-03 -0.777D-04
Maxdispl :   0.2892   ||displ|| :   0.3798   Lambda : -0.150D-03
Largest |displ|/coords:  0.2892 (   2)  0.1696 (   1)  0.0783 (  13)
................................................................................
.............................. CYCLE   42 ......................................
................................................................................
   1    -41.1226616 -0.411227E+02  0.191E-01    8.91       0.0  T
   2    -41.1226652 -0.361838E-05  0.144E-01    8.91       1.0  T
   3    -41.1226680 -0.277839E-05  0.122E-02    8.92       1.9  T
   4    -41.1226685 -0.560620E-06  0.595E-03    8.92       3.9  T
   5    -41.1226686 -0.261047E-07  0.151E-03    8.92      15.2  T
   6    -41.1226686 -0.162019E-08  0.879E-04    8.92      26.1  T
   7    -41.1226686 -0.804540E-09  0.312E-04    8.92      73.6  T
speedup  0.93
cpu  time for SCC    0.00 s
wall time for SCC    0.00 s
speedup  0.93
cpu  time for grad    0.01 s
wall time for grad    0.01 s
 E :    -40.91304892  G :  0.007979    pred/act E change: -0.579D-04 -0.782D-04
Maxdispl :   0.0419   ||displ|| :   0.1039   Lambda : -0.107D-03
Largest |displ|/coords:  0.0419 (   1)  0.0386 (   8)  0.0375 (   2)
................................................................................
.............................. CYCLE   43 ......................................
................................................................................
   1    -41.1243878 -0.411244E+02  0.903E-02    8.93       0.0  T
   2    -41.1243893 -0.153981E-05  0.676E-02    8.92       1.0  T
   3    -41.1243908 -0.150924E-05  0.102E-02    8.92       2.3  T
   4    -41.1243910 -0.139103E-06  0.400E-03    8.92       5.7  T
   5    -41.1243910 -0.143045E-07  0.113E-03    8.92      20.2  T
   6    -41.1243910 -0.103083E-08  0.689E-04    8.92      33.3  T
speedup  1.03
cpu  time for SCC    0.00 s
wall time for SCC    0.00 s
speedup  1.01
cpu  time for grad    0.01 s
wall time for grad    0.01 s
 E :    -40.91306289  G :  0.010724    pred/act E change: -0.860D-04 -0.140D-04
Maxdispl :   0.1212   ||displ|| :   0.1712   Lambda : -0.151D-03
Largest |displ|/coords:  0.1212 (   2)  0.0756 (   1)  0.0460 (  13)
................................................................................
.............................. CYCLE   44 ......................................
................................................................................
   1    -41.1252556 -0.411253E+02  0.708E-02    8.92       0.0  T
   2    -41.1252572 -0.157262E-05  0.531E-02    8.92       1.0  T
   3    -41.1252582 -0.972491E-06  0.883E-03    8.93       2.6  T
   4    -41.1252584 -0.228063E-06  0.358E-03    8.92       6.4  T
   5    -41.1252584 -0.148000E-07  0.890E-04    8.92      25.8  T
   6    -41.1252584 -0.698464E-09  0.512E-04    8.92      44.8  T
speedup  1.05
cpu  time for SCC    0.00 s
wall time for SCC    0.00 s
speedup  1.02
cpu  time for grad    0.01 s
wall time for grad    0.01 s
 E :    -40.91312836  G :  0.004513    pred/act E change: -0.539D-04 -0.655D-04
Maxdispl :   0.1865   ||displ|| :   0.2531   Lambda : -0.831D-04
Largest |displ|/coords:  0.1865 (   2)  0.1007 (   1)  0.0642 (   7)
................................................................................
.............................. CYCLE   45 ......................................
................................................................................
   1    -41.1226770 -0.411227E+02  0.129E-01    8.89       0.0  T
   2    -41.1226793 -0.236795E-05  0.968E-02    8.89       1.0  T
   3    -41.1226819 -0.256453E-05  0.101E-02    8.90       2.3  T
   4    -41.1226821 -0.230157E-06  0.422E-03    8.90       5.4  T
   5    -41.1226822 -0.159700E-07  0.143E-03    8.90      16.1  T
   6    -41.1226822 -0.190049E-08  0.783E-04    8.90      29.3  T
speedup  0.81
cpu  time for SCC    0.00 s
wall time for SCC    0.00 s
speedup  0.92
cpu  time for grad    0.01 s
wall time for grad    0.01 s
 E :    -40.91314411  G :  0.006593    pred/act E change: -0.779D-04 -0.158D-04
Maxdispl :   0.0400   ||displ|| :   0.0845   Lambda : -0.737D-04
Largest |displ|/coords:  0.0400 (   7)  0.0384 (   2)  0.0354 (   5)
................................................................................
.............................. CYCLE   46 ......................................
................................................................................
   1    -41.1242019 -0.411242E+02  0.637E-02    8.95       0.0  T
   2    -41.1242028 -0.913414E-06  0.477E-02    8.95       1.0  T
   3    -41.1242036 -0.721437E-06  0.717E-03    8.95       3.2  T
   4    -41.1242037 -0.114361E-06  0.278E-03    8.95       8.2  T
   5    -41.1242037 -0.891129E-08  0.803E-04    8.95      28.6  T
speedup  1.25
cpu  time for SCC    0.00 s
wall time for SCC    0.00 s
speedup  1.08
cpu  time for grad    0.01 s
wall time for grad    0.01 s
 E :    -40.91318316  G :  0.004190    pred/act E change: -0.442D-04 -0.390D-04
Maxdispl :   0.0739   ||displ|| :   0.1067   Lambda : -0.337D-04
Largest |displ|/coords:  0.0739 (   2)  0.0551 (   1)  0.0205 (   5)
................................................................................
.............................. CYCLE   47 ......................................
................................................................................
   1    -41.1248190 -0.411248E+02  0.594E-02    8.96       0.0  T
   2    -41.1248194 -0.389892E-06  0.447E-02    8.96       1.0  T
   3    -41.1248197 -0.273483E-06  0.421E-03    8.96       5.4  T
   4    -41.1248198 -0.587999E-07  0.140E-03    8.96      16.4  T
   5    -41.1248198 -0.318772E-08  0.536E-04    8.96      42.8  T
speedup  1.29
cpu  time for SCC    0.00 s
wall time for SCC    0.00 s
speedup  1.10
cpu  time for grad    0.01 s
wall time for grad    0.01 s
 E :    -40.91320695  G :  0.003325    pred/act E change: -0.371D-04 -0.238D-04
Maxdispl :   0.1560   ||displ|| :   0.2241   Lambda : -0.517D-04
Largest |displ|/coords:  0.1560 (   2)  0.1160 (   1)  0.0561 (   5)
................................................................................
.............................. CYCLE   48 ......................................
................................................................................
   1    -41.1255893 -0.411256E+02  0.117E-01    8.97       0.0  T
   2    -41.1255907 -0.136814E-05  0.882E-02    8.97       1.0  T
   3    -41.1255918 -0.108880E-05  0.819E-03    8.97       2.8  T
   4    -41.1255920 -0.190004E-06  0.307E-03    8.97       7.5  T
   5    -41.1255920 -0.127805E-07  0.110E-03    8.97      20.9  T
   6    -41.1255920 -0.879602E-09  0.631E-04    8.97      36.4  T
   7    -41.1255920 -0.587043E-09  0.121E-04    8.97     189.3  T
speedup  1.16
cpu  time for SCC    0.01 s
wall time for SCC    0.00 s
speedup  1.03
cpu  time for grad    0.01 s
wall time for grad    0.01 s
 E :    -40.91324407  G :  0.002989    pred/act E change: -0.170D-04 -0.371D-04
Maxdispl :   0.2412   ||displ|| :   0.3305   Lambda : -0.497D-04
Largest |displ|/coords:  0.2412 (   2)  0.1711 (   1)  0.0646 (   5)
................................................................................
.............................. CYCLE   49 ......................................
................................................................................
   1    -41.1247687 -0.411248E+02  0.166E-01    8.96       0.0  T
   2    -41.1247704 -0.169382E-05  0.125E-01    8.96       1.0  T
   3    -41.1247721 -0.173317E-05  0.101E-02    8.97       2.3  T
   4    -41.1247723 -0.169410E-06  0.354E-03    8.96       6.5  T
   5    -41.1247723 -0.109625E-07  0.131E-03    8.96      17.5  T
   6    -41.1247723 -0.130392E-08  0.701E-04    8.96      32.7  T
   7    -41.1247723 -0.495163E-09  0.141E-04    8.96     162.4  T
speedup  1.14
cpu  time for SCC    0.01 s
wall time for SCC    0.00 s
speedup  1.02
cpu  time for grad    0.01 s
wall time for grad    0.01 s
 E :    -40.91326602  G :  0.004856    pred/act E change: -0.272D-04 -0.219D-04
Maxdispl :   0.0545   ||displ|| :   0.0963   Lambda : -0.548D-04
Largest |displ|/coords:  0.0545 (   5)  0.0516 (   1)  0.0342 (   2)
................................................................................
.............................. CYCLE   50 ......................................
................................................................................
   1    -41.1258970 -0.411259E+02  0.634E-02    8.96       0.0  T
   2    -41.1258982 -0.120847E-05  0.466E-02    8.96       1.0  T
   3    -41.1258990 -0.745938E-06  0.900E-03    8.95       2.5  T
   4    -41.1258991 -0.138581E-06  0.311E-03    8.95       7.4  T
   5    -41.1258991 -0.126754E-07  0.901E-04    8.95      25.5  T
   6    -41.1258991 -0.805805E-09  0.503E-04    8.95      45.6  T
speedup  0.81
cpu  time for SCC    0.00 s
wall time for SCC    0.00 s
speedup  0.92
cpu  time for grad    0.01 s
wall time for grad    0.01 s
 E :    -40.91329153  G :  0.003340    pred/act E change: -0.276D-04 -0.255D-04
Maxdispl :   0.0480   ||displ|| :   0.0790   Lambda : -0.268D-04
Largest |displ|/coords:  0.0480 (   2)  0.0349 (   1)  0.0248 (   4)
................................................................................
.............................. CYCLE   51 ......................................
................................................................................
   1    -41.1262650 -0.411263E+02  0.516E-02    8.95       0.0  T
   2    -41.1262652 -0.226552E-06  0.382E-02    8.95       1.0  T
   3    -41.1262654 -0.188726E-06  0.581E-03    8.95       3.9  T
   4    -41.1262654 -0.233491E-07  0.134E-03    8.95      17.2  T
   5    -41.1262654 -0.197014E-08  0.380E-04    8.95      60.4  T
   6    -41.1262654 -0.109843E-09  0.227E-04    8.95     101.1  T
speedup  1.03
cpu  time for SCC    0.00 s
wall time for SCC    0.00 s
speedup  1.09
cpu  time for grad    0.01 s
wall time for grad    0.01 s
 E :    -40.91331017  G :  0.002865    pred/act E change: -0.276D-04 -0.186D-04
Maxdispl :   0.1455   ||displ|| :   0.2205   Lambda : -0.438D-04
Largest |displ|/coords:  0.1455 (   2)  0.1168 (   1)  0.0698 (   5)
................................................................................
.............................. CYCLE   52 ......................................
................................................................................
   1    -41.1252866 -0.411253E+02  0.127E-01    8.93       0.0  T
   2    -41.1252876 -0.939704E-06  0.940E-02    8.93       1.0  T
   3    -41.1252885 -0.905983E-06  0.120E-02    8.93       1.9  T
   4    -41.1252886 -0.777204E-07  0.268E-03    8.93       8.6  T
   5    -41.1252886 -0.917942E-08  0.927E-04    8.93      24.7  T
   6    -41.1252886 -0.741018E-09  0.564E-04    8.93      40.7  T
speedup  0.79
cpu  time for SCC    0.00 s
wall time for SCC    0.00 s
speedup  0.99
cpu  time for grad    0.01 s
wall time for grad    0.01 s
 E :    -40.91332927  G :  0.004465    pred/act E change: -0.135D-04 -0.191D-04
Maxdispl :   0.0243   ||displ|| :   0.0463   Lambda : -0.291D-04
Largest |displ|/coords:  0.0243 (   8)  0.0231 (  10)  0.0108 (   4)

generating ANC from model Hessian ...
 Shifting diagonal of input Hessian by   5.129398725553991E-003
 Lowest  eigenvalues of input Hessian
    0.005000   -0.000000   -0.000000   -0.000000    0.000000    0.000000
    0.000000    0.005362    0.005640    0.006404    0.006936    0.007080
    0.007366    0.008805    0.009300    0.010169    0.018047    0.018768
 Highest eigenvalues
    1.402625    1.406853    1.409421    2.624520    3.229518    3.868135
 
cpu  time for ANC gen    0.01 s
wall time for ANC gen    0.01 s
................................................................................
.............................. CYCLE   53 ......................................
................................................................................
   1    -41.1257408 -0.411257E+02  0.377E-02    8.92       0.0  T
   2    -41.1257410 -0.223004E-06  0.280E-02    8.92       1.0  T
   3    -41.1257412 -0.219855E-06  0.419E-03    8.92       5.5  T
   4    -41.1257413 -0.176427E-07  0.990E-04    8.92      23.2  T
   5    -41.1257413 -0.147521E-08  0.404E-04    8.92      56.8  T
speedup  0.97
cpu  time for SCC    0.00 s
wall time for SCC    0.00 s
speedup  1.07
cpu  time for grad    0.01 s
wall time for grad    0.01 s
 E :    -40.91334739  G :  0.003262    pred/act E change:  0.000D+00 -0.181D-04
Maxdispl :   0.0244   ||displ|| :   0.0405   Lambda : -0.266D-04
Largest |displ|/coords:  0.0244 (   2)  0.0145 (   1)  0.0142 (   7)
................................................................................
.............................. CYCLE   54 ......................................
................................................................................
   1    -41.1255646 -0.411256E+02  0.446E-02    8.93       0.0  T
   2    -41.1255648 -0.161910E-06  0.336E-02    8.93       1.0  T
   3    -41.1255650 -0.199988E-06  0.324E-03    8.93       7.1  T
   4    -41.1255650 -0.808122E-08  0.798E-04    8.93      28.7  T
   5    -41.1255650 -0.645052E-09  0.359E-04    8.93      64.0  T
speedup  1.29
cpu  time for SCC    0.00 s
wall time for SCC    0.00 s
speedup  1.06
cpu  time for grad    0.01 s
wall time for grad    0.01 s
 E :    -40.91336783  G :  0.001494    pred/act E change:  0.000D+00 -0.204D-04
Maxdispl :   0.0479   ||displ|| :   0.0764   Lambda : -0.281D-04
Largest |displ|/coords:  0.0479 (   2)  0.0352 (   1)  0.0272 (  11)
................................................................................
.............................. CYCLE   55 ......................................
................................................................................
   1    -41.1252642 -0.411253E+02  0.805E-02    8.94       0.0  T
   2    -41.1252646 -0.362312E-06  0.607E-02    8.94       1.0  T
   3    -41.1252650 -0.452808E-06  0.462E-03    8.94       5.0  T
   4    -41.1252651 -0.138414E-07  0.131E-03    8.94      17.6  T
   5    -41.1252651 -0.156962E-08  0.527E-04    8.94      43.5  T
   6    -41.1252651 -0.177792E-09  0.283E-04    8.94      81.0  T
speedup  1.05
cpu  time for SCC    0.00 s
wall time for SCC    0.00 s
speedup  0.99
cpu  time for grad    0.01 s
wall time for grad    0.01 s
 E :    -40.91338465  G :  0.001768    pred/act E change: -0.133D-04 -0.168D-04
Maxdispl :   0.0309   ||displ|| :   0.0486   Lambda : -0.843D-05
Largest |displ|/coords:  0.0309 (   2)  0.0293 (   1)  0.0147 (  11)
................................................................................
.............................. CYCLE   56 ......................................
................................................................................
   1    -41.1252879 -0.411253E+02  0.425E-02    8.95       0.0  T
   2    -41.1252881 -0.121879E-06  0.321E-02    8.95       1.0  T
   3    -41.1252882 -0.125596E-06  0.223E-03    8.94      10.3  T
   4    -41.1252882 -0.112807E-07  0.926E-04    8.94      24.8  T
   5    -41.1252882 -0.470507E-09  0.294E-04    8.94      78.0  T
speedup  0.97
cpu  time for SCC    0.00 s
wall time for SCC    0.00 s
speedup  0.95
cpu  time for grad    0.01 s
wall time for grad    0.01 s
 E :    -40.91339100  G :  0.001555    pred/act E change: -0.141D-04 -0.635D-05
Maxdispl :   0.0564   ||displ|| :   0.0834   Lambda : -0.118D-04
Largest |displ|/coords:  0.0564 (   1)  0.0485 (   2)  0.0238 (  11)
................................................................................
.............................. CYCLE   57 ......................................
................................................................................
   1    -41.1254727 -0.411255E+02  0.639E-02    8.95       0.0  T
   2    -41.1254730 -0.284925E-06  0.482E-02    8.95       1.0  T
   3    -41.1254733 -0.251477E-06  0.331E-03    8.94       6.9  T
   4    -41.1254733 -0.341301E-07  0.127E-03    8.94      18.1  T
   5    -41.1254733 -0.105815E-08  0.471E-04    8.94      48.7  T
   6    -41.1254733 -0.131038E-09  0.241E-04    8.94      95.0  T
speedup  1.08
cpu  time for SCC    0.00 s
wall time for SCC    0.00 s
speedup  0.99
cpu  time for grad    0.01 s
wall time for grad    0.01 s
 E :    -40.91339888  G :  0.000833    pred/act E change: -0.422D-05 -0.788D-05
Maxdispl :   0.0590   ||displ|| :   0.0749   Lambda : -0.724D-05
Largest |displ|/coords:  0.0590 (   1)  0.0352 (   2)  0.0127 (   4)
................................................................................
.............................. CYCLE   58 ......................................
................................................................................
   1    -41.1256411 -0.411256E+02  0.469E-02    8.94       0.0  T
   2    -41.1256412 -0.166579E-06  0.352E-02    8.94       1.0  T
   3    -41.1256414 -0.157953E-06  0.308E-03    8.94       7.5  T
   4    -41.1256414 -0.177660E-07  0.887E-04    8.94      25.9  T
   5    -41.1256414 -0.675428E-09  0.379E-04    8.94      60.5  T
speedup  0.94
cpu  time for SCC    0.00 s
wall time for SCC    0.00 s
speedup  1.06
cpu  time for grad    0.01 s
wall time for grad    0.01 s
 E :    -40.91340466  G :  0.001110    pred/act E change: -0.596D-05 -0.578D-05
Maxdispl :   0.1533   ||displ|| :   0.1893   Lambda : -0.157D-04
Largest |displ|/coords:  0.1533 (   1)  0.0814 (   2)  0.0378 (   4)
................................................................................
.............................. CYCLE   59 ......................................
................................................................................
   1    -41.1255633 -0.411256E+02  0.115E-01    8.93       0.0  T
   2    -41.1255641 -0.840037E-06  0.864E-02    8.93       1.0  T
   3    -41.1255651 -0.958513E-06  0.770E-03    8.92       3.0  T
   4    -41.1255651 -0.605665E-07  0.215E-03    8.92      10.7  T
   5    -41.1255652 -0.465041E-08  0.927E-04    8.92      24.8  T
   6    -41.1255652 -0.677787E-09  0.473E-04    8.92      48.5  T
speedup  0.81
cpu  time for SCC    0.00 s
wall time for SCC    0.00 s
speedup  1.00
cpu  time for grad    0.01 s
wall time for grad    0.01 s
 E :    -40.91341731  G :  0.002209    pred/act E change: -0.364D-05 -0.126D-04
Maxdispl :   0.2994   ||displ|| :   0.3595   Lambda : -0.288D-04
Largest |displ|/coords:  0.2994 (   1)  0.1423 (   2)  0.0736 (   4)
................................................................................
.............................. CYCLE   60 ......................................
................................................................................
   1    -41.1245534 -0.411246E+02  0.206E-01    8.89       0.0  T
   2    -41.1245562 -0.286440E-05  0.155E-01    8.89       1.0  T
   3    -41.1245597 -0.340045E-05  0.159E-02    8.88       1.4  T
   4    -41.1245598 -0.195241E-06  0.434E-03    8.88       5.3  T
   5    -41.1245599 -0.203806E-07  0.181E-03    8.88      12.7  T
   6    -41.1245599 -0.283137E-08  0.943E-04    8.88      24.3  T
   7    -41.1245599 -0.923031E-09  0.187E-04    8.88     122.6  T
speedup  0.91
cpu  time for SCC    0.00 s
wall time for SCC    0.00 s
speedup  0.91
cpu  time for grad    0.01 s
wall time for grad    0.01 s
 E :    -40.91343127  G :  0.005289    pred/act E change: -0.814D-05 -0.140D-04
Maxdispl :   0.0252   ||displ|| :   0.0455   Lambda : -0.298D-04
Largest |displ|/coords:  0.0252 (   1)  0.0214 (  11)  0.0167 (   4)
................................................................................
.............................. CYCLE   61 ......................................
................................................................................
   1    -41.1255619 -0.411256E+02  0.402E-02    8.88       0.0  T
   2    -41.1255623 -0.387802E-06  0.300E-02    8.88       1.0  T
   3    -41.1255626 -0.284026E-06  0.518E-03    8.89       4.4  T
   4    -41.1255627 -0.480907E-07  0.151E-03    8.89      15.1  T
   5    -41.1255627 -0.279810E-08  0.446E-04    8.89      51.4  T
speedup  0.94
cpu  time for SCC    0.00 s
wall time for SCC    0.00 s
speedup  0.98
cpu  time for grad    0.01 s
wall time for grad    0.01 s
 E :    -40.91344925  G :  0.004141    pred/act E change: -0.163D-04 -0.180D-04
Maxdispl :   0.1865   ||displ|| :   0.2156   Lambda : -0.440D-04
Largest |displ|/coords:  0.1865 (   1)  0.0755 (   2)  0.0432 (   4)
................................................................................
.............................. CYCLE   62 ......................................
................................................................................
   1    -41.1255763 -0.411256E+02  0.112E-01    8.88       0.0  T
   2    -41.1255774 -0.115952E-05  0.839E-02    8.88       1.0  T
   3    -41.1255785 -0.105857E-05  0.108E-02    8.89       2.1  T
   4    -41.1255786 -0.129309E-06  0.294E-03    8.88       7.8  T
   5    -41.1255786 -0.859259E-08  0.959E-04    8.88      23.9  T
speedup  0.97
cpu  time for SCC    0.00 s
wall time for SCC    0.00 s
speedup  0.99
cpu  time for grad    0.01 s
wall time for grad    0.01 s
 E :    -40.91348338  G :  0.002180    pred/act E change: -0.149D-04 -0.341D-04
Maxdispl :   0.5084   ||displ|| :   0.6039   Lambda : -0.890D-04
Largest |displ|/coords:  0.5084 (   1)  0.2055 (   2)  0.1492 (   4)
................................................................................
.............................. CYCLE   63 ......................................
................................................................................
   1    -41.1221576 -0.411222E+02  0.329E-01    8.86       0.0  T
   2    -41.1221674 -0.979144E-05  0.247E-01    8.86       1.0  T
   3    -41.1221772 -0.986752E-05  0.300E-02    8.87       1.0  T
   4    -41.1221782 -0.997330E-06  0.915E-03    8.87       2.5  T
   5    -41.1221783 -0.798465E-07  0.328E-03    8.87       7.0  T
   6    -41.1221783 -0.898167E-08  0.184E-03    8.87      12.4  T
   7    -41.1221783 -0.368807E-08  0.471E-04    8.87      48.7  T
   8    -41.1221783 -0.407496E-09  0.141E-04    8.87     162.4  T
speedup  1.02
cpu  time for SCC    0.00 s
wall time for SCC    0.00 s
speedup  0.98
cpu  time for grad    0.01 s
wall time for grad    0.01 s
 E :    -40.91345956  G :  0.011870    pred/act E change: -0.230D-04  0.238D-04
Maxdispl :   0.2080   ||displ|| :   0.2530   Lambda : -0.238D-03
Largest |displ|/coords:  0.2080 (   1)  0.0987 (   2)  0.0505 (   4)
................................................................................
.............................. CYCLE   64 ......................................
................................................................................
   1    -41.1260026 -0.411260E+02  0.146E-01    8.93       0.0  T
   2    -41.1260061 -0.352313E-05  0.109E-01    8.93       1.0  T
   3    -41.1260090 -0.287372E-05  0.167E-02    8.94       1.4  T
   4    -41.1260094 -0.410455E-06  0.390E-03    8.94       5.9  T
   5    -41.1260094 -0.218600E-07  0.174E-03    8.94      13.2  T
   6    -41.1260094 -0.217490E-08  0.925E-04    8.94      24.8  T
speedup  1.08
cpu  time for SCC    0.00 s
wall time for SCC    0.00 s
speedup  1.02
cpu  time for grad    0.01 s
wall time for grad    0.01 s
 E :    -40.91353941  G :  0.003708    pred/act E change: -0.607D-04 -0.799D-04
Maxdispl :   0.1166   ||displ|| :   0.1385   Lambda : -0.388D-04
Largest |displ|/coords:  0.1166 (   1)  0.0470 (   2)  0.0363 (   5)
................................................................................
.............................. CYCLE   65 ......................................
................................................................................
   1    -41.1253645 -0.411254E+02  0.760E-02    8.91       0.0  T
   2    -41.1253651 -0.670498E-06  0.567E-02    8.91       1.0  T
   3    -41.1253658 -0.675945E-06  0.854E-03    8.90       2.7  T
   4    -41.1253659 -0.654264E-07  0.207E-03    8.91      11.1  T
   5    -41.1253659 -0.603963E-08  0.784E-04    8.91      29.2  T
   6    -41.1253659 -0.567738E-09  0.455E-04    8.91      50.4  T
speedup  1.08
cpu  time for SCC    0.00 s
wall time for SCC    0.00 s
speedup  1.00
cpu  time for grad    0.01 s
wall time for grad    0.01 s
 E :    -40.91356253  G :  0.003379    pred/act E change: -0.127D-03 -0.231D-04
Maxdispl :   0.2270   ||displ|| :   0.2775   Lambda : -0.524D-04
Largest |displ|/coords:  0.2270 (   1)  0.0918 (   2)  0.0723 (   4)
................................................................................
.............................. CYCLE   66 ......................................
................................................................................
   1    -41.1239326 -0.411239E+02  0.150E-01    8.89       0.0  T
   2    -41.1239346 -0.202119E-05  0.113E-01    8.89       1.0  T
   3    -41.1239368 -0.218221E-05  0.132E-02    8.89       1.7  T
   4    -41.1239370 -0.187407E-06  0.412E-03    8.89       5.6  T
   5    -41.1239370 -0.189671E-07  0.146E-03    8.89      15.7  T
   6    -41.1239370 -0.193974E-08  0.848E-04    8.89      27.0  T
   7    -41.1239370 -0.874046E-09  0.202E-04    8.89     113.5  T
speedup  0.95
cpu  time for SCC    0.00 s
wall time for SCC    0.00 s
speedup  0.95
cpu  time for grad    0.01 s
wall time for grad    0.01 s
[...]
   2    -41.1289056 -0.201786E-06  0.290E-02    8.99       1.0  T
   3    -41.1289058 -0.217046E-06  0.354E-03    8.99       6.5  T
   4    -41.1289058 -0.154624E-07  0.670E-04    8.99      34.2  T
   5    -41.1289058 -0.521617E-09  0.360E-04    8.99      63.7  T
speedup  0.94
cpu  time for SCC    0.00 s
wall time for SCC    0.00 s
speedup  1.03
cpu  time for grad    0.01 s
wall time for grad    0.01 s
 E :    -40.92115990  G :  0.001857    pred/act E change: -0.815D-05 -0.659D-05
Maxdispl :   0.0325   ||displ|| :   0.0480   Lambda : -0.826D-05
Largest |displ|/coords:  0.0325 (   3)  0.0172 (   1)  0.0127 (   4)
................................................................................
.............................. CYCLE  154 ......................................
................................................................................
   1    -41.1286687 -0.411287E+02  0.392E-02    9.00       0.0  T
   2    -41.1286690 -0.260976E-06  0.294E-02    9.00       1.0  T
   3    -41.1286692 -0.231436E-06  0.389E-03    9.00       5.9  T
   4    -41.1286692 -0.298243E-07  0.875E-04    9.00      26.2  T
   5    -41.1286692 -0.728051E-09  0.400E-04    9.00      57.3  T
speedup  1.00
cpu  time for SCC    0.00 s
wall time for SCC    0.00 s
speedup  1.06
cpu  time for grad    0.01 s
wall time for grad    0.01 s
 E :    -40.92116482  G :  0.000980    pred/act E change: -0.529D-05 -0.492D-05
Maxdispl :   0.0168   ||displ|| :   0.0310   Lambda : -0.547D-05
Largest |displ|/coords:  0.0168 (   3)  0.0139 (  11)  0.0128 (   1)
................................................................................
.............................. CYCLE  155 ......................................
................................................................................
   1    -41.1288147 -0.411288E+02  0.292E-02    9.01       0.0  T
   2    -41.1288149 -0.134242E-06  0.217E-02    9.01       1.1  T
   3    -41.1288150 -0.998490E-07  0.350E-03    9.01       6.6  T
   4    -41.1288150 -0.166930E-07  0.110E-03    9.01      20.8  T
   5    -41.1288150 -0.110317E-08  0.252E-04    9.01      90.9  T
   6    -41.1288150 -0.625064E-10  0.158E-04    9.01     145.0  T
speedup  0.81
cpu  time for SCC    0.00 s
wall time for SCC    0.00 s
speedup  0.98
cpu  time for grad    0.01 s
wall time for grad    0.01 s
 E :    -40.92116855  G :  0.000808    pred/act E change: -0.414D-05 -0.373D-05
Maxdispl :   0.0136   ||displ|| :   0.0251   Lambda : -0.340D-05
Largest |displ|/coords:  0.0136 (   4)  0.0105 (   3)  0.0097 (  11)
................................................................................
.............................. CYCLE  156 ......................................
................................................................................
   1    -41.1288583 -0.411289E+02  0.220E-02    9.01       0.0  T
   2    -41.1288584 -0.618600E-07  0.164E-02    9.01       1.4  T
   3    -41.1288585 -0.503514E-07  0.234E-03    9.01       9.8  T
   4    -41.1288585 -0.696454E-08  0.740E-04    9.01      31.0  T
   5    -41.1288585 -0.547189E-09  0.182E-04    9.01     126.3  T
speedup  0.94
cpu  time for SCC    0.00 s
wall time for SCC    0.00 s
speedup  0.92
cpu  time for grad    0.01 s
wall time for grad    0.01 s
 E :    -40.92117083  G :  0.000620    pred/act E change: -0.274D-05 -0.228D-05
Maxdispl :   0.0100   ||displ|| :   0.0182   Lambda : -0.177D-05
Largest |displ|/coords:  0.0100 (   4)  0.0066 (   1)  0.0065 (   2)
................................................................................
.............................. CYCLE  157 ......................................
................................................................................
   1    -41.1288717 -0.411289E+02  0.141E-02    9.01       0.0  T
   2    -41.1288717 -0.266799E-07  0.105E-02    9.01       2.2  T
   3    -41.1288718 -0.223592E-07  0.134E-03    9.00      17.1  T
   4    -41.1288718 -0.293333E-08  0.376E-04    9.00      61.0  T
   5    -41.1288718 -0.153548E-09  0.117E-04    9.00     195.4  T
speedup  0.94
cpu  time for SCC    0.00 s
wall time for SCC    0.00 s
speedup  0.92
cpu  time for grad    0.01 s
wall time for grad    0.01 s
 E :    -40.92117208  G :  0.000595    pred/act E change: -0.170D-05 -0.126D-05
Maxdispl :   0.0073   ||displ|| :   0.0178   Lambda : -0.133D-05
Largest |displ|/coords:  0.0073 (   1)  0.0072 (   4)  0.0070 (   3)
................................................................................
.............................. CYCLE  158 ......................................
................................................................................
   1    -41.1288545 -0.411289E+02  0.122E-02    9.00       0.0  T
   2    -41.1288545 -0.278109E-07  0.916E-03    9.00       2.5  T
   3    -41.1288545 -0.214954E-07  0.122E-03    9.00      18.7  T
   4    -41.1288545 -0.362679E-08  0.440E-04    9.00      52.1  T
   5    -41.1288545 -0.189196E-09  0.115E-04    9.00     198.7  T
speedup  0.97
cpu  time for SCC    0.00 s
wall time for SCC    0.00 s
speedup  1.02
cpu  time for grad    0.01 s
wall time for grad    0.01 s
 E :    -40.92117297  G :  0.000441    pred/act E change: -0.884D-06 -0.887D-06
Maxdispl :   0.0058   ||displ|| :   0.0120   Lambda : -0.630D-06
Largest |displ|/coords:  0.0058 (   1)  0.0051 (   8)  0.0050 (   2)
................................................................................
.............................. CYCLE  159 ......................................
................................................................................
   1    -41.1288579 -0.411289E+02  0.828E-03    9.00       0.0  T
   2    -41.1288579 -0.123983E-07  0.622E-03    9.00       3.7  T
   3    -41.1288579 -0.935064E-08  0.827E-04    9.00      27.7  T
   4    -41.1288579 -0.166552E-08  0.331E-04    9.00      69.4  T
speedup  1.15
cpu  time for SCC    0.00 s
wall time for SCC    0.00 s
speedup  0.99
cpu  time for grad    0.01 s
wall time for grad    0.01 s
 E :    -40.92117341  G :  0.000331    pred/act E change: -0.664D-06 -0.442D-06
Maxdispl :   0.0060   ||displ|| :   0.0111   Lambda : -0.450D-06
Largest |displ|/coords:  0.0060 (   2)  0.0054 (   1)  0.0044 (   8)
................................................................................
.............................. CYCLE  160 ......................................
................................................................................
   1    -41.1288831 -0.411289E+02  0.766E-03    9.00       0.0  T
   2    -41.1288831 -0.850356E-08  0.574E-03    9.00       4.0  T
   3    -41.1288831 -0.604389E-08  0.696E-04    9.00      33.0  T
   4    -41.1288831 -0.119870E-08  0.265E-04    9.00      86.6  T
speedup  1.20
cpu  time for SCC    0.00 s
wall time for SCC    0.00 s
speedup  1.00
cpu  time for grad    0.01 s
wall time for grad    0.01 s
 E :    -40.92117374  G :  0.000257    pred/act E change: -0.315D-06 -0.325D-06
Maxdispl :   0.0080   ||displ|| :   0.0119   Lambda : -0.338D-06
Largest |displ|/coords:  0.0080 (   2)  0.0060 (   1)  0.0036 (   8)
................................................................................
.............................. CYCLE  161 ......................................
................................................................................
   1    -41.1289152 -0.411289E+02  0.801E-03    9.00       0.0  T
   2    -41.1289152 -0.711567E-08  0.603E-03    9.00       3.8  T
   3    -41.1289152 -0.630288E-08  0.592E-04    9.00      38.7  T
   4    -41.1289152 -0.917069E-09  0.225E-04    9.00     102.0  T
speedup  1.20
cpu  time for SCC    0.00 s
wall time for SCC    0.00 s
speedup  1.00
cpu  time for grad    0.01 s
wall time for grad    0.01 s
 E :    -40.92117397  G :  0.000227    pred/act E change: -0.225D-06 -0.238D-06
Maxdispl :   0.0084   ||displ|| :   0.0109   Lambda : -0.228D-06
Largest |displ|/coords:  0.0084 (   2)  0.0043 (   1)  0.0031 (   6)
................................................................................
.............................. CYCLE  162 ......................................
................................................................................
   1    -41.1289656 -0.411290E+02  0.687E-03    9.00       0.0  T
   2    -41.1289656 -0.539937E-08  0.517E-03    9.00       4.4  T
   3    -41.1289656 -0.551591E-08  0.527E-04    9.00      43.5  T
   4    -41.1289656 -0.591463E-09  0.165E-04    9.00     138.7  T
speedup  1.15
cpu  time for SCC    0.00 s
wall time for SCC    0.00 s
speedup  0.99
cpu  time for grad    0.01 s
wall time for grad    0.01 s
 E :    -40.92117414  G :  0.000242    pred/act E change: -0.169D-06 -0.166D-06
Maxdispl :   0.0091   ||displ|| :   0.0114   Lambda : -0.192D-06
Largest |displ|/coords:  0.0091 (   2)  0.0043 (   1)  0.0031 (   5)
................................................................................
.............................. CYCLE  163 ......................................
................................................................................
   1    -41.1289934 -0.411290E+02  0.688E-03    9.00       0.0  T
   2    -41.1289934 -0.607951E-08  0.515E-03    9.00       4.5  T
   3    -41.1289934 -0.583209E-08  0.640E-04    9.00      35.9  T
   4    -41.1289934 -0.667058E-09  0.180E-04    9.00     127.1  T
speedup  0.80
cpu  time for SCC    0.00 s
wall time for SCC    0.00 s
speedup  0.87
cpu  time for grad    0.01 s
wall time for grad    0.01 s
 E :    -40.92117428  G :  0.000229    pred/act E change: -0.114D-06 -0.139D-06
Maxdispl :   0.0076   ||displ|| :   0.0092   Lambda : -0.138D-06
Largest |displ|/coords:  0.0076 (   2)  0.0028 (   6)  0.0026 (   1)
................................................................................
.............................. CYCLE  164 ......................................
................................................................................
   1    -41.1290166 -0.411290E+02  0.561E-03    9.00       0.0  T
   2    -41.1290166 -0.432148E-08  0.415E-03    9.00       5.5  T
   3    -41.1290166 -0.365672E-08  0.614E-04    9.00      37.4  T
   4    -41.1290166 -0.467054E-09  0.183E-04    9.00     125.2  T
speedup  0.80
cpu  time for SCC    0.00 s
wall time for SCC    0.00 s
speedup  1.00
cpu  time for grad    0.01 s
wall time for grad    0.01 s
 E :    -40.92117438  G :  0.000178    pred/act E change: -0.962D-07 -0.971D-07
Maxdispl :   0.0046   ||displ|| :   0.0057   Lambda : -0.797D-07
Largest |displ|/coords:  0.0046 (   2)  0.0018 (   1)  0.0017 (   5)

   *** GEOMETRY OPTIMIZATION CONVERGED AFTER 164 ITERATIONS ***

------------------------------------------------------------------------
 total energy gain (kcal):     -0.1270
------------------------------------------------------------------------
================
 final structure:
================
$coord
        1.21384551826129        0.80138224765873        1.31294485431300      S 
        2.24990720246858       -1.15674207981127       -0.26880695317637      O 
       -0.95216480059158       -0.48988113979825        2.87361530775892      O 
        2.90573951982541        2.01709344952625        3.02785596354408      O 
       -0.12460286881967        2.76633594461778       -0.27971006887219      O 
       -1.09598878636144        1.96453247237420       -1.87088878683559      H 
       -2.17572231040402        0.63417161883707       -3.91982404000483      O 
       -2.57919074700423       -1.02605951914947       -3.18294830521557      H 
       -0.66731543142945        0.33118699195389       -4.96183053338612      H 
        2.40289091839499       -0.86973150320409       -5.42377201011827      O 
        2.77217715174682       -0.96058350460761       -3.62601404649491      H 
        2.60417216116801       -2.55065341929437       -6.07296750285215      H 
       -2.06664451825575       -3.67842580040337       -1.30730002437337      O 
       -2.98754285374466       -3.68848277848633        0.25498430862561      H 
       -0.35260846101893       -3.17779454749592       -0.86621135526816      H 
       -0.64367006989002        2.87948817803448        6.41890784283740      O 
        0.91424139089288        3.18252488809739        5.47932515878855      H 
       -1.26175762447792        0.65470649691418        4.32211918944732      H 
       -0.15576537193353        2.36693202331508        8.09052100134174      H 
$end
 
 Bond Distances (Angstroems)
 ---------------------------
S1-O2=1.4405         S1-O3=1.5693         S1-O4=1.4279         S1-O5=1.5143         O2-S1=1.4405         O3-S1=1.5693         
O3-H18=0.9906        O4-S1=1.4279         O5-S1=1.5143         O5-H6=1.0739         H6-O5=1.0739         O7-H8=0.9846         
O7-H9=0.9833         H8-O7=0.9846         H9-O7=0.9833         O10-H11=0.9724       O10-H12=0.9595       H11-O10=0.9724       
H12-O10=0.9595       O13-H14=0.9597       O13-H15=0.9733       H14-O13=0.9597       H15-O13=0.9733       O16-H17=0.9760       
O16-H19=0.9606       H17-O16=0.9760       H18-O3=0.9906        H19-O16=0.9606       
 O  H  Rav=0.9834 sigma=0.0319  Rmin=0.9595  Rmax=1.0739    10
 S  O  Rav=1.4880 sigma=0.0574  Rmin=1.4279  Rmax=1.5693     4
 
 selected bond angles (degree)
 --------------------
O3-S1-O2=105.70                O4-S1-O2=117.05                O4-S1-O3=108.64                O5-S1-O2=110.40                
O5-S1-O3=104.49                O5-S1-O4=109.73                H18-O3-S1=105.18               H6-O5-S1=112.89                
H9-O7-H8=104.63                H12-O10-H11=106.39             
 
 selected dihedral angles (degree)
 ---------------------------------
H18-O3-S1-O2=161.60           H18-O3-S1-O4= 35.20           H18-O3-S1-O5=278.12           H6-O5-S1-O2= 36.60            
H6-O5-S1-O3=283.38            H6-O5-S1-O4=167.05            
 
 CMA Distance (Angstroems)
 ---------------------------
R(CMA):  1.5727

========================================================================
 FINAL SINGLEPOINT CALCULATION ON OPTIMIZED GEOMETRY
========================================================================

 Ncao       : 52
 Nao        : 51
 Nshell     : 29
 Nel        : 64
 T(el)      :   300.0
 intcut     :    25.0
 scfconv/Eh :  0.100E-05
   qconv/e  :  0.100E-03
 intneglect :  0.100E-07
 broydamp   :      0.250
 iter      E             dE          RMSdq      gap      omega  full diag
   1    -41.1290166 -0.411290E+02  0.875E-05    9.00       0.0  T
   2    -41.1290166 -0.356692E-11  0.553E-05    9.00     414.8  T
   3    -41.1290166 -0.183320E-11  0.990E-06    9.00    2316.8  T
speedup  1.05
cpu  time for SCC    0.00 s
wall time for SCC    0.00 s

   *** convergence criteria satisfied after 3 iterations ***

          eigenvalues
 #    :          20         21         22         23         24         25         26         27
 occ. :        2.000      2.000      2.000      2.000      2.000      2.000      2.000      2.000
 eps  :       -14.357    -14.249    -14.167    -13.932    -13.546    -13.224    -13.070    -13.025
 #    :          28         29         30         31         32         33         34         35
 occ. :        2.000      2.000      2.000      2.000      2.000      0.000      0.000      0.000
 eps  :       -12.868    -12.693    -12.536    -12.414    -12.289     -3.293     -1.088     -0.392
 #    :          36         37         38         39         40         41         42         43
 occ. :        0.000      0.000      0.000      0.000      0.000      0.000      0.000      0.000
 eps  :         0.297      0.574      1.345      2.687      3.500      4.747      5.690      6.410


   #   Z            q   n(s)   n(p)   n(d)      C6AA      α(0)
   1  16 S      1.720  1.578  1.764  0.938    88.310    15.816
   2   8 O     -0.709  1.756  4.953  0.000    28.965     7.216
   3   8 O     -0.623  1.754  4.869  0.000    25.702     6.844
   4   8 O     -0.685  1.757  4.928  0.000    28.295     7.132
   5   8 O     -0.632  1.764  4.868  0.000    25.958     6.877
   6   1 H      0.401  0.599  0.000  0.000     0.477     1.082
   7   8 O     -0.593  1.761  4.832  0.000    24.972     6.747
   8   1 H      0.339  0.661  0.000  0.000     0.616     1.233
   9   1 H      0.344  0.656  0.000  0.000     0.603     1.220
  10   8 O     -0.599  1.741  4.858  0.000    25.154     6.769
  11   1 H      0.319  0.681  0.000  0.000     0.667     1.283
  12   1 H      0.294  0.706  0.000  0.000     0.740     1.351
  13   8 O     -0.603  1.739  4.864  0.000    25.265     6.784
  14   1 H      0.297  0.703  0.000  0.000     0.731     1.343
  15   1 H      0.315  0.685  0.000  0.000     0.677     1.292
  16   8 O     -0.596  1.743  4.854  0.000    25.096     6.761
  17   1 H      0.326  0.674  0.000  0.000     0.648     1.265
  18   1 H      0.382  0.618  0.000  0.000     0.514     1.123
  19   1 H      0.303  0.697  0.000  0.000     0.711     1.324

 Mol. C6AA /au·bohr⁶  :       3363.508865
 Mol. C8AA /au·bohr⁸  :      76033.120076
 Mol. α(0) /au        :         83.462313

 
 Wiberg/Mayer (AO) data. WBOs > 0.1 written file <wbo>
 largest (>0.05) Wiberg bond orders for each atom
           total WBO             WBO to atom ...
     1  S   4.828    O    4 1.419    O    2 1.359    O    5 1.067    O    3 0.945
     2  O   1.759    S    1 1.359    O    4 0.114    O    5 0.097    O    3 0.071
     3  O   1.963    S    1 0.945    H   18 0.744    O    4 0.090    O    2 0.071    O    5 0.068
     4  O   1.778    S    1 1.419    O    2 0.114    O    3 0.090    O    5 0.080
     5  O   1.959    S    1 1.067    H    6 0.579    O    2 0.097    O    4 0.080    O    3 0.068    O    7 0.065
     6  H   0.839    O    5 0.579    O    7 0.242
     7  O   2.025    H    9 0.825    H    8 0.822    H    6 0.242    O    5 0.065
     8  H   0.885    O    7 0.822    O   13 0.061
     9  H   0.882    O    7 0.825    O   10 0.055
    10  O   1.872    H   12 0.911    H   11 0.860    H    9 0.055
    11  H   0.898    O   10 0.860
    12  H   0.914    O   10 0.911
    13  O   1.876    H   14 0.906    H   15 0.855    H    8 0.061
    14  H   0.912    O   13 0.906
    15  H   0.901    O   13 0.855
    16  O   1.905    H   19 0.905    H   17 0.850    H   18 0.092
    17  H   0.894    O   16 0.850
    18  H   0.854    O    3 0.744    O   16 0.092
    19  H   0.908    O   16 0.905
 MOs/occ written to file <molden.input>
 
molecular dipole:
                 x           y           z       tot (Debye)
 q only:       -0.467      -0.571       0.517
   full:       -0.169      -0.834       1.024       3.383
molecular quadrupole (traceless):
                xx          xy          yy          xz          yz          zz
 q only:       -5.400      -1.017      -4.334      -2.502       2.089       9.734
  q+dip:       -6.073      -0.934      -4.519      -2.769       3.257      10.592
   full:       -6.216      -0.816      -4.905      -3.040       3.243      11.121

SCC energy    :     -41.1290166
rep           :       0.2078094
ES            :       0.1835933
AES           :      -0.0428842
AXC           :      -0.0107482
disp          :      -0.0133334
XB            :       0.0000000
fix           :       0.0000000
total E       :     -40.9211744
atomizationE  :       3.7153616     2331.42
(atE without considering molecular charge,
 total energy contains solvation terms)
H-L gap (eV)  :          8.9955
optimized geometry written to: xtbopt.xyz


------------------------------------------------------------------------
 * finished run on 2019/09/03 at 11:05:29.755     
------------------------------------------------------------------------
 total:
 * wall-time:     0 d,  0 h,  0 min,  2.454 sec
 *  cpu-time:     0 d,  0 h,  0 min,  2.413 sec
 * ratio c/w:     0.983 speedup
 SCF:
 * wall-time:     0 d,  0 h,  0 min,  0.092 sec
 *  cpu-time:     0 d,  0 h,  0 min,  0.089 sec
 * ratio c/w:     0.967 speedup
 ANC optimizer:
 * wall-time:     0 d,  0 h,  0 min,  2.340 sec
 *  cpu-time:     0 d,  0 h,  0 min,  2.304 sec
 * ratio c/w:     0.984 speedup

