      -----------------------------------------------------------      
     |                   =====================                   |     
     |                           x T B                           |     
     |                   =====================                   |     
     |                         S. Grimme                         |     
     |          Mulliken Center for Theoretical Chemistry        |     
     |                    University of Bonn                     |     
     |                 Version 6.0.1 (SAW181210)                 |     
      -----------------------------------------------------------      

   This program is distributed in the hope that it will be useful,
   but WITHOUT ANY WARRANTY; without even the implied warranty of
   MERCHANTABILITY or FITNESS FOR A PARTICULAR PURPOSE.
   
   FOR NON-COMMERCIAL, ACADEMIA USE ONLY.
   
   Cite this work as:
   S. Grimme, C. Bannwarth, P. Shushkov, J. Comput. Theory Chem., 2017,
   13, 1989-2009.
   C. Bannwarth, S. Ehlert and S. Grimme., ChemRxiv, 2018, preprint.
   http://doi.org/10.26434/chemrxiv.7246238.v1
   
   for sTDA-xTB:
   S. Grimme and C. Bannwarth, J. Chem. Phys., 2016, 145, 054103.
   
   in the mass-spec context:
   V. Asgeirsson, C. Bauer and S. Grimme, Chem. Sci., 2017, 8, 4879.
   
   if GBSA is used:
   P. Shushkov, F. März and S. Grimme, unpublished.
   
   for ANC optimizer:
   S. Grimme, unpublished.
   Rational Function algorithm used in ANCopt:
   F. Eckert, P. Pulay, H.-J. Werner, J. Comput. Chem., 1997, 18, 1473.
   
   with help from (in alphabetical order)
   C. Bannwarth, F. Bohle, G. Brandenburg, E. Caldeweyher, M. Checinski,
   S. Dohm, S. Ehlert, S. Ehrlich, F. März, H. Neugebauer, J. Pisarek,
   P. Pracht, P. Shushkov, and S. Spicher.
   
 * started run on 2019/09/03 at 12:02:06.413     
========================================================================
 # omp threads = 1
========================================================================
number of atoms            : 19
number of electrons        : 64
charge                     : 0
spin                       : .0
first test random number   : .2249

########################################################################
# WARNING! Please study the warnings concerning your input carefully
#  - XTBPATH is not set, using XTBHOME instead
#  - the use of '-opt' is discouraged, please use '--opt' next time
#  - the use of '-chrg' is discouraged, please use '--chrg' next time
#  - the use of '-uhf' is discouraged, please use '--uhf' next time
########################################################################

           ------------------------------------------------- 
          |                 G F N 2 - x T B                 |
          | Geometry, Frequencies, Noncovalent interactions |
          |            JCTC 2018 parametrisation            |
           ------------------------------------------------- 
      method parameters     
 k(s)        :  1.8500
 k(p)        :  2.2300
 k(d)        :  2.2300
 k(f)        :  2.0000
 kEN (H0ij)  : -2.0000
 D4 a1       :  0.5200
 D4 a2       :  5.0000
 D4 s6       :  1.0000
 D4 s8       :  2.7000
 D4 s9       :  5.0000
 alphaj      :  2.0000


            Z     q(EN)     CN     RAES       Cart. coordinates
     1  S   6.0    0.64    4.33    4.29    -0.21820    -2.32865     3.19901
     2  O   6.0   -0.32    1.20    1.80    -0.34673    -2.35429     0.38637
     3  O   6.0   -0.30    1.18    1.80     2.17767    -1.09683     4.01789
     4  O   6.0   -0.28    1.14    1.80    -2.41104    -0.89147     4.22570
     5  O   6.0   -0.25    2.08    1.84    -0.29169    -4.93581     4.15286
     6  H   1.0    0.15    1.21    1.47     1.12087    -5.86252     3.49182
     7  O   6.0   -0.28    2.00    1.83     2.41869     3.66899     2.27882
     8  H   1.0    0.18    1.04    1.43     2.47326     2.16401     3.30190
     9  H   1.0    0.15    0.97    1.43     3.94225     4.58059     2.68178
    10  O   6.0   -0.26    1.92    1.82     3.21670     3.82021    -5.79213
    11  H   1.0    0.14    0.97    1.43     1.80290     4.23639    -6.86105
    12  H   1.0    0.15    0.97    1.43     4.60130     3.49708    -6.92927
    13  O   6.0   -0.25    1.92    1.82    -3.75630    -4.09722    -4.07560
    14  H   1.0    0.16    0.98    1.43    -2.33698    -3.81907    -2.96980
    15  H   1.0    0.15    0.97    1.43    -4.95309    -5.05334    -3.09165
    16  O   6.0   -0.21    2.91    2.57    -2.04382     2.30487     0.18649
    17  H   1.0    0.14    0.97    1.43    -3.29631     2.18759     1.56755
    18  H   1.0    0.14    1.01    1.43    -0.57639     3.35983     0.65952
    19  H   1.0    0.15    1.06    1.44    -1.52307     0.61963    -0.43020

  Z AO/shell   Hii/eV     exponent
  1     Wed Apr 25 08:07:45 CEST 2018   EN: 2.200 GM2: 0.406  GM3: 0.0800  RAES: 1.40
     1s    -10.707211    1.230000
  8     Wed Apr 25 08:07:45 CEST 2018   EN: 3.440 GM2: 0.452  GM3:-0.0517  RAES: 1.80
     2s    -20.229985    2.439742
     2p    -15.503117    2.137023
 16     Tue Apr 24 11:44:34 CEST 2018   EN: 2.580 GM2: 0.340  GM3:-0.0502  RAES: 3.10
     3s    -20.029654    1.981333
     3p    -11.377694    2.025643
     3d     -0.420282    1.702555
 no old-style atom pair restraining (fixing) potential

molecular fragmentation (1/2 indicates fragments):
1111112222222222222
# atoms in fragment 1/2:     6    13
 fragment masses (1/2) :       97.07       73.07
CMA distance (Bohr)    :   6.254
constraining FC (au)   :  0.0500
           ------------------------------------------------- 
          |        Self-Consistent Charge Iterations        |
           ------------------------------------------------- 

 Ncao       : 52
 Nao        : 51
 Nshell     : 29
 Nel        : 64
 T(el)      :   300.0
 intcut     :    25.0
 scfconv/Eh :  0.100E-05
   qconv/e  :  0.100E-03
 intneglect :  0.100E-07
 broydamp   :      0.250
 iter      E             dE          RMSdq      gap      omega  full diag
   1    -40.9713920 -0.409714E+02  0.773E+00   10.64       0.0  T
   2    -41.0178135 -0.464215E-01  0.558E+00   10.07       1.0  T
   3    -41.0515329 -0.337194E-01  0.154E+00    8.54       1.0  T
   4    -41.0563558 -0.482292E-02  0.630E-01    8.51       1.0  T
   5    -41.0569163 -0.560525E-03  0.362E-01    8.40       1.0  T
   6    -41.0573326 -0.416291E-03  0.152E-01    8.41       1.0  T
   7    -41.0574217 -0.891291E-04  0.613E-02    8.46       1.0  T
   8    -41.0574362 -0.144948E-04  0.323E-02    8.46       1.0  T
   9    -41.0574402 -0.394762E-05  0.153E-02    8.46       1.5  T
  10    -41.0574413 -0.110700E-05  0.291E-03    8.46       7.9  T
  11    -41.0574413 -0.217736E-07  0.125E-03    8.46      18.4  T
  12    -41.0574413 -0.589146E-08  0.471E-04    8.46      48.7  T
  13    -41.0574413 -0.795538E-09  0.122E-04    8.46     188.6  T
speedup  0.98
cpu  time for SCC    0.01 s
wall time for SCC    0.01 s

   *** convergence criteria satisfied after 13 iterations ***

          eigenvalues
 #    :          20         21         22         23         24         25         26         27
 occ. :        2.000      2.000      2.000      2.000      2.000      2.000      2.000      2.000
 eps  :       -13.990    -13.435    -12.987    -12.766    -12.172    -11.995    -11.967    -11.614
 #    :          28         29         30         31         32         33         34         35
 occ. :        2.000      2.000      2.000      2.000      2.000      0.000      0.000      0.000
 eps  :       -11.577    -11.430    -11.053    -10.894    -10.650     -2.192     -1.096     -0.006
 #    :          36         37         38         39         40         41         42         43
 occ. :        0.000      0.000      0.000      0.000      0.000      0.000      0.000      0.000
 eps  :         1.210      1.547      2.170      2.584      3.013      3.877      5.238      6.451


   #   Z            q   n(s)   n(p)   n(d)      C6AA      α(0)
   1  16 S      1.555  1.589  1.866  0.990    92.128    16.155
   2   8 O     -0.775  1.774  5.001  0.000    30.829     7.444
   3   8 O     -0.751  1.782  4.969  0.000    30.142     7.361
   4   8 O     -0.738  1.771  4.967  0.000    29.756     7.314
   5   8 O     -0.533  1.715  4.819  0.000    23.616     6.560
   6   1 H      0.360  0.640  0.000  0.000     0.557     1.168
   7   8 O     -0.625  1.728  4.897  0.000    25.785     6.853
   8   1 H      0.330  0.670  0.000  0.000     0.638     1.255
   9   1 H      0.293  0.707  0.000  0.000     0.742     1.353
  10   8 O     -0.566  1.742  4.824  0.000    24.384     6.665
  11   1 H      0.282  0.718  0.000  0.000     0.777     1.385
  12   1 H      0.284  0.716  0.000  0.000     0.772     1.380
  13   8 O     -0.582  1.741  4.841  0.000    24.760     6.716
  14   1 H      0.300  0.700  0.000  0.000     0.721     1.334
  15   1 H      0.276  0.724  0.000  0.000     0.799     1.404
  16   8 O     -0.378  1.625  4.753  0.000    20.378     6.097
  17   1 H      0.412  0.588  0.000  0.000     0.463     1.069
  18   1 H      0.430  0.570  0.000  0.000     0.433     1.034
  19   1 H      0.426  0.574  0.000  0.000     0.440     1.042

 Mol. C6AA /au·bohr⁶  :       3373.492001
 Mol. C8AA /au·bohr⁸  :      76554.932282
 Mol. α(0) /au        :         83.588608

 
 Wiberg/Mayer (AO) data. WBOs > 0.1 written file <wbo>
 largest (>0.05) Wiberg bond orders for each atom
           total WBO             WBO to atom ...
     1  S   4.953    O    4 1.358    O    3 1.308    O    2 1.256    O    5 1.006
     2  O   1.674    S    1 1.256    O    4 0.114    O    3 0.111    H   19 0.079    O    5 0.070
     3  O   1.681    S    1 1.308    O    4 0.118    O    2 0.111    O    5 0.075
     4  O   1.683    S    1 1.358    O    3 0.118    O    2 0.114    O    5 0.056
     5  O   2.057    S    1 1.006    H    6 0.846    O    3 0.075    O    2 0.070    O    4 0.056
     6  H   0.870    O    5 0.846
     7  O   1.835    H    9 0.905    H    8 0.840
     8  H   0.891    O    7 0.840
     9  H   0.914    O    7 0.905
    10  O   1.839    H   11 0.920    H   12 0.919
    11  H   0.920    O   10 0.920
    12  H   0.920    O   10 0.919
    13  O   1.829    H   15 0.924    H   14 0.900
    14  H   0.910    O   13 0.900
    15  H   0.924    O   13 0.924
    16  O   2.365    H   17 0.811    H   18 0.760    H   19 0.733
    17  H   0.830    O   16 0.811
    18  H   0.815    O   16 0.760
    19  H   0.819    O   16 0.733    O    2 0.079
 MOs/occ written to file <molden.input>
 
molecular dipole:
                 x           y           z       tot (Debye)
 q only:       -0.278       1.581      -1.285
   full:        0.128       0.826      -0.887       3.098
molecular quadrupole (traceless):
                xx          xy          yy          xz          yz          zz
 q only:        0.158      -4.945      11.366      -3.164      -4.458     -11.524
  q+dip:       -1.477      -3.709      12.519      -4.626      -8.789     -11.041
   full:       -1.347      -3.649      12.615      -4.636      -9.113     -11.268

SCC energy    :     -41.0574413
rep           :       0.2162409
ES            :       0.2530343
AES           :      -0.0442104
AXC           :      -0.0109627
disp          :      -0.0104650
XB            :       0.0000000
fix           :       0.0000000
total E       :     -40.8411114
atomizationE  :       3.6352986     2281.18
(atE without considering molecular charge,
 total energy contains solvation terms)
H-L gap (eV)  :          8.4577
           ------------------------------------------------- 
          |                 ===============                 |
          |                   A N C O P T                   |
          |                 ===============                 |
          |          Approximate Normal Coordinate          |
          |           Rational Function Optimizer           |
           ------------------------------------------------- 
dumping coords to <xtbopt.coord> and <xtbopt.log>
 optlevel               2
 Maxcycle             380
 Maxmicro              25
 Econv         1.000000000000000E-007
 Gconv         2.000000000000000E-004
 Maxdispl       1.00000000000000     
 Hlow          5.000000000000000E-003
 S6             20.0000000000000     
 Nvar               51

generating ANC from model Hessian ...
 Shifting diagonal of input Hessian by   5.380542026882381E-003
 Lowest  eigenvalues of input Hessian
    0.005000    0.005317    0.005361   -0.000000   -0.000000   -0.000000
   -0.000000    0.000000    0.000000    0.005388    0.005394    0.005455
    0.005471    0.005669    0.005787    0.005798    0.005847    0.005886
 Highest eigenvalues
    1.450723    1.543250    1.548768    3.131884    3.208036    3.306950
 
cpu  time for ANC gen    0.00 s
wall time for ANC gen    0.00 s
................................................................................
.............................. CYCLE    1 ......................................
................................................................................
   1    -41.0574413 -0.410574E+02  0.739E-05    8.46       0.0  T
   2    -41.0574413 -0.563460E-11  0.579E-05    8.46     396.5  T
   3    -41.0574413 -0.805755E-11  0.221E-05    8.46    1040.4  T
speedup  1.00
cpu  time for SCC    0.00 s
wall time for SCC    0.00 s
speedup  1.00
cpu  time for grad    0.01 s
wall time for grad    0.01 s
 E :    -40.84111135  G :  0.159969    pred/act E change:  0.000D+00  0.286D-07
Maxdispl :   0.3013   ||displ|| :   0.5419   Lambda : -0.244D-01
Largest |displ|/coords:  0.3013 (  13)  0.2825 (  23)  0.1491 (  24)
................................................................................
.............................. CYCLE    2 ......................................
................................................................................
   1    -41.0707013 -0.410707E+02  0.592E-01    8.90       0.0  T
   2    -41.0708269 -0.125666E-03  0.453E-01    8.95       1.0  T
   3    -41.0708956 -0.686714E-04  0.885E-02    9.05       1.0  T
   4    -41.0709168 -0.212314E-04  0.246E-02    9.03       1.0  T
   5    -41.0709179 -0.110049E-05  0.784E-03    9.03       2.9  T
   6    -41.0709180 -0.811811E-07  0.473E-03    9.03       4.8  T
   7    -41.0709181 -0.689201E-07  0.218E-03    9.03      10.5  T
speedup  1.09
cpu  time for SCC    0.00 s
wall time for SCC    0.00 s
speedup  1.09
cpu  time for grad    0.01 s
wall time for grad    0.01 s
 E :    -40.86156429  G :  0.108050    pred/act E change:  0.000D+00 -0.205D-01
Maxdispl :   0.2690   ||displ|| :   0.5313   Lambda : -0.164D-01
Largest |displ|/coords:  0.2690 (  23)  0.2605 (  13)  0.1695 (  17)
................................................................................
.............................. CYCLE    3 ......................................
................................................................................
   1    -41.0826617 -0.410827E+02  0.389E-01    9.17       0.0  T
   2    -41.0829057 -0.243996E-03  0.291E-01    9.20       1.0  T
   3    -41.0830138 -0.108183E-03  0.110E-01    9.14       1.0  T
   4    -41.0830294 -0.155186E-04  0.267E-02    9.12       1.0  T
   5    -41.0830309 -0.155251E-05  0.934E-03    9.13       2.5  T
   6    -41.0830311 -0.168439E-06  0.540E-03    9.13       4.3  T
   7    -41.0830312 -0.985346E-07  0.265E-03    9.13       8.7  T
speedup  0.93
cpu  time for SCC    0.00 s
wall time for SCC    0.00 s
speedup  1.01
cpu  time for grad    0.01 s
wall time for grad    0.01 s
 E :    -40.87372319  G :  0.066706    pred/act E change: -0.158D-01 -0.122D-01
Maxdispl :   0.2108   ||displ|| :   0.4825   Lambda : -0.747D-02
Largest |displ|/coords:  0.2108 (  13)  0.1849 (  14)  0.1766 (  19)
................................................................................
.............................. CYCLE    4 ......................................
................................................................................
   1    -41.0727889 -0.410728E+02  0.602E-01    8.91       0.0  T
   2    -41.0730175 -0.228566E-03  0.454E-01    8.87       1.0  T
   3    -41.0731189 -0.101359E-03  0.104E-01    8.79       1.0  T
   4    -41.0731531 -0.342068E-04  0.247E-02    8.79       1.0  T
   5    -41.0731544 -0.130913E-05  0.876E-03    8.79       2.6  T
   6    -41.0731545 -0.808714E-07  0.467E-03    8.79       4.9  T
   7    -41.0731545 -0.552714E-07  0.204E-03    8.80      11.2  T
speedup  0.93
cpu  time for SCC    0.00 s
wall time for SCC    0.00 s
speedup  1.00
cpu  time for grad    0.01 s
wall time for grad    0.01 s
 E :    -40.87682062  G :  0.061451    pred/act E change: -0.105D-01 -0.310D-02
Maxdispl :   0.1832   ||displ|| :   0.4710   Lambda : -0.103D-01
Largest |displ|/coords:  0.1832 (  17)  0.1703 (  14)  0.1695 (  12)
................................................................................
.............................. CYCLE    5 ......................................
................................................................................
   1    -41.0887817 -0.410888E+02  0.840E-01    8.81       0.0  T
   2    -41.0889770 -0.195269E-03  0.637E-01    8.79       1.0  T
   3    -41.0891154 -0.138425E-03  0.923E-02    8.76       1.0  T
   4    -41.0891436 -0.281413E-04  0.257E-02    8.78       1.0  T
   5    -41.0891450 -0.146845E-05  0.874E-03    8.78       2.6  T
   6    -41.0891450 -0.121897E-07  0.438E-03    8.78       5.2  T
   7    -41.0891451 -0.190319E-07  0.915E-04    8.78      25.1  T
speedup  1.16
cpu  time for SCC    0.00 s
wall time for SCC    0.00 s
speedup  1.00
cpu  time for grad    0.01 s
wall time for grad    0.01 s
 E :    -40.87764023  G :  0.036389    pred/act E change: -0.460D-02 -0.820D-03
Maxdispl :   0.1581   ||displ|| :   0.3502   Lambda : -0.291D-02
Largest |displ|/coords:  0.1581 (  18)  0.1485 (   7)  0.1454 (   1)
................................................................................
.............................. CYCLE    6 ......................................
................................................................................
   1    -41.0862054 -0.410862E+02  0.300E-01    8.70       0.0  T
   2    -41.0862251 -0.196770E-04  0.226E-01    8.70       1.0  T
   3    -41.0862399 -0.148515E-04  0.351E-02    8.68       1.0  T
   4    -41.0862426 -0.273111E-05  0.116E-02    8.68       2.0  T
   5    -41.0862428 -0.123533E-06  0.305E-03    8.68       7.5  T
   6    -41.0862428 -0.515367E-08  0.168E-03    8.68      13.6  T
speedup  1.08
cpu  time for SCC    0.00 s
wall time for SCC    0.00 s
speedup  1.06
cpu  time for grad    0.01 s
wall time for grad    0.01 s
 E :    -40.87969106  G :  0.022742    pred/act E change: -0.632D-02 -0.205D-02
Maxdispl :   0.2328   ||displ|| :   0.4785   Lambda : -0.314D-02
Largest |displ|/coords:  0.2328 (  19)  0.2135 (   7)  0.1615 (  15)
................................................................................
.............................. CYCLE    7 ......................................
................................................................................
   1    -41.0860633 -0.410861E+02  0.534E-01    8.63       0.0  T
   2    -41.0861542 -0.909064E-04  0.406E-01    8.60       1.0  T
   3    -41.0862143 -0.601014E-04  0.666E-02    8.53       1.0  T
   4    -41.0862273 -0.130239E-04  0.238E-02    8.54       1.0  T
   5    -41.0862282 -0.936819E-06  0.573E-03    8.55       4.0  T
   6    -41.0862283 -0.923259E-08  0.309E-03    8.55       7.4  T
speedup  1.05
cpu  time for SCC    0.00 s
wall time for SCC    0.00 s
speedup  1.05
cpu  time for grad    0.01 s
wall time for grad    0.01 s
 E :    -40.87976579  G :  0.037939    pred/act E change: -0.164D-02 -0.747D-04
Maxdispl :   0.1502   ||displ|| :   0.2746   Lambda : -0.265D-02
Largest |displ|/coords:  0.1502 (   4)  0.1125 (  17)  0.1115 (  10)
................................................................................
.............................. CYCLE    8 ......................................
................................................................................
   1    -41.0845734 -0.410846E+02  0.390E-01    8.52       0.0  T
   2    -41.0846076 -0.342340E-04  0.297E-01    8.52       1.0  T
   3    -41.0846371 -0.294665E-04  0.354E-02    8.51       1.0  T
   4    -41.0846414 -0.434465E-05  0.876E-03    8.51       2.6  T
   5    -41.0846415 -0.588341E-07  0.431E-03    8.51       5.3  T
   6    -41.0846415 -0.999294E-08  0.179E-03    8.51      12.8  T
speedup  1.08
cpu  time for SCC    0.00 s
wall time for SCC    0.00 s
speedup  1.06
cpu  time for grad    0.01 s
wall time for grad    0.01 s
 E :    -40.88130043  G :  0.017018    pred/act E change: -0.193D-02 -0.153D-02
Maxdispl :   0.1924   ||displ|| :   0.4031   Lambda : -0.155D-02
Largest |displ|/coords:  0.1924 (  10)  0.1725 (   4)  0.1596 (   6)
................................................................................
.............................. CYCLE    9 ......................................
................................................................................
   1    -41.0883280 -0.410883E+02  0.567E-01    8.38       0.0  T
   2    -41.0884021 -0.741413E-04  0.431E-01    8.40       1.0  T
   3    -41.0884611 -0.590072E-04  0.546E-02    8.45       1.0  T
   4    -41.0884710 -0.992483E-05  0.151E-02    8.43       1.5  T
   5    -41.0884715 -0.435376E-06  0.604E-03    8.43       3.8  T
   6    -41.0884715 -0.274165E-08  0.320E-03    8.43       7.2  T
   7    -41.0884715 -0.116981E-07  0.460E-04    8.43      49.9  T
   8    -41.0884715 -0.322686E-09  0.151E-04    8.43     152.2  T
speedup  1.02
cpu  time for SCC    0.00 s
wall time for SCC    0.00 s
speedup  0.93
cpu  time for grad    0.01 s
wall time for grad    0.01 s
 E :    -40.88089563  G :  0.034764    pred/act E change: -0.143D-02  0.405D-03
Maxdispl :   0.1256   ||displ|| :   0.2377   Lambda : -0.178D-02
Largest |displ|/coords:  0.1256 (   4)  0.1026 (  14)  0.0815 (  10)
................................................................................
.............................. CYCLE   10 ......................................
................................................................................
   1    -41.0887344 -0.410887E+02  0.377E-01    8.54       0.0  T
   2    -41.0887648 -0.303934E-04  0.287E-01    8.52       1.0  T
   3    -41.0887899 -0.251162E-04  0.336E-02    8.49       1.0  T
   4    -41.0887939 -0.394353E-05  0.927E-03    8.51       2.5  T
   5    -41.0887940 -0.173112E-06  0.331E-03    8.52       6.9  T
   6    -41.0887940 -0.552120E-09  0.188E-03    8.52      12.2  T
speedup  0.81
cpu  time for SCC    0.00 s
wall time for SCC    0.00 s
speedup  0.94
cpu  time for grad    0.01 s
wall time for grad    0.01 s
 E :    -40.88182124  G :  0.026879    pred/act E change: -0.904D-03 -0.926D-03
Maxdispl :   0.2368   ||displ|| :   0.3594   Lambda : -0.187D-02
Largest |displ|/coords:  0.2368 (   4)  0.1218 (  12)  0.1169 (  10)
................................................................................
.............................. CYCLE   11 ......................................
................................................................................
   1    -41.0829272 -0.410829E+02  0.487E-01    8.56       0.0  T
   2    -41.0830143 -0.871232E-04  0.367E-01    8.55       1.0  T
   3    -41.0830722 -0.579475E-04  0.627E-02    8.52       1.0  T
   4    -41.0830844 -0.121604E-04  0.144E-02    8.52       1.6  T
   5    -41.0830846 -0.230272E-06  0.614E-03    8.52       3.7  T
   6    -41.0830847 -0.209984E-07  0.325E-03    8.52       7.1  T
   7    -41.0830847 -0.110338E-07  0.547E-04    8.52      41.9  T
speedup  0.93
cpu  time for SCC    0.00 s
wall time for SCC    0.00 s
speedup  0.97
cpu  time for grad    0.01 s
wall time for grad    0.01 s
 E :    -40.88093584  G :  0.044941    pred/act E change: -0.938D-03  0.885D-03
Maxdispl :   0.1813   ||displ|| :   0.2474   Lambda : -0.338D-02
Largest |displ|/coords:  0.1813 (   4)  0.0889 (   6)  0.0670 (  10)
................................................................................
.............................. CYCLE   12 ......................................
................................................................................
   1    -41.0907043 -0.410907E+02  0.429E-01    8.49       0.0  T
   2    -41.0907756 -0.713191E-04  0.324E-01    8.49       1.0  T
   3    -41.0908188 -0.432753E-04  0.576E-02    8.50       1.0  T
   4    -41.0908300 -0.111117E-04  0.858E-03    8.50       2.7  T
   5    -41.0908301 -0.959312E-07  0.469E-03    8.50       4.9  T
   6    -41.0908301 -0.359013E-08  0.232E-03    8.50       9.9  T
speedup  1.08
cpu  time for SCC    0.00 s
wall time for SCC    0.00 s
speedup  1.05
cpu  time for grad    0.01 s
wall time for grad    0.01 s
 E :    -40.88224672  G :  0.013123    pred/act E change: -0.105D-02 -0.131D-02
Maxdispl :   0.2739   ||displ|| :   0.4128   Lambda : -0.162D-02
Largest |displ|/coords:  0.2739 (  10)  0.1671 (   6)  0.1323 (  12)
................................................................................
.............................. CYCLE   13 ......................................
................................................................................
   1    -41.0812577 -0.410813E+02  0.460E-01    8.45       0.0  T
   2    -41.0813328 -0.751329E-04  0.345E-01    8.46       1.0  T
   3    -41.0813844 -0.515827E-04  0.548E-02    8.47       1.0  T
   4    -41.0813947 -0.102868E-04  0.166E-02    8.46       1.4  T
   5    -41.0813949 -0.271386E-06  0.629E-03    8.46       3.7  T
   6    -41.0813950 -0.348305E-07  0.330E-03    8.46       6.9  T
   7    -41.0813950 -0.129472E-07  0.754E-04    8.46      30.4  T
   8    -41.0813950 -0.785398E-09  0.214E-04    8.46     107.1  T
speedup  1.00
cpu  time for SCC    0.00 s
wall time for SCC    0.00 s
speedup  1.02
cpu  time for grad    0.01 s
wall time for grad    0.01 s
 E :    -40.88135167  G :  0.052883    pred/act E change: -0.179D-02  0.895D-03
Maxdispl :   0.1808   ||displ|| :   0.3424   Lambda : -0.647D-02
Largest |displ|/coords:  0.1808 (  12)  0.1763 (  10)  0.1286 (  14)
................................................................................
.............................. CYCLE   14 ......................................
................................................................................
   1    -41.0946447 -0.410946E+02  0.520E-01    8.55       0.0  T
   2    -41.0947755 -0.130836E-03  0.390E-01    8.55       1.0  T
   3    -41.0948655 -0.900237E-04  0.732E-02    8.55       1.0  T
   4    -41.0948815 -0.159491E-04  0.210E-02    8.56       1.1  T
   5    -41.0948820 -0.541735E-06  0.834E-03    8.56       2.7  T
   6    -41.0948820 -0.265833E-07  0.403E-03    8.56       5.7  T
   7    -41.0948821 -0.235507E-07  0.979E-04    8.56      23.4  T
speedup  0.93
cpu  time for SCC    0.00 s
wall time for SCC    0.00 s
speedup  0.97
cpu  time for grad    0.01 s
wall time for grad    0.01 s
 E :    -40.88189265  G :  0.038370    pred/act E change: -0.949D-03 -0.541D-03
Maxdispl :   0.1038   ||displ|| :   0.1980   Lambda : -0.175D-02
Largest |displ|/coords:  0.1038 (   6)  0.0687 (   4)  0.0626 (   7)
................................................................................
.............................. CYCLE   15 ......................................
................................................................................
   1    -41.0900871 -0.410901E+02  0.188E-01    8.52       0.0  T
   2    -41.0900986 -0.114234E-04  0.142E-01    8.52       1.0  T
   3    -41.0901062 -0.765506E-05  0.217E-02    8.50       1.1  T
   4    -41.0901077 -0.148630E-05  0.815E-03    8.50       2.8  T
   5    -41.0901078 -0.933057E-07  0.202E-03    8.50      11.4  T
   6    -41.0901078 -0.275701E-08  0.116E-03    8.50      19.7  T
speedup  1.05
cpu  time for SCC    0.00 s
wall time for SCC    0.00 s
speedup  1.05
cpu  time for grad    0.01 s
wall time for grad    0.01 s
 E :    -40.88304912  G :  0.008902    pred/act E change: -0.361D-02 -0.116D-02
Maxdispl :   0.2582   ||displ|| :   0.3418   Lambda : -0.869D-03
Largest |displ|/coords:  0.2582 (   6)  0.1081 (   7)  0.0940 (   4)
................................................................................
.............................. CYCLE   16 ......................................
................................................................................
   1    -41.0869700 -0.410870E+02  0.245E-01    8.53       0.0  T
   2    -41.0869920 -0.219698E-04  0.184E-01    8.55       1.0  T
   3    -41.0870059 -0.139057E-04  0.304E-02    8.57       1.0  T
   4    -41.0870090 -0.309368E-05  0.831E-03    8.56       2.8  T
   5    -41.0870091 -0.112245E-06  0.300E-03    8.56       7.6  T
   6    -41.0870091 -0.337921E-08  0.168E-03    8.56      13.7  T
speedup  0.79
cpu  time for SCC    0.00 s
wall time for SCC    0.00 s
speedup  0.93
cpu  time for grad    0.01 s
wall time for grad    0.01 s
 E :    -40.88339461  G :  0.021955    pred/act E change: -0.907D-03 -0.345D-03
Maxdispl :   0.2578   ||displ|| :   0.3226   Lambda : -0.649D-03
Largest |displ|/coords:  0.2578 (   6)  0.1141 (   7)  0.0977 (   4)
................................................................................
.............................. CYCLE   17 ......................................
................................................................................
   1    -41.0871870 -0.410872E+02  0.131E-01    8.53       0.0  T
   2    -41.0871926 -0.554253E-05  0.978E-02    8.52       1.0  T
   3    -41.0871959 -0.328779E-05  0.178E-02    8.49       1.3  T
   4    -41.0871966 -0.761489E-06  0.435E-03    8.50       5.3  T
   5    -41.0871967 -0.270568E-07  0.143E-03    8.50      16.0  T
speedup  0.97
cpu  time for SCC    0.00 s
wall time for SCC    0.00 s
speedup  1.00
cpu  time for grad    0.01 s
wall time for grad    0.01 s
 E :    -40.88386527  G :  0.020647    pred/act E change: -0.485D-03 -0.471D-03
Maxdispl :   0.5113   ||displ|| :   0.6019   Lambda : -0.125D-02
Largest |displ|/coords:  0.5113 (   6)  0.2354 (   7)  0.1570 (   4)
................................................................................
.............................. CYCLE   18 ......................................
................................................................................
   1    -41.0915689 -0.410916E+02  0.127E-01    8.57       0.0  T
   2    -41.0915777 -0.879890E-05  0.945E-02    8.56       1.0  T
   3    -41.0915826 -0.489111E-05  0.199E-02    8.54       1.2  T
   4    -41.0915838 -0.113955E-05  0.525E-03    8.55       4.4  T
   5    -41.0915838 -0.463425E-07  0.176E-03    8.55      13.0  T
speedup  0.97
cpu  time for SCC    0.00 s
wall time for SCC    0.00 s
speedup  1.00
cpu  time for grad    0.01 s
wall time for grad    0.01 s
 E :    -40.88479180  G :  0.010409    pred/act E change: -0.359D-03 -0.927D-03
Maxdispl :   0.6942   ||displ|| :   0.8038   Lambda : -0.133D-02
Largest |displ|/coords:  0.6942 (   6)  0.2931 (   7)  0.2117 (   4)
................................................................................
.............................. CYCLE   19 ......................................
................................................................................
   1    -41.0931852 -0.410932E+02  0.174E-01    8.60       0.0  T
   2    -41.0931894 -0.421826E-05  0.132E-01    8.60       1.0  T
   3    -41.0931935 -0.409400E-05  0.120E-02    8.60       1.9  T
   4    -41.0931940 -0.465438E-06  0.440E-03    8.60       5.2  T
   5    -41.0931940 -0.175500E-07  0.161E-03    8.60      14.2  T
   6    -41.0931940 -0.161440E-08  0.827E-04    8.60      27.8  T
speedup  0.81
cpu  time for SCC    0.00 s
wall time for SCC    0.00 s
speedup  0.91
cpu  time for grad    0.01 s
wall time for grad    0.01 s
 E :    -40.88617034  G :  0.013167    pred/act E change: -0.850D-03 -0.138D-02
Maxdispl :   0.6951   ||displ|| :   0.8123   Lambda : -0.152D-02
Largest |displ|/coords:  0.6951 (   6)  0.3115 (   7)  0.2105 (   4)
................................................................................
.............................. CYCLE   20 ......................................
................................................................................
   1    -41.0933953 -0.410934E+02  0.182E-01    8.63       0.0  T
   2    -41.0934032 -0.787694E-05  0.137E-01    8.63       1.0  T
   3    -41.0934091 -0.589586E-05  0.175E-02    8.63       1.3  T
   4    -41.0934102 -0.111549E-05  0.447E-03    8.63       5.1  T
   5    -41.0934103 -0.218072E-07  0.195E-03    8.63      11.8  T
   6    -41.0934103 -0.213643E-08  0.102E-03    8.63      22.4  T
speedup  1.05
cpu  time for SCC    0.00 s
wall time for SCC    0.00 s
speedup  1.02
cpu  time for grad    0.01 s
wall time for grad    0.01 s
 E :    -40.88765841  G :  0.013759    pred/act E change: -0.109D-02 -0.149D-02
Maxdispl :   0.7250   ||displ|| :   0.8412   Lambda : -0.189D-02
Largest |displ|/coords:  0.7250 (   6)  0.3044 (   7)  0.1883 (   4)
................................................................................
.............................. CYCLE   21 ......................................
................................................................................
   1    -41.0942429 -0.410942E+02  0.236E-01    8.73       0.0  T
   2    -41.0942665 -0.235986E-04  0.177E-01    8.73       1.0  T
   3    -41.0942816 -0.150490E-04  0.314E-02    8.74       1.0  T
   4    -41.0942848 -0.327396E-05  0.862E-03    8.73       2.7  T
   5    -41.0942849 -0.797682E-07  0.323E-03    8.73       7.1  T
   6    -41.0942849 -0.465998E-08  0.170E-03    8.73      13.5  T
   7    -41.0942849 -0.332896E-08  0.302E-04    8.73      76.0  T
speedup  0.70
cpu  time for SCC    0.00 s
wall time for SCC    0.00 s
speedup  0.94
cpu  time for grad    0.01 s
wall time for grad    0.01 s
 E :    -40.88866636  G :  0.019379    pred/act E change: -0.126D-02 -0.101D-02
Maxdispl :   0.2139   ||displ|| :   0.2979   Lambda : -0.573D-03
Largest |displ|/coords:  0.2139 (   6)  0.1144 (   4)  0.0826 (   7)
................................................................................
.............................. CYCLE   22 ......................................
................................................................................
   1    -41.0934901 -0.410935E+02  0.189E-01    8.66       0.0  T
   2    -41.0935021 -0.119141E-04  0.142E-01    8.66       1.0  T
   3    -41.0935112 -0.910630E-05  0.240E-02    8.68       1.0  T
   4    -41.0935126 -0.143403E-05  0.598E-03    8.68       3.8  T
   5    -41.0935126 -0.413463E-07  0.259E-03    8.68       8.9  T
   6    -41.0935126 -0.356347E-08  0.132E-03    8.68      17.4  T
speedup  0.81
cpu  time for SCC    0.00 s
wall time for SCC    0.00 s
speedup  0.91
cpu  time for grad    0.01 s
wall time for grad    0.01 s
 E :    -40.88856038  G :  0.020824    pred/act E change: -0.161D-02  0.106D-03
Maxdispl :   0.2725   ||displ|| :   0.3948   Lambda : -0.109D-02
Largest |displ|/coords:  0.2725 (   6)  0.1778 (   2)  0.1608 (   7)
................................................................................
.............................. CYCLE   23 ......................................
................................................................................
   1    -41.0977565 -0.410978E+02  0.160E-01    8.79       0.0  T
   2    -41.0977647 -0.820931E-05  0.118E-01    8.80       1.0  T
   3    -41.0977693 -0.464718E-05  0.263E-02    8.80       1.0  T
   4    -41.0977703 -0.959728E-06  0.849E-03    8.81       2.7  T
   5    -41.0977704 -0.568031E-07  0.175E-03    8.81      13.1  T
   6    -41.0977704 -0.211777E-08  0.107E-03    8.81      21.5  T
speedup  1.05
cpu  time for SCC    0.00 s
wall time for SCC    0.00 s
speedup  1.01
cpu  time for grad    0.01 s
wall time for grad    0.01 s
 E :    -40.88889603  G :  0.012157    pred/act E change: -0.312D-03 -0.336D-03
Maxdispl :   0.1592   ||displ|| :   0.3042   Lambda : -0.900D-03
Largest |displ|/coords:  0.1592 (   6)  0.1344 (  11)  0.1182 (  16)
................................................................................
.............................. CYCLE   24 ......................................
................................................................................
   1    -41.0951867 -0.410952E+02  0.217E-01    8.79       0.0  T
   2    -41.0952031 -0.164314E-04  0.163E-01    8.78       1.0  T
   3    -41.0952162 -0.131176E-04  0.271E-02    8.75       1.0  T
   4    -41.0952182 -0.202543E-05  0.841E-03    8.76       2.7  T
   5    -41.0952183 -0.826568E-07  0.359E-03    8.76       6.4  T
   6    -41.0952183 -0.128123E-07  0.166E-03    8.76      13.8  T
   7    -41.0952183 -0.620601E-08  0.468E-04    8.76      49.0  T
speedup  0.93
cpu  time for SCC    0.00 s
wall time for SCC    0.00 s
speedup  0.96
cpu  time for grad    0.01 s
wall time for grad    0.01 s
 E :    -40.88891134  G :  0.027969    pred/act E change: -0.627D-03 -0.153D-04
Maxdispl :   0.1981   ||displ|| :   0.2410   Lambda : -0.104D-02
Largest |displ|/coords:  0.1981 (  11)  0.0591 (   6)  0.0574 (   2)
................................................................................
.............................. CYCLE   25 ......................................
................................................................................
   1    -41.0951215 -0.410951E+02  0.235E-01    8.76       0.0  T
   2    -41.0951323 -0.107645E-04  0.176E-01    8.75       1.0  T
   3    -41.0951424 -0.101311E-04  0.205E-02    8.74       1.1  T
   4    -41.0951436 -0.114583E-05  0.707E-03    8.74       3.2  T
   5    -41.0951436 -0.517273E-07  0.326E-03    8.75       7.0  T
   6    -41.0951436 -0.167966E-07  0.128E-03    8.75      17.9  T
speedup  1.05
cpu  time for SCC    0.00 s
wall time for SCC    0.00 s
speedup  1.01
cpu  time for grad    0.01 s
wall time for grad    0.01 s
 E :    -40.88912892  G :  0.030117    pred/act E change: -0.492D-03 -0.218D-03
Maxdispl :   0.1089   ||displ|| :   0.1975   Lambda : -0.114D-02
Largest |displ|/coords:  0.1089 (  16)  0.0726 (   2)  0.0667 (   5)

generating ANC from model Hessian ...
 Shifting diagonal of input Hessian by   4.995587289756071E-003
 Lowest  eigenvalues of input Hessian
   -0.000000   -0.000000   -0.000000   -0.000000    0.000000    0.000000
    0.005000    0.005081    0.005290    0.005509    0.005594    0.005838
    0.006164    0.006221    0.007295    0.007614    0.008709    0.009253
 Highest eigenvalues
    1.413984    1.427906    1.435184    2.624663    3.346157    3.665160
 
cpu  time for ANC gen    0.01 s
wall time for ANC gen    0.01 s
................................................................................
.............................. CYCLE   26 ......................................
................................................................................
   1    -41.0954222 -0.410954E+02  0.170E-01    8.68       0.0  T
   2    -41.0954402 -0.179880E-04  0.126E-01    8.69       1.0  T
   3    -41.0954503 -0.101730E-04  0.290E-02    8.73       1.0  T
   4    -41.0954524 -0.209264E-05  0.723E-03    8.73       3.2  T
   5    -41.0954525 -0.924646E-07  0.268E-03    8.73       8.5  T
   6    -41.0954525 -0.626932E-08  0.145E-03    8.73      15.8  T
   7    -41.0954525 -0.333952E-08  0.472E-04    8.73      48.6  T
   8    -41.0954525 -0.596785E-09  0.183E-04    8.73     125.2  T
speedup  1.02
cpu  time for SCC    0.00 s
wall time for SCC    0.00 s
speedup  1.06
cpu  time for grad    0.01 s
wall time for grad    0.01 s
 E :    -40.88948514  G :  0.015527    pred/act E change:  0.000D+00 -0.356D-03
Maxdispl :   0.1496   ||displ|| :   0.2571   Lambda : -0.105D-02
Largest |displ|/coords:  0.1496 (   8)  0.0977 (   6)  0.0731 (   9)
................................................................................
.............................. CYCLE   27 ......................................
................................................................................
   1    -41.0950153 -0.410950E+02  0.339E-01    8.70       0.0  T
   2    -41.0950292 -0.139159E-04  0.257E-01    8.70       1.0  T
   3    -41.0950443 -0.150120E-04  0.233E-02    8.68       1.0  T
   4    -41.0950454 -0.118620E-05  0.809E-03    8.69       2.8  T
   5    -41.0950455 -0.600356E-07  0.310E-03    8.69       7.4  T
   6    -41.0950455 -0.418255E-08  0.139E-03    8.69      16.5  T
   7    -41.0950455 -0.562949E-08  0.386E-04    8.69      59.5  T
speedup  0.93
cpu  time for SCC    0.00 s
wall time for SCC    0.00 s
speedup  0.95
cpu  time for grad    0.01 s
wall time for grad    0.01 s
 E :    -40.89026358  G :  0.011341    pred/act E change:  0.000D+00 -0.778D-03
Maxdispl :   0.2291   ||displ|| :   0.4619   Lambda : -0.120D-02
Largest |displ|/coords:  0.2291 (   6)  0.1902 (   8)  0.1840 (   7)
................................................................................
.............................. CYCLE   28 ......................................
................................................................................
   1    -41.0914004 -0.410914E+02  0.459E-01    8.63       0.0  T
   2    -41.0914409 -0.405369E-04  0.346E-01    8.62       1.0  T
   3    -41.0914764 -0.354675E-04  0.403E-02    8.61       1.0  T
   4    -41.0914816 -0.519896E-05  0.114E-02    8.61       2.0  T
   5    -41.0914817 -0.743719E-07  0.552E-03    8.61       4.2  T
   6    -41.0914817 -0.325246E-07  0.207E-03    8.61      11.1  T
   7    -41.0914817 -0.782584E-08  0.587E-04    8.61      39.1  T
speedup  0.93
cpu  time for SCC    0.00 s
wall time for SCC    0.00 s
speedup  0.96
cpu  time for grad    0.01 s
wall time for grad    0.01 s
 E :    -40.89013821  G :  0.042542    pred/act E change: -0.560D-03  0.125D-03
Maxdispl :   0.0997   ||displ|| :   0.1983   Lambda : -0.202D-02
Largest |displ|/coords:  0.0997 (   7)  0.0825 (   1)  0.0677 (   2)
................................................................................
.............................. CYCLE   29 ......................................
................................................................................
   1    -41.0954917 -0.410955E+02  0.240E-01    8.62       0.0  T
   2    -41.0955146 -0.228512E-04  0.181E-01    8.63       1.0  T
   3    -41.0955331 -0.185624E-04  0.307E-02    8.63       1.0  T
   4    -41.0955362 -0.309278E-05  0.707E-03    8.63       3.2  T
   5    -41.0955362 -0.306427E-07  0.403E-03    8.63       5.7  T
   6    -41.0955363 -0.123905E-07  0.652E-04    8.63      35.2  T
speedup  1.05
cpu  time for SCC    0.00 s
wall time for SCC    0.00 s
speedup  1.01
cpu  time for grad    0.01 s
wall time for grad    0.01 s
 E :    -40.89114607  G :  0.011582    pred/act E change: -0.729D-03 -0.101D-02
Maxdispl :   0.1925   ||displ|| :   0.3338   Lambda : -0.641D-03
Largest |displ|/coords:  0.1925 (   1)  0.1812 (   8)  0.1157 (   6)
................................................................................
.............................. CYCLE   30 ......................................
................................................................................
   1    -41.0931433 -0.410931E+02  0.285E-01    8.58       0.0  T
   2    -41.0931515 -0.821754E-05  0.216E-01    8.58       1.0  T
   3    -41.0931601 -0.863279E-05  0.179E-02    8.58       1.3  T
   4    -41.0931609 -0.774838E-06  0.541E-03    8.58       4.2  T
   5    -41.0931609 -0.142631E-07  0.277E-03    8.58       8.3  T
   6    -41.0931609 -0.952262E-08  0.105E-03    8.58      21.9  T
speedup  1.05
cpu  time for SCC    0.00 s
wall time for SCC    0.00 s
speedup  0.98
cpu  time for grad    0.01 s
wall time for grad    0.01 s
 E :    -40.89155158  G :  0.021361    pred/act E change: -0.105D-02 -0.406D-03
Maxdispl :   0.3714   ||displ|| :   0.5885   Lambda : -0.151D-02
Largest |displ|/coords:  0.3714 (   1)  0.2224 (   8)  0.1927 (   2)
................................................................................
.............................. CYCLE   31 ......................................
................................................................................
   1    -41.0936468 -0.410936E+02  0.319E-01    8.48       0.0  T
   2    -41.0936613 -0.145068E-04  0.239E-01    8.48       1.0  T
   3    -41.0936741 -0.127901E-04  0.277E-02    8.48       1.0  T
   4    -41.0936757 -0.164144E-05  0.882E-03    8.48       2.6  T
   5    -41.0936758 -0.741535E-07  0.340E-03    8.48       6.7  T
   6    -41.0936758 -0.130146E-07  0.182E-03    8.48      12.6  T
speedup  1.05
cpu  time for SCC    0.00 s
wall time for SCC    0.00 s
speedup  1.00
cpu  time for grad    0.01 s
wall time for grad    0.01 s
 E :    -40.89275391  G :  0.011900    pred/act E change: -0.356D-03 -0.120D-02
Maxdispl :   0.4402   ||displ|| :   0.7121   Lambda : -0.168D-02
Largest |displ|/coords:  0.4402 (   1)  0.2498 (   8)  0.2339 (   6)
................................................................................
.............................. CYCLE   32 ......................................
................................................................................
   1    -41.0908847 -0.410909E+02  0.447E-01    8.41       0.0  T
   2    -41.0909338 -0.490187E-04  0.336E-01    8.40       1.0  T
   3    -41.0909673 -0.335315E-04  0.456E-02    8.40       1.0  T
   4    -41.0909750 -0.772311E-05  0.112E-02    8.40       2.0  T
   5    -41.0909751 -0.748665E-07  0.542E-03    8.40       4.2  T
   6    -41.0909751 -0.328928E-07  0.215E-03    8.40      10.7  T
   7    -41.0909751 -0.606567E-08  0.657E-04    8.40      34.9  T
speedup  0.91
cpu  time for SCC    0.00 s
wall time for SCC    0.00 s
speedup  1.04
cpu  time for grad    0.01 s
wall time for grad    0.01 s
 E :    -40.89374760  G :  0.026381    pred/act E change: -0.102D-02 -0.994D-03
Maxdispl :   0.2884   ||displ|| :   0.4604   Lambda : -0.130D-02
Largest |displ|/coords:  0.2884 (   1)  0.2094 (   2)  0.1753 (   8)
................................................................................
.............................. CYCLE   33 ......................................
................................................................................
   1    -41.0918246 -0.410918E+02  0.248E-01    8.43       0.0  T
   2    -41.0918350 -0.103522E-04  0.186E-01    8.43       1.0  T
   3    -41.0918420 -0.705578E-05  0.213E-02    8.44       1.1  T
   4    -41.0918436 -0.154540E-05  0.731E-03    8.44       3.1  T
   5    -41.0918436 -0.576876E-07  0.286E-03    8.44       8.0  T
   6    -41.0918436 -0.675462E-08  0.147E-03    8.44      15.6  T
speedup  0.81
cpu  time for SCC    0.00 s
wall time for SCC    0.00 s
speedup  1.01
cpu  time for grad    0.01 s
wall time for grad    0.01 s
 E :    -40.89470437  G :  0.017697    pred/act E change: -0.127D-02 -0.957D-03
Maxdispl :   0.2320   ||displ|| :   0.4579   Lambda : -0.181D-02
Largest |displ|/coords:  0.2320 (   1)  0.2193 (   2)  0.1553 (   5)
................................................................................
.............................. CYCLE   34 ......................................
................................................................................
   1    -41.1089009 -0.411089E+02  0.266E-01    8.72       0.0  T
   2    -41.1089266 -0.257410E-04  0.201E-01    8.72       1.0  T
   3    -41.1089477 -0.210917E-04  0.409E-02    8.74       1.0  T
   4    -41.1089503 -0.257750E-05  0.125E-02    8.74       1.8  T
   5    -41.1089505 -0.160289E-06  0.341E-03    8.74       6.7  T
   6    -41.1089505 -0.466012E-08  0.186E-03    8.74      12.3  T
   7    -41.1089505 -0.348741E-08  0.428E-04    8.74      53.7  T
speedup  1.16
cpu  time for SCC    0.00 s
wall time for SCC    0.00 s
speedup  1.05
cpu  time for grad    0.01 s
wall time for grad    0.01 s
 E :    -40.89391597  G :  0.047219    pred/act E change: -0.790D-03  0.788D-03
Maxdispl :   0.1609   ||displ|| :   0.3449   Lambda : -0.328D-02
Largest |displ|/coords:  0.1609 (   1)  0.1565 (   8)  0.1267 (   6)
................................................................................
.............................. CYCLE   35 ......................................
................................................................................
   1    -41.0954912 -0.410955E+02  0.309E-01    8.56       0.0  T
   2    -41.0955065 -0.153087E-04  0.231E-01    8.56       1.0  T
   3    -41.0955205 -0.139248E-04  0.283E-02    8.58       1.0  T
   4    -41.0955222 -0.168958E-05  0.842E-03    8.57       2.7  T
   5    -41.0955222 -0.613181E-07  0.392E-03    8.57       5.8  T
   6    -41.0955222 -0.140762E-07  0.185E-03    8.57      12.4  T
speedup  1.05
cpu  time for SCC    0.00 s
wall time for SCC    0.00 s
speedup  1.00
cpu  time for grad    0.01 s
wall time for grad    0.01 s
 E :    -40.89582502  G :  0.016931    pred/act E change: -0.109D-02 -0.191D-02
Maxdispl :   0.2191   ||displ|| :   0.3863   Lambda : -0.118D-02
Largest |displ|/coords:  0.2191 (   1)  0.1473 (   9)  0.1388 (  12)
................................................................................
.............................. CYCLE   36 ......................................
................................................................................
   1    -41.0974799 -0.410975E+02  0.338E-01    8.63       0.0  T
   2    -41.0975073 -0.274428E-04  0.253E-01    8.61       1.0  T
   3    -41.0975303 -0.229922E-04  0.366E-02    8.56       1.0  T
   4    -41.0975335 -0.316701E-05  0.770E-03    8.60       3.0  T
   5    -41.0975335 -0.451838E-07  0.460E-03    8.60       5.0  T
   6    -41.0975336 -0.198217E-07  0.129E-03    8.59      17.7  T
   7    -41.0975336 -0.269419E-08  0.419E-04    8.59      54.8  T
speedup  0.93
cpu  time for SCC    0.00 s
wall time for SCC    0.00 s
speedup  0.94
cpu  time for grad    0.01 s
wall time for grad    0.01 s
 E :    -40.89529866  G :  0.034096    pred/act E change: -0.183D-02  0.526D-03
Maxdispl :   0.1528   ||displ|| :   0.2998   Lambda : -0.227D-02
Largest |displ|/coords:  0.1528 (   1)  0.1443 (   5)  0.1057 (   8)
................................................................................
.............................. CYCLE   37 ......................................
................................................................................
   1    -41.0941664 -0.410942E+02  0.264E-01    8.43       0.0  T
   2    -41.0941848 -0.184200E-04  0.200E-01    8.44       1.0  T
   3    -41.0942031 -0.183237E-04  0.297E-02    8.48       1.0  T
   4    -41.0942047 -0.161238E-05  0.107E-02    8.47       2.1  T
   5    -41.0942049 -0.140858E-06  0.328E-03    8.46       7.0  T
   6    -41.0942049 -0.863998E-08  0.194E-03    8.46      11.8  T
speedup  1.05
cpu  time for SCC    0.00 s
wall time for SCC    0.00 s
speedup  1.00
cpu  time for grad    0.01 s
wall time for grad    0.01 s
 E :    -40.89629628  G :  0.024971    pred/act E change: -0.677D-03 -0.998D-03
Maxdispl :   0.2132   ||displ|| :   0.3421   Lambda : -0.171D-02
Largest |displ|/coords:  0.2132 (   5)  0.1299 (  12)  0.1252 (   9)
................................................................................
.............................. CYCLE   38 ......................................
................................................................................
   1    -41.0940648 -0.410941E+02  0.405E-01    8.53       0.0  T
   2    -41.0941325 -0.677452E-04  0.305E-01    8.57       1.0  T
   3    -41.0941859 -0.533841E-04  0.556E-02    8.66       1.0  T
   4    -41.0941948 -0.893809E-05  0.161E-02    8.61       1.4  T
   5    -41.0941951 -0.245260E-06  0.629E-03    8.61       3.6  T
   6    -41.0941951 -0.337050E-07  0.349E-03    8.61       6.6  T
   7    -41.0941951 -0.126569E-07  0.718E-04    8.61      32.0  T
speedup  1.14
cpu  time for SCC    0.00 s
wall time for SCC    0.00 s
speedup  1.04
cpu  time for grad    0.01 s
wall time for grad    0.01 s
 E :    -40.89473547  G :  0.051879    pred/act E change: -0.124D-02  0.156D-02
Maxdispl :   0.2467   ||displ|| :   0.4561   Lambda : -0.902D-02
Largest |displ|/coords:  0.2467 (   5)  0.1942 (  12)  0.1922 (   9)
................................................................................
.............................. CYCLE   39 ......................................
................................................................................
   1    -41.0997043 -0.410997E+02  0.547E-01    8.76       0.0  T
   2    -41.0998632 -0.158929E-03  0.408E-01    8.69       1.0  T
   3    -41.0999708 -0.107568E-03  0.858E-02    8.55       1.0  T
   4    -41.0999893 -0.185216E-04  0.232E-02    8.62       1.0  T
   5    -41.0999902 -0.898124E-06  0.891E-03    8.63       2.6  T
   6    -41.0999903 -0.219786E-07  0.472E-03    8.63       4.9  T
   7    -41.0999903 -0.255659E-07  0.749E-04    8.63      30.6  T
speedup  0.93
cpu  time for SCC    0.00 s
wall time for SCC    0.00 s
speedup  0.94
cpu  time for grad    0.01 s
wall time for grad    0.01 s
 E :    -40.89480699  G :  0.056659    pred/act E change: -0.953D-03 -0.715D-04
Maxdispl :   0.1376   ||displ|| :   0.3109   Lambda : -0.563D-02
Largest |displ|/coords:  0.1376 (   6)  0.1105 (  15)  0.1075 (   7)
................................................................................
.............................. CYCLE   40 ......................................
................................................................................
   1    -41.0965243 -0.410965E+02  0.361E-01    8.46       0.0  T
   2    -41.0966220 -0.977038E-04  0.267E-01    8.52       1.0  T
   3    -41.0966837 -0.617208E-04  0.651E-02    8.63       1.0  T
   4    -41.0966941 -0.103599E-04  0.123E-02    8.58       1.9  T
   5    -41.0966942 -0.116890E-06  0.622E-03    8.58       3.7  T
   6    -41.0966942 -0.310846E-07  0.257E-03    8.58       8.9  T
   7    -41.0966943 -0.759359E-08  0.664E-04    8.58      34.5  T
speedup  1.09
cpu  time for SCC    0.00 s
wall time for SCC    0.00 s
speedup  1.02
cpu  time for grad    0.01 s
wall time for grad    0.01 s
 E :    -40.89585152  G :  0.034040    pred/act E change: -0.545D-02 -0.104D-02
Maxdispl :   0.1583   ||displ|| :   0.2533   Lambda : -0.249D-02
Largest |displ|/coords:  0.1583 (   6)  0.1253 (  15)  0.0830 (   3)
................................................................................
.............................. CYCLE   41 ......................................
................................................................................
   1    -41.0988414 -0.410988E+02  0.403E-01    8.67       0.0  T
   2    -41.0988751 -0.336661E-04  0.307E-01    8.66       1.0  T
   3    -41.0989047 -0.295992E-04  0.342E-02    8.62       1.0  T
   4    -41.0989088 -0.407550E-05  0.983E-03    8.64       2.3  T
   5    -41.0989090 -0.184199E-06  0.384E-03    8.65       6.0  T
   6    -41.0989090 -0.269146E-08  0.208E-03    8.65      11.0  T
speedup  1.05
cpu  time for SCC    0.00 s
wall time for SCC    0.00 s
speedup  1.00
cpu  time for grad    0.01 s
wall time for grad    0.01 s
 E :    -40.89687096  G :  0.013797    pred/act E change: -0.309D-02 -0.102D-02
Maxdispl :   0.1802   ||displ|| :   0.2346   Lambda : -0.454D-03
Largest |displ|/coords:  0.1802 (   1)  0.0686 (   8)  0.0594 (   6)
................................................................................
.............................. CYCLE   42 ......................................
................................................................................
   1    -41.0964886 -0.410965E+02  0.166E-01    8.61       0.0  T
   2    -41.0964991 -0.105823E-04  0.124E-01    8.61       1.0  T
   3    -41.0965060 -0.689791E-05  0.230E-02    8.59       1.0  T
   4    -41.0965075 -0.149195E-05  0.653E-03    8.60       3.5  T
   5    -41.0965076 -0.595117E-07  0.243E-03    8.60       9.4  T
   6    -41.0965076 -0.416433E-08  0.133E-03    8.60      17.3  T
speedup  1.08
cpu  time for SCC    0.00 s
wall time for SCC    0.00 s
speedup  1.00
cpu  time for grad    0.01 s
wall time for grad    0.01 s
 E :    -40.89703248  G :  0.017444    pred/act E change: -0.133D-02 -0.162D-03
Maxdispl :   0.0724   ||displ|| :   0.1258   Lambda : -0.305D-03
Largest |displ|/coords:  0.0724 (   1)  0.0699 (   6)  0.0329 (   5)
................................................................................
.............................. CYCLE   43 ......................................
................................................................................
   1    -41.0973546 -0.410974E+02  0.675E-02    8.58       0.0  T
   2    -41.0973555 -0.895018E-06  0.506E-02    8.58       1.0  T
   3    -41.0973565 -0.979212E-06  0.685E-03    8.59       3.4  T
   4    -41.0973566 -0.796799E-07  0.262E-03    8.59       8.8  T
   5    -41.0973566 -0.670661E-08  0.850E-04    8.59      27.0  T
speedup  0.94
cpu  time for SCC    0.00 s
wall time for SCC    0.00 s
speedup  0.94
cpu  time for grad    0.01 s
wall time for grad    0.01 s
 E :    -40.89726555  G :  0.012521    pred/act E change: -0.239D-03 -0.233D-03
Maxdispl :   0.2552   ||displ|| :   0.3793   Lambda : -0.743D-03
Largest |displ|/coords:  0.2552 (   1)  0.1347 (   5)  0.1251 (   6)
................................................................................
.............................. CYCLE   44 ......................................
................................................................................
   1    -41.0980574 -0.410981E+02  0.253E-01    8.55       0.0  T
   2    -41.0980833 -0.259646E-04  0.191E-01    8.56       1.0  T
   3    -41.0980992 -0.158651E-04  0.319E-02    8.59       1.0  T
   4    -41.0981036 -0.444477E-05  0.863E-03    8.58       2.7  T
   5    -41.0981037 -0.478202E-07  0.365E-03    8.58       6.3  T
   6    -41.0981037 -0.107518E-07  0.154E-03    8.58      14.9  T
   7    -41.0981037 -0.236975E-08  0.430E-04    8.58      53.3  T
speedup  1.14
cpu  time for SCC    0.00 s
wall time for SCC    0.00 s
speedup  1.03
cpu  time for grad    0.01 s
wall time for grad    0.01 s
 E :    -40.89768995  G :  0.019045    pred/act E change: -0.155D-03 -0.424D-03
Maxdispl :   0.2634   ||displ|| :   0.4111   Lambda : -0.773D-03
Largest |displ|/coords:  0.2634 (   1)  0.1496 (   6)  0.1118 (   8)
................................................................................
.............................. CYCLE   45 ......................................
................................................................................
   1    -41.0989905 -0.410990E+02  0.238E-01    8.60       0.0  T
   2    -41.0990195 -0.290481E-04  0.177E-01    8.60       1.0  T
   3    -41.0990363 -0.167265E-04  0.361E-02    8.59       1.0  T
   4    -41.0990405 -0.419949E-05  0.865E-03    8.60       2.7  T
   5    -41.0990406 -0.892237E-07  0.417E-03    8.60       5.5  T
   6    -41.0990406 -0.162340E-07  0.186E-03    8.60      12.4  T
   7    -41.0990406 -0.547343E-08  0.608E-04    8.60      37.7  T
speedup  0.93
cpu  time for SCC    0.00 s
wall time for SCC    0.00 s
speedup  0.94
cpu  time for grad    0.01 s
wall time for grad    0.01 s
 E :    -40.89829813  G :  0.017895    pred/act E change: -0.425D-03 -0.608D-03
Maxdispl :   0.4159   ||displ|| :   0.6380   Lambda : -0.126D-02
Largest |displ|/coords:  0.4159 (   1)  0.2696 (   6)  0.1431 (   8)
................................................................................
.............................. CYCLE   46 ......................................
................................................................................
   1    -41.0987623 -0.410988E+02  0.379E-01    8.55       0.0  T
   2    -41.0988981 -0.135798E-03  0.281E-01    8.54       1.0  T
   3    -41.0989659 -0.678322E-04  0.736E-02    8.52       1.0  T
   4    -41.0989840 -0.181115E-04  0.156E-02    8.53       1.5  T
   5    -41.0989842 -0.198941E-06  0.750E-03    8.53       3.1  T
   6    -41.0989842 -0.450902E-07  0.305E-03    8.53       7.5  T
   7    -41.0989842 -0.115339E-07  0.103E-03    8.53      22.3  T
   8    -41.0989843 -0.193480E-08  0.295E-04    8.53      77.7  T
speedup  1.00
cpu  time for SCC    0.00 s
wall time for SCC    0.01 s
speedup  1.07
cpu  time for grad    0.01 s
wall time for grad    0.01 s
 E :    -40.89911712  G :  0.018443    pred/act E change: -0.452D-03 -0.819D-03
Maxdispl :   0.3465   ||displ|| :   0.5626   Lambda : -0.133D-02
Largest |displ|/coords:  0.3465 (   1)  0.2373 (   6)  0.1541 (   5)
................................................................................
.............................. CYCLE   47 ......................................
................................................................................
   1    -41.0942825 -0.410943E+02  0.374E-01    8.43       0.0  T
   2    -41.0944127 -0.130133E-03  0.277E-01    8.43       1.0  T
   3    -41.0944716 -0.588990E-04  0.709E-02    8.44       1.0  T
   4    -41.0944891 -0.174911E-04  0.141E-02    8.43       1.6  T
   5    -41.0944892 -0.166514E-06  0.713E-03    8.43       3.2  T
   6    -41.0944893 -0.349709E-07  0.278E-03    8.44       8.3  T
   7    -41.0944893 -0.940398E-08  0.871E-04    8.44      26.4  T
speedup  0.91
cpu  time for SCC    0.00 s
wall time for SCC    0.00 s
speedup  1.03
cpu  time for grad    0.01 s
wall time for grad    0.01 s
 E :    -40.89995008  G :  0.032234    pred/act E change: -0.884D-03 -0.833D-03
Maxdispl :   0.1599   ||displ|| :   0.4956   Lambda : -0.433D-02
Largest |displ|/coords:  0.1599 (  13)  0.1457 (  17)  0.1371 (   4)
................................................................................
.............................. CYCLE   48 ......................................
................................................................................
   1    -41.1134340 -0.411134E+02  0.511E-01    8.87       0.0  T
   2    -41.1139184 -0.484347E-03  0.375E-01    8.86       1.0  T
   3    -41.1141408 -0.222449E-03  0.132E-01    8.85       1.0  T
   4    -41.1141754 -0.345943E-04  0.238E-02    8.85       1.0  T
   5    -41.1141761 -0.707529E-06  0.107E-02    8.85       2.1  T
   6    -41.1141762 -0.590529E-07  0.493E-03    8.85       4.7  T
   7    -41.1141762 -0.240052E-07  0.128E-03    8.85      17.9  T
speedup  1.14
cpu  time for SCC    0.00 s
wall time for SCC    0.00 s
speedup  1.02
cpu  time for grad    0.01 s
wall time for grad    0.01 s
 E :    -40.89989022  G :  0.053086    pred/act E change: -0.873D-03  0.599D-04
Maxdispl :   0.3192   ||displ|| :   0.5108   Lambda : -0.123D-01
Largest |displ|/coords:  0.3192 (   7)  0.1471 (   8)  0.1431 (  18)
................................................................................
.............................. CYCLE   49 ......................................
................................................................................
   1    -41.0804162 -0.410804E+02  0.576E-01    7.90       0.0  T
   2    -41.0810986 -0.682416E-03  0.414E-01    7.90       1.0  T
   3    -41.0813870 -0.288478E-03  0.150E-01    7.91       1.0  T
   4    -41.0814279 -0.408736E-04  0.324E-02    7.91       1.0  T
   5    -41.0814290 -0.112077E-05  0.134E-02    7.91       1.7  T
   6    -41.0814293 -0.293727E-06  0.602E-03    7.91       3.8  T
   7    -41.0814294 -0.451971E-07  0.236E-03    7.91       9.7  T
   8    -41.0814294 -0.100848E-07  0.673E-04    7.91      34.1  T
speedup  0.96
cpu  time for SCC    0.00 s
wall time for SCC    0.01 s
speedup  1.05
cpu  time for grad    0.01 s
wall time for grad    0.01 s
 E :    -40.89796931  G :  0.056660    pred/act E change: -0.269D-02  0.192D-02
Maxdispl :   0.3165   ||displ|| :   0.4793   Lambda : -0.142D-01
Largest |displ|/coords:  0.3165 (   7)  0.1023 (   9)  0.1002 (  11)
................................................................................
.............................. CYCLE   50 ......................................
................................................................................
   1    -41.1193571 -0.411194E+02  0.503E-01    9.04       0.0  T
   2    -41.1198701 -0.513057E-03  0.361E-01    9.02       1.0  T
   3    -41.1201169 -0.246819E-03  0.128E-01    8.97       1.0  T
   4    -41.1201452 -0.282121E-04  0.282E-02    8.98       1.0  T
   5    -41.1201459 -0.789862E-06  0.116E-02    8.98       2.0  T
   6    -41.1201460 -0.103423E-06  0.537E-03    8.99       4.3  T
   7    -41.1201461 -0.408395E-07  0.182E-03    8.99      12.6  T
speedup  0.93
cpu  time for SCC    0.00 s
wall time for SCC    0.00 s
speedup  0.94
cpu  time for grad    0.01 s
wall time for grad    0.01 s
 E :    -40.90179683  G :  0.047840    pred/act E change: -0.777D-02 -0.383D-02
Maxdispl :   0.2517   ||displ|| :   0.4108   Lambda : -0.418D-02
Largest |displ|/coords:  0.2517 (  11)  0.1756 (   7)  0.1460 (  10)
................................................................................
.............................. CYCLE   51 ......................................
................................................................................
   1    -41.1012940 -0.411013E+02  0.279E-01    8.61       0.0  T
   2    -41.1014187 -0.124673E-03  0.200E-01    8.64       1.0  T
   3    -41.1014730 -0.542956E-04  0.723E-02    8.70       1.0  T
   4    -41.1014795 -0.648005E-05  0.176E-02    8.70       1.3  T
   5    -41.1014802 -0.740520E-06  0.590E-03    8.69       3.9  T
   6    -41.1014802 -0.266885E-07  0.289E-03    8.69       7.9  T
speedup  1.05
cpu  time for SCC    0.00 s
wall time for SCC    0.00 s
speedup  0.99
cpu  time for grad    0.01 s
wall time for grad    0.01 s
 E :    -40.90208338  G :  0.034639    pred/act E change: -0.872D-02 -0.287D-03
Maxdispl :   0.9236   ||displ|| :   1.5281   Lambda : -0.126D-01
Largest |displ|/coords:  0.9236 (  11)  0.7942 (   7)  0.4694 (  17)
................................................................................
.............................. CYCLE   52 ......................................
................................................................................
   1    -41.0142528 -0.410143E+02  0.135E+00    6.63       0.0  T
   2    -41.0148925 -0.639697E-03  0.994E-01    6.62       1.0  T
   3    -41.0153716 -0.479141E-03  0.205E-01    6.57       1.0  T
   4    -41.0154361 -0.644638E-04  0.902E-02    6.55       1.0  T
   5    -41.0154443 -0.820249E-05  0.236E-02    6.54       1.0  T
   6    -41.0154451 -0.811098E-06  0.143E-02    6.55       1.6  T
   7    -41.0154454 -0.267015E-06  0.393E-03    6.55       5.8  T
   8    -41.0154454 -0.597278E-07  0.198E-03    6.55      11.6  T
speedup  1.00
cpu  time for SCC    0.00 s
wall time for SCC    0.01 s
speedup  1.07
cpu  time for grad    0.01 s
wall time for grad    0.01 s
 E :    -40.86332321  G :  0.174634    pred/act E change: -0.244D-02  0.388D-01
Maxdispl :   0.4790   ||displ|| :   0.8203   Lambda : -0.962D-01
Largest |displ|/coords:  0.4790 (  11)  0.2945 (   5)  0.2585 (  10)

generating ANC from model Hessian ...
 Shifting diagonal of input Hessian by   5.035350652423101E-003
 Lowest  eigenvalues of input Hessian
    0.005000   -0.000000   -0.000000   -0.000000    0.000000    0.000000
    0.000000    0.005715    0.005820    0.006046    0.006812    0.007239
    0.008105    0.008993    0.009289    0.011352    0.013681    0.014356
 Highest eigenvalues
    1.487686    1.538991    1.681551    2.652420    3.311871    3.663187
 
cpu  time for ANC gen    0.01 s
wall time for ANC gen    0.01 s
................................................................................
.............................. CYCLE   53 ......................................
................................................................................
   1    -41.1244239 -0.411244E+02  0.119E+00    8.58       0.0  T
   2    -41.1255110 -0.108710E-02  0.863E-01    8.51       1.0  T
   3    -41.1262495 -0.738561E-03  0.225E-01    8.40       1.0  T
   4    -41.1263381 -0.885873E-04  0.910E-02    8.45       1.0  T
   5    -41.1263472 -0.911235E-05  0.266E-02    8.47       1.0  T
   6    -41.1263477 -0.499718E-06  0.144E-02    8.47       1.6  T
   7    -41.1263480 -0.301859E-06  0.361E-03    8.47       6.4  T
   8    -41.1263481 -0.310030E-07  0.154E-03    8.47      14.9  T
   9    -41.1263481 -0.666957E-08  0.639E-04    8.47      35.9  T
  10    -41.1263481 -0.120326E-08  0.428E-04    8.47      53.6  T
speedup  0.95
cpu  time for SCC    0.01 s
wall time for SCC    0.01 s
speedup  0.99
cpu  time for grad    0.01 s
wall time for grad    0.01 s
 E :    -40.89244302  G :  0.165418    pred/act E change:  0.000D+00 -0.291D-01
Maxdispl :   0.0901   ||displ|| :   0.1996   Lambda : -0.186D-01
Largest |displ|/coords:  0.0901 (  14)  0.0853 (   9)  0.0847 (  48)
................................................................................
.............................. CYCLE   54 ......................................
................................................................................
   1    -41.1127876 -0.411128E+02  0.247E-01    8.39       0.0  T
   2    -41.1128735 -0.858330E-04  0.178E-01    8.41       1.0  T
   3    -41.1129287 -0.552302E-04  0.623E-02    8.45       1.0  T
   4    -41.1129343 -0.562961E-05  0.225E-02    8.45       1.0  T
   5    -41.1129351 -0.757940E-06  0.643E-03    8.44       3.6  T
   6    -41.1129351 -0.386262E-07  0.363E-03    8.44       6.3  T
   7    -41.1129351 -0.101913E-07  0.112E-03    8.44      20.4  T
speedup  1.11
cpu  time for SCC    0.01 s
wall time for SCC    0.00 s
speedup  1.02
cpu  time for grad    0.01 s
wall time for grad    0.01 s
 E :    -40.90333374  G :  0.035616    pred/act E change:  0.000D+00 -0.109D-01
Maxdispl :   0.1904   ||displ|| :   0.2989   Lambda : -0.267D-02
Largest |displ|/coords:  0.1904 (   9)  0.1287 (   3)  0.0988 (   5)
................................................................................
.............................. CYCLE   55 ......................................
................................................................................
   1    -41.1095959 -0.411096E+02  0.220E-01    8.41       0.0  T
   2    -41.1096152 -0.193018E-04  0.164E-01    8.42       1.0  T
   3    -41.1096272 -0.119927E-04  0.337E-02    8.44       1.0  T
   4    -41.1096298 -0.254273E-05  0.101E-02    8.43       2.3  T
   5    -41.1096299 -0.147203E-06  0.376E-03    8.43       6.1  T
   6    -41.1096299 -0.850639E-08  0.197E-03    8.43      11.6  T
speedup  1.03
cpu  time for SCC    0.00 s
wall time for SCC    0.00 s
speedup  1.09
cpu  time for grad    0.01 s
wall time for grad    0.01 s
 E :    -40.90535877  G :  0.013176    pred/act E change: -0.965D-02 -0.203D-02
Maxdispl :   0.2954   ||displ|| :   0.5442   Lambda : -0.240D-02
Largest |displ|/coords:  0.2954 (   3)  0.2428 (   9)  0.2039 (   5)
................................................................................
.............................. CYCLE   56 ......................................
................................................................................
   1    -41.1015974 -0.411016E+02  0.438E-01    8.35       0.0  T
   2    -41.1016382 -0.408525E-04  0.330E-01    8.35       1.0  T
   3    -41.1016822 -0.439304E-04  0.440E-02    8.35       1.0  T
   4    -41.1016864 -0.424804E-05  0.174E-02    8.35       1.3  T
   5    -41.1016866 -0.217961E-06  0.638E-03    8.35       3.6  T
   6    -41.1016867 -0.358287E-07  0.264E-03    8.35       8.7  T
   7    -41.1016867 -0.152475E-07  0.599E-04    8.35      38.3  T
speedup  0.93
cpu  time for SCC    0.00 s
wall time for SCC    0.00 s
speedup  0.93
cpu  time for grad    0.01 s
wall time for grad    0.01 s
 E :    -40.90631618  G :  0.040629    pred/act E change: -0.146D-02 -0.957D-03
Maxdispl :   0.1413   ||displ|| :   0.2675   Lambda : -0.176D-02
Largest |displ|/coords:  0.1413 (   3)  0.1265 (   1)  0.1140 (   2)
................................................................................
.............................. CYCLE   57 ......................................
................................................................................
   1    -41.1067436 -0.411067E+02  0.166E-01    8.39       0.0  T
   2    -41.1067545 -0.109223E-04  0.126E-01    8.39       1.0  T
   3    -41.1067648 -0.102967E-04  0.231E-02    8.39       1.0  T
   4    -41.1067660 -0.127153E-05  0.800E-03    8.39       2.9  T
   5    -41.1067661 -0.694021E-07  0.318E-03    8.39       7.2  T
   6    -41.1067661 -0.443548E-08  0.139E-03    8.39      16.5  T
speedup  1.08
cpu  time for SCC    0.00 s
wall time for SCC    0.00 s
speedup  0.97
cpu  time for grad    0.01 s
wall time for grad    0.01 s
 E :    -40.90726440  G :  0.021600    pred/act E change: -0.156D-02 -0.948D-03
Maxdispl :   0.1579   ||displ|| :   0.3065   Lambda : -0.103D-02
Largest |displ|/coords:  0.1579 (   1)  0.1345 (   5)  0.1063 (   2)
................................................................................
.............................. CYCLE   58 ......................................
................................................................................
   1    -41.1082601 -0.411083E+02  0.159E-01    8.39       0.0  T
   2    -41.1082687 -0.855883E-05  0.119E-01    8.39       1.0  T
   3    -41.1082738 -0.510582E-05  0.219E-02    8.38       1.0  T
   4    -41.1082750 -0.116622E-05  0.594E-03    8.38       3.9  T
   5    -41.1082750 -0.543195E-07  0.239E-03    8.38       9.6  T
speedup  0.97
cpu  time for SCC    0.00 s
wall time for SCC    0.00 s
speedup  1.06
cpu  time for grad    0.01 s
wall time for grad    0.01 s
 E :    -40.90808580  G :  0.017362    pred/act E change: -0.942D-03 -0.821D-03
Maxdispl :   0.2532   ||displ|| :   0.5116   Lambda : -0.189D-02
Largest |displ|/coords:  0.2532 (   1)  0.1829 (   5)  0.1768 (   4)
................................................................................
.............................. CYCLE   59 ......................................
................................................................................
   1    -41.1092779 -0.411093E+02  0.375E-01    8.34       0.0  T
   2    -41.1093143 -0.363859E-04  0.283E-01    8.33       1.0  T
   3    -41.1093420 -0.277340E-04  0.404E-02    8.31       1.0  T
   4    -41.1093473 -0.529753E-05  0.129E-02    8.31       1.8  T
   5    -41.1093475 -0.179228E-06  0.539E-03    8.31       4.3  T
   6    -41.1093475 -0.203978E-07  0.284E-03    8.31       8.1  T
   7    -41.1093475 -0.113856E-07  0.594E-04    8.31      38.6  T
speedup  0.93
cpu  time for SCC    0.00 s
wall time for SCC    0.00 s
speedup  1.04
cpu  time for grad    0.01 s
wall time for grad    0.01 s
 E :    -40.90919173  G :  0.020612    pred/act E change: -0.565D-03 -0.111D-02
Maxdispl :   0.1018   ||displ|| :   0.1582   Lambda : -0.772D-03
Largest |displ|/coords:  0.1018 (   4)  0.0582 (  12)  0.0512 (   1)
................................................................................
.............................. CYCLE   60 ......................................
................................................................................
   1    -41.1114059 -0.411114E+02  0.142E-01    8.40       0.0  T
   2    -41.1114110 -0.507607E-05  0.106E-01    8.40       1.0  T
   3    -41.1114148 -0.382280E-05  0.156E-02    8.38       1.5  T
   4    -41.1114153 -0.547959E-06  0.557E-03    8.38       4.1  T
   5    -41.1114154 -0.432742E-07  0.167E-03    8.38      13.8  T
speedup  0.94
cpu  time for SCC    0.00 s
wall time for SCC    0.00 s
speedup  0.94
cpu  time for grad    0.01 s
wall time for grad    0.01 s
 E :    -40.90951034  G :  0.017941    pred/act E change: -0.119D-02 -0.319D-03
Maxdispl :   0.0908   ||displ|| :   0.2366   Lambda : -0.981D-03
Largest |displ|/coords:  0.0908 (   2)  0.0786 (   4)  0.0785 (   8)
................................................................................
.............................. CYCLE   61 ......................................
................................................................................
   1    -41.1181291 -0.411181E+02  0.224E-01    8.48       0.0  T
   2    -41.1181427 -0.136042E-04  0.170E-01    8.47       1.0  T
   3    -41.1181526 -0.984626E-05  0.244E-02    8.45       1.0  T
   4    -41.1181546 -0.204820E-05  0.795E-03    8.45       2.9  T
   5    -41.1181547 -0.102354E-06  0.293E-03    8.46       7.8  T
   6    -41.1181547 -0.224274E-08  0.154E-03    8.46      14.9  T
speedup  0.79
cpu  time for SCC    0.00 s
wall time for SCC    0.00 s
speedup  0.99
cpu  time for grad    0.01 s
wall time for grad    0.01 s
 E :    -40.90952726  G :  0.020539    pred/act E change: -0.396D-03 -0.169D-04
Maxdispl :   0.1388   ||displ|| :   0.2218   Lambda : -0.106D-02
Largest |displ|/coords:  0.1388 (   3)  0.0996 (   4)  0.0897 (   2)
................................................................................
.............................. CYCLE   62 ......................................
................................................................................
   1    -41.1119803 -0.411120E+02  0.167E-01    8.44       0.0  T
   2    -41.1119906 -0.103138E-04  0.127E-01    8.44       1.0  T
   3    -41.1120016 -0.109594E-04  0.205E-02    8.44       1.1  T
   4    -41.1120025 -0.950808E-06  0.967E-03    8.43       2.4  T
   5    -41.1120026 -0.885028E-07  0.297E-03    8.43       7.7  T
   6    -41.1120026 -0.118743E-07  0.155E-03    8.43      14.8  T
speedup  0.83
cpu  time for SCC    0.00 s
wall time for SCC    0.00 s
speedup  1.00
cpu  time for grad    0.01 s
wall time for grad    0.01 s
 E :    -40.90984397  G :  0.013097    pred/act E change: -0.518D-03 -0.317D-03
Maxdispl :   0.1361   ||displ|| :   0.2477   Lambda : -0.813D-03
Largest |displ|/coords:  0.1361 (   5)  0.0942 (   1)  0.0939 (   2)
................................................................................
.............................. CYCLE   63 ......................................
................................................................................
   1    -41.1093386 -0.411093E+02  0.223E-01    8.38       0.0  T
   2    -41.1093593 -0.206966E-04  0.169E-01    8.40       1.0  T
   3    -41.1093734 -0.140875E-04  0.313E-02    8.45       1.0  T
   4    -41.1093763 -0.295803E-05  0.948E-03    8.44       2.4  T
   5    -41.1093765 -0.163423E-06  0.330E-03    8.43       7.0  T
   6    -41.1093765 -0.703434E-08  0.201E-03    8.43      11.4  T
   7    -41.1093765 -0.548677E-08  0.448E-04    8.44      51.3  T
speedup  0.68
cpu  time for SCC    0.00 s
wall time for SCC    0.00 s
speedup  0.91
cpu  time for grad    0.01 s
wall time for grad    0.01 s
 E :    -40.90992731  G :  0.017856    pred/act E change: -0.559D-03 -0.833D-04
Maxdispl :   0.1258   ||displ|| :   0.1962   Lambda : -0.808D-03
Largest |displ|/coords:  0.1258 (   8)  0.0792 (   5)  0.0738 (   1)
................................................................................
.............................. CYCLE   64 ......................................
................................................................................
   1    -41.1125330 -0.411125E+02  0.268E-01    8.48       0.0  T
   2    -41.1125491 -0.161529E-04  0.204E-01    8.46       1.0  T
   3    -41.1125628 -0.137367E-04  0.238E-02    8.42       1.0  T
   4    -41.1125649 -0.209032E-05  0.554E-03    8.44       4.1  T
   5    -41.1125650 -0.254683E-07  0.286E-03    8.45       8.0  T
   6    -41.1125650 -0.236965E-08  0.130E-03    8.45      17.7  T
speedup  1.08
cpu  time for SCC    0.00 s
wall time for SCC    0.00 s
speedup  0.99
cpu  time for grad    0.01 s
wall time for grad    0.01 s
 E :    -40.91002889  G :  0.012854    pred/act E change: -0.431D-03 -0.102D-03
Maxdispl :   0.1332   ||displ|| :   0.2101   Lambda : -0.569D-03
Largest |displ|/coords:  0.1332 (   2)  0.0757 (   4)  0.0736 (   5)
................................................................................
.............................. CYCLE   65 ......................................
................................................................................
   1    -41.1134123 -0.411134E+02  0.173E-01    8.46       0.0  T
[...]
speedup  1.20
cpu  time for SCC    0.00 s
wall time for SCC    0.00 s
speedup  0.96
cpu  time for grad    0.01 s
wall time for grad    0.01 s
 E :    -40.92314993  G :  0.000228    pred/act E change: -0.210D-06 -0.247D-06
Maxdispl :   0.0053   ||displ|| :   0.0097   Lambda : -0.432D-06
Largest |displ|/coords:  0.0053 (   2)  0.0043 (  25)  0.0034 (  11)
................................................................................
.............................. CYCLE  124 ......................................
................................................................................
   1    -41.1197230 -0.411197E+02  0.851E-03    9.43       0.0  T
   2    -41.1197230 -0.100452E-07  0.638E-03    9.43       3.6  T
   3    -41.1197230 -0.797982E-08  0.903E-04    9.43      25.4  T
   4    -41.1197230 -0.124536E-08  0.328E-04    9.43      69.9  T
speedup  0.77
cpu  time for SCC    0.00 s
wall time for SCC    0.00 s
speedup  0.96
cpu  time for grad    0.01 s
wall time for grad    0.01 s
 E :    -40.92315026  G :  0.000245    pred/act E change: -0.160D-06 -0.330D-06
Maxdispl :   0.0058   ||displ|| :   0.0109   Lambda : -0.504D-06
Largest |displ|/coords:  0.0058 (  25)  0.0041 (   1)  0.0037 (  11)
................................................................................
.............................. CYCLE  125 ......................................
................................................................................
   1    -41.1197441 -0.411197E+02  0.108E-02    9.43       0.0  T
   2    -41.1197442 -0.188172E-07  0.809E-03    9.43       2.8  T
   3    -41.1197442 -0.133996E-07  0.128E-03    9.43      17.9  T
   4    -41.1197442 -0.250678E-08  0.474E-04    9.43      48.4  T
   5    -41.1197442 -0.116572E-09  0.704E-05    9.43     325.8  T
speedup  0.97
cpu  time for SCC    0.00 s
wall time for SCC    0.00 s
speedup  1.02
cpu  time for grad    0.01 s
wall time for grad    0.01 s
 E :    -40.92315065  G :  0.000325    pred/act E change: -0.216D-06 -0.391D-06
Maxdispl :   0.0093   ||displ|| :   0.0165   Lambda : -0.736D-06
Largest |displ|/coords:  0.0093 (  25)  0.0072 (   1)  0.0050 (  11)
................................................................................
.............................. CYCLE  126 ......................................
................................................................................
   1    -41.1197326 -0.411197E+02  0.166E-02    9.42       0.0  T
   2    -41.1197326 -0.476676E-07  0.124E-02    9.42       1.8  T
   3    -41.1197326 -0.310693E-07  0.210E-03    9.42      10.9  T
   4    -41.1197326 -0.670322E-08  0.773E-04    9.42      29.7  T
   5    -41.1197326 -0.283919E-09  0.108E-04    9.42     212.8  T
speedup  0.97
cpu  time for SCC    0.00 s
wall time for SCC    0.00 s
speedup  1.02
cpu  time for grad    0.01 s
wall time for grad    0.01 s
 E :    -40.92315118  G :  0.000435    pred/act E change: -0.252D-06 -0.526D-06
Maxdispl :   0.0085   ||displ|| :   0.0146   Lambda : -0.669D-06
Largest |displ|/coords:  0.0085 (  25)  0.0050 (   1)  0.0045 (  16)
................................................................................
.............................. CYCLE  127 ......................................
................................................................................
   1    -41.1197006 -0.411197E+02  0.148E-02    9.42       0.0  T
   2    -41.1197007 -0.422389E-07  0.110E-02    9.42       2.1  T
   3    -41.1197007 -0.225168E-07  0.207E-03    9.42      11.1  T
   4    -41.1197007 -0.616014E-08  0.754E-04    9.42      30.4  T
   5    -41.1197007 -0.243496E-09  0.884E-05    9.42     259.7  T
speedup  0.94
cpu  time for SCC    0.00 s
wall time for SCC    0.00 s
speedup  1.01
cpu  time for grad    0.01 s
wall time for grad    0.01 s
 E :    -40.92315169  G :  0.000496    pred/act E change: -0.368D-06 -0.518D-06
Maxdispl :   0.0113   ||displ|| :   0.0200   Lambda : -0.958D-06
Largest |displ|/coords:  0.0113 (  25)  0.0072 (  16)  0.0062 (  12)
................................................................................
.............................. CYCLE  128 ......................................
................................................................................
   1    -41.1196269 -0.411196E+02  0.202E-02    9.42       0.0  T
   2    -41.1196270 -0.802573E-07  0.150E-02    9.42       1.5  T
   3    -41.1196270 -0.364431E-07  0.292E-03    9.42       7.8  T
   4    -41.1196270 -0.120882E-07  0.104E-03    9.42      22.2  T
   5    -41.1196270 -0.426432E-09  0.112E-04    9.42     205.5  T
   6    -41.1196270 -0.132871E-10  0.734E-05    9.42     312.7  T
speedup  1.08
cpu  time for SCC    0.00 s
wall time for SCC    0.00 s
speedup  0.97
cpu  time for grad    0.01 s
wall time for grad    0.01 s
 E :    -40.92315238  G :  0.000506    pred/act E change: -0.335D-06 -0.687D-06
Maxdispl :   0.0091   ||displ|| :   0.0172   Lambda : -0.811D-06
Largest |displ|/coords:  0.0091 (  25)  0.0066 (  16)  0.0048 (  12)
................................................................................
.............................. CYCLE  129 ......................................
................................................................................
   1    -41.1195739 -0.411196E+02  0.180E-02    9.42       0.0  T
   2    -41.1195740 -0.599607E-07  0.133E-02    9.42       1.7  T
   3    -41.1195740 -0.238370E-07  0.255E-03    9.42       9.0  T
   4    -41.1195740 -0.952543E-08  0.858E-04    9.42      26.8  T
   5    -41.1195740 -0.286207E-09  0.935E-05    9.42     245.2  T
speedup  0.94
cpu  time for SCC    0.00 s
wall time for SCC    0.00 s
speedup  0.90
cpu  time for grad    0.01 s
wall time for grad    0.01 s
 E :    -40.92315298  G :  0.000473    pred/act E change: -0.479D-06 -0.599D-06
Maxdispl :   0.0090   ||displ|| :   0.0167   Lambda : -0.784D-06
Largest |displ|/coords:  0.0090 (  25)  0.0065 (  16)  0.0043 (   8)
................................................................................
.............................. CYCLE  130 ......................................
................................................................................
   1    -41.1195407 -0.411195E+02  0.180E-02    9.42       0.0  T
   2    -41.1195408 -0.619333E-07  0.134E-02    9.42       1.7  T
   3    -41.1195408 -0.226016E-07  0.259E-03    9.42       8.9  T
   4    -41.1195408 -0.101710E-07  0.803E-04    9.42      28.6  T
   5    -41.1195408 -0.268983E-09  0.964E-05    9.42     238.0  T
speedup  0.94
cpu  time for SCC    0.00 s
wall time for SCC    0.00 s
speedup  1.01
cpu  time for grad    0.01 s
wall time for grad    0.01 s
 E :    -40.92315354  G :  0.000394    pred/act E change: -0.406D-06 -0.559D-06
Maxdispl :   0.0077   ||displ|| :   0.0135   Lambda : -0.545D-06
Largest |displ|/coords:  0.0077 (  25)  0.0048 (  16)  0.0041 (   1)
................................................................................
.............................. CYCLE  131 ......................................
................................................................................
   1    -41.1195517 -0.411196E+02  0.142E-02    9.42       0.0  T
   2    -41.1195518 -0.427355E-07  0.105E-02    9.42       2.2  T
   3    -41.1195518 -0.145333E-07  0.213E-03    9.42      10.8  T
   4    -41.1195518 -0.707388E-08  0.601E-04    9.42      38.2  T
   5    -41.1195518 -0.173358E-09  0.772E-05    9.42     297.3  T
speedup  0.97
cpu  time for SCC    0.00 s
wall time for SCC    0.00 s
speedup  0.91
cpu  time for grad    0.01 s
wall time for grad    0.01 s
 E :    -40.92315393  G :  0.000308    pred/act E change: -0.392D-06 -0.387D-06
Maxdispl :   0.0056   ||displ|| :   0.0097   Lambda : -0.349D-06
Largest |displ|/coords:  0.0056 (  25)  0.0028 (  16)  0.0026 (   1)
................................................................................
.............................. CYCLE  132 ......................................
................................................................................
   1    -41.1195920 -0.411196E+02  0.902E-03    9.42       0.0  T
   2    -41.1195920 -0.237026E-07  0.669E-03    9.42       3.4  T
   3    -41.1195920 -0.770295E-08  0.150E-03    9.42      15.3  T
   4    -41.1195920 -0.368627E-08  0.380E-04    9.42      60.4  T
   5    -41.1195920 -0.128175E-09  0.586E-05    9.42     391.2  T
speedup  0.94
cpu  time for SCC    0.00 s
wall time for SCC    0.00 s
speedup  1.01
cpu  time for grad    0.01 s
wall time for grad    0.01 s
 E :    -40.92315416  G :  0.000216    pred/act E change: -0.273D-06 -0.237D-06
Maxdispl :   0.0037   ||displ|| :   0.0064   Lambda : -0.151D-06
Largest |displ|/coords:  0.0037 (  25)  0.0019 (   2)  0.0018 (   4)
................................................................................
.............................. CYCLE  133 ......................................
................................................................................
   1    -41.1196197 -0.411196E+02  0.592E-03    9.42       0.0  T
   2    -41.1196197 -0.978825E-08  0.443E-03    9.42       5.2  T
   3    -41.1196197 -0.375661E-08  0.887E-04    9.42      25.9  T
   4    -41.1196197 -0.162287E-08  0.255E-04    9.42      90.1  T
speedup  0.77
cpu  time for SCC    0.00 s
wall time for SCC    0.00 s
speedup  0.98
cpu  time for grad    0.01 s
wall time for grad    0.01 s
 E :    -40.92315427  G :  0.000151    pred/act E change: -0.174D-06 -0.103D-06
Maxdispl :   0.0009   ||displ|| :   0.0022   Lambda : -0.614D-07
Largest |displ|/coords:  0.0009 (   3)  0.0009 (   4)  0.0008 (   6)
................................................................................
.............................. CYCLE  134 ......................................
................................................................................
   1    -41.1196475 -0.411196E+02  0.210E-03    9.42       0.0  T
   2    -41.1196475 -0.147513E-08  0.156E-03    9.42      14.7  T
   3    -41.1196475 -0.812165E-09  0.282E-04    9.42      81.5  T
   4    -41.1196475 -0.217447E-09  0.650E-05    9.42     352.7  T
speedup  1.20
cpu  time for SCC    0.00 s
wall time for SCC    0.00 s
speedup  0.98
cpu  time for grad    0.01 s
wall time for grad    0.01 s
 E :    -40.92315430  G :  0.000122    pred/act E change: -0.753D-07 -0.375D-07
Maxdispl :   0.0026   ||displ|| :   0.0047   Lambda : -0.520D-07
Largest |displ|/coords:  0.0026 (  25)  0.0016 (  11)  0.0016 (  12)

   *** GEOMETRY OPTIMIZATION CONVERGED AFTER 134 ITERATIONS ***

------------------------------------------------------------------------
 total energy gain (kcal):     -0.0266
------------------------------------------------------------------------
================
 final structure:
================
$coord
        0.66971677804050       -2.34377658774916        2.08578246499858      S 
        1.16742523642209       -2.50503560816935       -0.63119879085860      O 
        2.28090537362549       -0.40719377005693        3.23466411157678      O 
       -1.97598743690406       -2.02492379729746        2.61918771480585      O 
        1.54906026844260       -4.91873930987032        3.29077450062557      O 
        3.32889096751748       -4.69742872124695        3.43301322183390      H 
        1.26635921320150        3.64504159112467        1.08280737093776      O 
        1.83841269426772        2.11499479973984        2.19065479285825      H 
        1.93208834281267        3.17402871218828       -0.68191802813322      H 
        2.55622803433870        1.64125099047540       -3.08782264180025      O 
        1.19351584134231        1.70502467075277       -4.29240161185674      H 
        2.44819242721922       -0.04974364369405       -2.32886770874371      H 
       -2.55495625214361       -0.51464086188565       -3.34839444429542      O 
       -1.29406408216807       -1.48716218383642       -2.39158537705905      H 
       -3.90296973587712       -1.66676431167532       -3.71515523601895      H 
       -3.25831239037357        2.38194027775138        0.74384985420273      O 
       -3.15030040048380        0.84972959420164        1.79278148249118      H 
       -0.73675892848923        3.39512430613332        0.98504182856294      H 
       -3.35744591295548        1.70827387196591       -0.98121352309393      H 
$end
 
 Bond Distances (Angstroems)
 ---------------------------
S1-O2=1.4642         S1-O3=1.4652         S1-O4=1.4381         S1-O5=1.5748         O2-S1=1.4642         O3-S1=1.4652         
O4-S1=1.4381         O5-S1=1.5748         O5-H6=0.9521         H6-O5=0.9521         O7-H8=1.0445         O7-H9=1.0287         
O7-H18=1.0695        H8-O7=1.0445         H9-O7=1.0287         O10-H11=0.9631       O10-H12=0.9825       H11-O10=0.9631       
H12-O10=0.9825       O13-H14=0.9831       O13-H15=0.9582       H14-O13=0.9831       H15-O13=0.9582       O16-H17=0.9843       
O16-H19=0.9814       H17-O16=0.9843       H18-O7=1.0695        H19-O16=0.9814       
 O  H  Rav=0.9947 sigma=0.0373  Rmin=0.9521  Rmax=1.0695    10
 S  O  Rav=1.4856 sigma=0.0526  Rmin=1.4381  Rmax=1.5748     4
 
 selected bond angles (degree)
 --------------------
O3-S1-O2=110.09                O4-S1-O2=112.00                O4-S1-O3=113.77                O5-S1-O2=107.10                
O5-S1-O3=105.38                O5-S1-O4=108.04                H6-O5-S1=102.59                H9-O7-H8=102.85                
H18-O7-H8=102.62               H18-O7-H9=105.40               H12-O10-H11=105.01             
 
 selected dihedral angles (degree)
 ---------------------------------
H6-O5-S1-O2= 80.30            H6-O5-S1-O3=323.08            H6-O5-S1-O4=201.13            
 
 CMA Distance (Angstroems)
 ---------------------------
R(CMA):  2.8726

========================================================================
 FINAL SINGLEPOINT CALCULATION ON OPTIMIZED GEOMETRY
========================================================================

 Ncao       : 52
 Nao        : 51
 Nshell     : 29
 Nel        : 64
 T(el)      :   300.0
 intcut     :    25.0
 scfconv/Eh :  0.100E-05
   qconv/e  :  0.100E-03
 intneglect :  0.100E-07
 broydamp   :      0.250
 iter      E             dE          RMSdq      gap      omega  full diag
   1    -41.1196475 -0.411196E+02  0.296E-05    9.42       0.0  T
   2    -41.1196475 -0.532907E-12  0.178E-05    9.42    1289.8  T
   3    -41.1196475 -0.227374E-12  0.301E-06    9.42    7618.8  T
speedup  1.05
cpu  time for SCC    0.00 s
wall time for SCC    0.00 s

   *** convergence criteria satisfied after 3 iterations ***

          eigenvalues
 #    :          20         21         22         23         24         25         26         27
 occ. :        2.000      2.000      2.000      2.000      2.000      2.000      2.000      2.000
 eps  :       -14.564    -14.411    -14.135    -13.806    -12.870    -12.805    -12.781    -12.696
 #    :          28         29         30         31         32         33         34         35
 occ. :        2.000      2.000      2.000      2.000      2.000      0.000      0.000      0.000
 eps  :       -12.693    -12.539    -12.389    -12.339    -12.145     -2.724     -0.805     -0.431
 #    :          36         37         38         39         40         41         42         43
 occ. :        0.000      0.000      0.000      0.000      0.000      0.000      0.000      0.000
 eps  :         0.409      0.787      2.067      2.293      3.776      4.805      6.147      6.570


   #   Z            q   n(s)   n(p)   n(d)      C6AA      α(0)
   1  16 S      1.672  1.580  1.792  0.956    89.400    15.914
   2   8 O     -0.758  1.772  4.986  0.000    30.347     7.386
   3   8 O     -0.743  1.774  4.969  0.000    29.879     7.330
   4   8 O     -0.704  1.761  4.943  0.000    28.815     7.197
   5   8 O     -0.575  1.748  4.827  0.000    24.565     6.691
   6   1 H      0.351  0.649  0.000  0.000     0.578     1.190
   7   8 O     -0.509  1.731  4.778  0.000    23.027     6.481
   8   1 H      0.384  0.616  0.000  0.000     0.513     1.124
   9   1 H      0.381  0.619  0.000  0.000     0.522     1.136
  10   8 O     -0.596  1.747  4.849  0.000    25.086     6.760
  11   1 H      0.316  0.684  0.000  0.000     0.674     1.290
  12   1 H      0.336  0.664  0.000  0.000     0.623     1.240
  13   8 O     -0.621  1.743  4.878  0.000    25.689     6.841
  14   1 H      0.326  0.674  0.000  0.000     0.648     1.265
  15   1 H      0.290  0.710  0.000  0.000     0.752     1.362
  16   8 O     -0.604  1.755  4.848  0.000    25.246     6.783
  17   1 H      0.336  0.664  0.000  0.000     0.623     1.240
  18   1 H      0.384  0.616  0.000  0.000     0.512     1.122
  19   1 H      0.334  0.666  0.000  0.000     0.628     1.245

 Mol. C6AA /au·bohr⁶  :       3380.691547
 Mol. C8AA /au·bohr⁸  :      76585.762005
 Mol. α(0) /au        :         83.593524

 
 Wiberg/Mayer (AO) data. WBOs > 0.1 written file <wbo>
 largest (>0.05) Wiberg bond orders for each atom
           total WBO             WBO to atom ...
     1  S   4.869    O    4 1.385    O    2 1.267    O    3 1.258    O    5 0.915
     2  O   1.716    S    1 1.267    O    4 0.113    O    3 0.105    O    5 0.072    H   14 0.060    H   12 0.053
     3  O   1.748    S    1 1.258    H    8 0.152    O    4 0.111    O    2 0.105    O    5 0.069
     4  O   1.761    S    1 1.385    O    2 0.113    O    3 0.111    O    5 0.065    H   17 0.056
     5  O   1.992    S    1 0.915    H    6 0.860    O    2 0.072    O    3 0.069    O    4 0.065
     6  H   0.877    O    5 0.860
     7  O   2.240    H    9 0.716    H    8 0.691    H   18 0.645    O   16 0.070    O   10 0.052
     8  H   0.853    O    7 0.691    O    3 0.152
     9  H   0.855    O    7 0.716    O   10 0.136
    10  O   1.945    H   11 0.892    H   12 0.830    H    9 0.136    O    7 0.052
    11  H   0.900    O   10 0.892
    12  H   0.887    O   10 0.830    O    2 0.053
    13  O   1.859    H   15 0.912    H   14 0.828    H   19 0.054
    14  H   0.894    O   13 0.828    O    2 0.060
    15  H   0.916    O   13 0.912
    16  O   1.992    H   19 0.832    H   17 0.826    H   18 0.204    O    7 0.070
    17  H   0.887    O   16 0.826    O    4 0.056
    18  H   0.852    O    7 0.645    O   16 0.204
    19  H   0.889    O   16 0.832    O   13 0.054
 MOs/occ written to file <molden.input>
 
molecular dipole:
                 x           y           z       tot (Debye)
 q only:        0.218       0.672      -0.813
   full:        0.241      -0.405      -0.747       2.245
molecular quadrupole (traceless):
                xx          xy          yy          xz          yz          zz
 q only:        1.413      -2.173      -0.015       5.908       1.100      -1.399
  q+dip:        1.582      -3.116      -1.481       8.208       0.155      -0.101
   full:        1.569      -3.268      -1.274       8.702      -0.275      -0.295

SCC energy    :     -41.1196475
rep           :       0.1964001
ES            :       0.1989544
AES           :      -0.0547447
AXC           :      -0.0103914
disp          :      -0.0142809
XB            :       0.0000000
fix           :       0.0000000
total E       :     -40.9231543
atomizationE  :       3.7173415     2332.67
(atE without considering molecular charge,
 total energy contains solvation terms)
H-L gap (eV)  :          9.4214
optimized geometry written to: xtbopt.xyz


------------------------------------------------------------------------
 * finished run on 2019/09/03 at 12:02:08.775     
------------------------------------------------------------------------
 total:
 * wall-time:     0 d,  0 h,  0 min,  2.360 sec
 *  cpu-time:     0 d,  0 h,  0 min,  2.000 sec
 * ratio c/w:     0.847 speedup
 SCF:
 * wall-time:     0 d,  0 h,  0 min,  0.092 sec
 *  cpu-time:     0 d,  0 h,  0 min,  0.089 sec
 * ratio c/w:     0.963 speedup
 ANC optimizer:
 * wall-time:     0 d,  0 h,  0 min,  2.245 sec
 *  cpu-time:     0 d,  0 h,  0 min,  1.889 sec
 * ratio c/w:     0.841 speedup

