      -----------------------------------------------------------      
     |                   =====================                   |     
     |                           x T B                           |     
     |                   =====================                   |     
     |                         S. Grimme                         |     
     |          Mulliken Center for Theoretical Chemistry        |     
     |                    University of Bonn                     |     
     |                 Version 6.0.1 (SAW181210)                 |     
      -----------------------------------------------------------      

   This program is distributed in the hope that it will be useful,
   but WITHOUT ANY WARRANTY; without even the implied warranty of
   MERCHANTABILITY or FITNESS FOR A PARTICULAR PURPOSE.
   
   FOR NON-COMMERCIAL, ACADEMIA USE ONLY.
   
   Cite this work as:
   S. Grimme, C. Bannwarth, P. Shushkov, J. Comput. Theory Chem., 2017,
   13, 1989-2009.
   C. Bannwarth, S. Ehlert and S. Grimme., ChemRxiv, 2018, preprint.
   http://doi.org/10.26434/chemrxiv.7246238.v1
   
   for sTDA-xTB:
   S. Grimme and C. Bannwarth, J. Chem. Phys., 2016, 145, 054103.
   
   in the mass-spec context:
   V. Asgeirsson, C. Bauer and S. Grimme, Chem. Sci., 2017, 8, 4879.
   
   if GBSA is used:
   P. Shushkov, F. März and S. Grimme, unpublished.
   
   for ANC optimizer:
   S. Grimme, unpublished.
   Rational Function algorithm used in ANCopt:
   F. Eckert, P. Pulay, H.-J. Werner, J. Comput. Chem., 1997, 18, 1473.
   
   with help from (in alphabetical order)
   C. Bannwarth, F. Bohle, G. Brandenburg, E. Caldeweyher, M. Checinski,
   S. Dohm, S. Ehlert, S. Ehrlich, F. März, H. Neugebauer, J. Pisarek,
   P. Pracht, P. Shushkov, and S. Spicher.
   
 * started run on 2019/09/03 at 12:39:14.523     
========================================================================
 # omp threads = 1
========================================================================
number of atoms            : 19
number of electrons        : 64
charge                     : 0
spin                       : .0
first test random number   : .0911

########################################################################
# WARNING! Please study the warnings concerning your input carefully
#  - XTBPATH is not set, using XTBHOME instead
#  - the use of '-opt' is discouraged, please use '--opt' next time
#  - the use of '-chrg' is discouraged, please use '--chrg' next time
#  - the use of '-uhf' is discouraged, please use '--uhf' next time
########################################################################

           ------------------------------------------------- 
          |                 G F N 2 - x T B                 |
          | Geometry, Frequencies, Noncovalent interactions |
          |            JCTC 2018 parametrisation            |
           ------------------------------------------------- 
      method parameters     
 k(s)        :  1.8500
 k(p)        :  2.2300
 k(d)        :  2.2300
 k(f)        :  2.0000
 kEN (H0ij)  : -2.0000
 D4 a1       :  0.5200
 D4 a2       :  5.0000
 D4 s6       :  1.0000
 D4 s8       :  2.7000
 D4 s9       :  5.0000
 alphaj      :  2.0000


            Z     q(EN)     CN     RAES       Cart. coordinates
     1  S   6.0    0.64    4.27    4.18    -4.53467    -2.35787     1.18105
     2  O   6.0   -0.29    1.14    1.80    -2.53432    -3.27242     2.93898
     3  O   6.0   -0.28    1.12    1.80    -5.02284     0.37443     1.65469
     4  O   6.0   -0.29    1.17    1.80    -3.68022    -2.71139    -1.47847
     5  O   6.0   -0.24    2.08    1.84    -6.86892    -3.80205     1.60314
     6  H   1.0    0.15    1.21    1.47    -7.42015    -3.57482     3.31650
     7  O   6.0   -0.27    1.92    1.82    -0.29157     6.68197     0.06606
     8  H   1.0    0.14    0.97    1.43     1.34285     7.47931    -0.02060
     9  H   1.0    0.15    0.97    1.43    -1.24560     7.66830     1.26256
    10  O   6.0   -0.28    2.04    1.83     1.79911    -0.13673     2.53796
    11  H   1.0    0.17    1.00    1.43     0.72067    -1.31352     3.41361
    12  H   1.0    0.15    0.97    1.43     3.34264    -1.04663     2.21513
    13  O   6.0   -0.26    1.92    1.82     9.29475    -2.91152    -3.70249
    14  H   1.0    0.14    0.97    1.43     9.56881    -1.53598    -4.86327
    15  H   1.0    0.14    0.97    1.43     8.39526    -4.17460    -4.65651
    16  O   6.0   -0.21    2.88    2.50    -0.44245     1.24545    -1.65309
    17  H   1.0    0.14    1.05    1.44     0.50538     0.94420    -0.07173
    18  H   1.0    0.15    1.03    1.43    -1.35378    -0.28172    -2.22516
    19  H   1.0    0.14    0.96    1.43    -1.57494     2.72559    -1.51838

  Z AO/shell   Hii/eV     exponent
  1     Wed Apr 25 08:07:45 CEST 2018   EN: 2.200 GM2: 0.406  GM3: 0.0800  RAES: 1.40
     1s    -10.707211    1.230000
  8     Wed Apr 25 08:07:45 CEST 2018   EN: 3.440 GM2: 0.452  GM3:-0.0517  RAES: 1.80
     2s    -20.229985    2.439742
     2p    -15.503117    2.137023
 16     Tue Apr 24 11:44:34 CEST 2018   EN: 2.580 GM2: 0.340  GM3:-0.0502  RAES: 3.10
     3s    -20.029654    1.981333
     3p    -11.377694    2.025643
     3d     -0.420282    1.702555
 no old-style atom pair restraining (fixing) potential

molecular fragmentation (1/2 indicates fragments):
1111112222222222222
# atoms in fragment 1/2:     6    13
 fragment masses (1/2) :       97.07       73.07
CMA distance (Bohr)    :   8.173
constraining FC (au)   :  0.0500
           ------------------------------------------------- 
          |        Self-Consistent Charge Iterations        |
           ------------------------------------------------- 

 Ncao       : 52
 Nao        : 51
 Nshell     : 29
 Nel        : 64
 T(el)      :   300.0
 intcut     :    25.0
 scfconv/Eh :  0.100E-05
   qconv/e  :  0.100E-03
 intneglect :  0.100E-07
 broydamp   :      0.250
 iter      E             dE          RMSdq      gap      omega  full diag
   1    -40.9636951 -0.409637E+02  0.770E+00   10.69       0.0  T
   2    -41.0096804 -0.459853E-01  0.555E+00   10.09       1.0  T
   3    -41.0426637 -0.329833E-01  0.155E+00    8.29       1.0  T
   4    -41.0473347 -0.467106E-02  0.604E-01    8.21       1.0  T
   5    -41.0478431 -0.508327E-03  0.341E-01    8.08       1.0  T
   6    -41.0481853 -0.342229E-03  0.145E-01    8.10       1.0  T
   7    -41.0482597 -0.744134E-04  0.608E-02    8.16       1.0  T
   8    -41.0482732 -0.135148E-04  0.307E-02    8.17       1.0  T
   9    -41.0482766 -0.336948E-05  0.160E-02    8.16       1.4  T
  10    -41.0482778 -0.125487E-05  0.293E-03    8.16       7.8  T
  11    -41.0482779 -0.221313E-07  0.123E-03    8.16      18.6  T
  12    -41.0482779 -0.588336E-08  0.491E-04    8.16      46.7  T
  13    -41.0482779 -0.875580E-09  0.114E-04    8.16     201.8  T
speedup  0.85
cpu  time for SCC    0.01 s
wall time for SCC    0.01 s

   *** convergence criteria satisfied after 13 iterations ***

          eigenvalues
 #    :          20         21         22         23         24         25         26         27
 occ. :        2.000      2.000      2.000      2.000      2.000      2.000      2.000      2.000
 eps  :       -13.946    -13.922    -12.766    -12.752    -12.364    -12.334    -12.046    -11.269
 #    :          28         29         30         31         32         33         34         35
 occ. :        2.000      2.000      2.000      2.000      2.000      0.000      0.000      0.000
 eps  :       -10.784    -10.698    -10.261    -10.187     -9.900     -1.739     -0.466      0.636
 #    :          36         37         38         39         40         41         42         43
 occ. :        0.000      0.000      0.000      0.000      0.000      0.000      0.000      0.000
 eps  :         1.645      1.836      1.989      2.233      2.458      4.505      5.425      5.964


   #   Z            q   n(s)   n(p)   n(d)      C6AA      α(0)
   1  16 S      1.506  1.589  1.896  1.009    93.321    16.259
   2   8 O     -0.758  1.776  4.983  0.000    30.348     7.386
   3   8 O     -0.756  1.777  4.979  0.000    30.292     7.379
   4   8 O     -0.739  1.767  4.972  0.000    29.790     7.318
   5   8 O     -0.532  1.713  4.820  0.000    23.598     6.558
   6   1 H      0.354  0.646  0.000  0.000     0.570     1.182
   7   8 O     -0.578  1.734  4.843  0.000    24.655     6.702
   8   1 H      0.288  0.712  0.000  0.000     0.757     1.367
   9   1 H      0.294  0.706  0.000  0.000     0.738     1.349
  10   8 O     -0.584  1.730  4.854  0.000    24.816     6.723
  11   1 H      0.342  0.658  0.000  0.000     0.607     1.224
  12   1 H      0.300  0.700  0.000  0.000     0.721     1.334
  13   8 O     -0.566  1.743  4.824  0.000    24.394     6.666
  14   1 H      0.282  0.718  0.000  0.000     0.778     1.386
  15   1 H      0.284  0.716  0.000  0.000     0.770     1.378
  16   8 O     -0.389  1.630  4.759  0.000    20.583     6.127
  17   1 H      0.422  0.578  0.000  0.000     0.447     1.050
  18   1 H      0.416  0.584  0.000  0.000     0.456     1.061
  19   1 H      0.415  0.585  0.000  0.000     0.459     1.064

 Mol. C6AA /au·bohr⁶  :       3365.465556
 Mol. C8AA /au·bohr⁸  :      76478.831252
 Mol. α(0) /au        :         83.512666

 
 Wiberg/Mayer (AO) data. WBOs > 0.1 written file <wbo>
 largest (>0.05) Wiberg bond orders for each atom
           total WBO             WBO to atom ...
     1  S   5.002    O    3 1.342    O    2 1.321    O    4 1.319    O    5 1.000
     2  O   1.663    S    1 1.321    O    3 0.119    O    4 0.113    O    5 0.075
     3  O   1.657    S    1 1.342    O    2 0.119    O    4 0.115    O    5 0.076
     4  O   1.705    S    1 1.319    O    3 0.115    O    2 0.113    H   18 0.067    O    5 0.051
     5  O   2.054    S    1 1.000    H    6 0.850    O    3 0.076    O    2 0.075    O    4 0.051
     6  H   0.875    O    5 0.850
     7  O   1.838    H    8 0.916    H    9 0.912
     8  H   0.917    O    7 0.916
     9  H   0.913    O    7 0.912
    10  O   1.924    H   12 0.908    H   11 0.856    H   17 0.106
    11  H   0.883    O   10 0.856
    12  H   0.910    O   10 0.908
    13  O   1.839    H   14 0.920    H   15 0.919
    14  H   0.921    O   13 0.920
    15  H   0.919    O   13 0.919
    16  O   2.353    H   19 0.815    H   18 0.753    H   17 0.712
    17  H   0.822    O   16 0.712    O   10 0.106
    18  H   0.827    O   16 0.753    O    4 0.067
    19  H   0.828    O   16 0.815
 MOs/occ written to file <molden.input>
 
molecular dipole:
                 x           y           z       tot (Debye)
 q only:        2.020       2.239      -1.155
   full:        1.454       1.922      -0.919       6.556
molecular quadrupole (traceless):
                xx          xy          yy          xz          yz          zz
 q only:      -11.011      -1.007       5.682      -8.794       0.137       5.329
  q+dip:      -10.881       3.126       7.188     -14.082       0.576       3.693
   full:      -10.613       3.514       7.096     -14.439       0.595       3.517

SCC energy    :     -41.0482779
rep           :       0.2162755
ES            :       0.2602562
AES           :      -0.0405778
AXC           :      -0.0110556
disp          :      -0.0096884
XB            :       0.0000000
fix           :       0.0000000
total E       :     -40.8319448
atomizationE  :       3.6261320     2275.43
(atE without considering molecular charge,
 total energy contains solvation terms)
H-L gap (eV)  :          8.1611
           ------------------------------------------------- 
          |                 ===============                 |
          |                   A N C O P T                   |
          |                 ===============                 |
          |          Approximate Normal Coordinate          |
          |           Rational Function Optimizer           |
           ------------------------------------------------- 
dumping coords to <xtbopt.coord> and <xtbopt.log>
 optlevel               2
 Maxcycle             380
 Maxmicro              25
 Econv         1.000000000000000E-007
 Gconv         2.000000000000000E-004
 Maxdispl       1.00000000000000     
 Hlow          5.000000000000000E-003
 S6             20.0000000000000     
 Nvar               51

generating ANC from model Hessian ...
 Shifting diagonal of input Hessian by   5.125397879696516E-003
 Lowest  eigenvalues of input Hessian
    0.005000    0.005027    0.005081    0.005109   -0.000000   -0.000000
    0.000000    0.000000    0.000000    0.000000    0.005136    0.005155
    0.005256    0.005513    0.005599    0.005605    0.005775    0.005891
 Highest eigenvalues
    1.450905    1.547011    1.555396    3.130085    3.201294    3.306746
 
cpu  time for ANC gen    0.00 s
wall time for ANC gen    0.00 s
................................................................................
.............................. CYCLE    1 ......................................
................................................................................
   1    -41.0482779 -0.410483E+02  0.884E-05    8.16       0.0  T
   2    -41.0482779 -0.100542E-10  0.690E-05    8.16     332.7  T
   3    -41.0482779 -0.129106E-10  0.287E-05    8.16     799.0  T
speedup  1.00
cpu  time for SCC    0.00 s
wall time for SCC    0.00 s
speedup  1.04
cpu  time for grad    0.01 s
wall time for grad    0.01 s
 E :    -40.83194479  G :  0.163135    pred/act E change:  0.000D+00  0.310D-07
Maxdispl :   0.4025   ||displ|| :   0.5364   Lambda : -0.253D-01
Largest |displ|/coords:  0.4025 (  22)  0.1638 (  23)  0.1550 (  20)
................................................................................
.............................. CYCLE    2 ......................................
................................................................................
   1    -41.0656696 -0.410657E+02  0.402E-01    8.61       0.0  T
   2    -41.0658220 -0.152350E-03  0.308E-01    8.68       1.0  T
   3    -41.0658850 -0.630207E-04  0.103E-01    8.82       1.0  T
   4    -41.0659022 -0.171688E-04  0.271E-02    8.82       1.0  T
   5    -41.0659032 -0.103056E-05  0.726E-03    8.82       3.2  T
   6    -41.0659033 -0.705039E-07  0.449E-03    8.81       5.1  T
   7    -41.0659033 -0.582572E-07  0.192E-03    8.81      12.0  T
speedup  1.16
cpu  time for SCC    0.00 s
wall time for SCC    0.00 s
speedup  1.03
cpu  time for grad    0.01 s
wall time for grad    0.01 s
 E :    -40.85476446  G :  0.110660    pred/act E change:  0.000D+00 -0.228D-01
Maxdispl :   0.4314   ||displ|| :   0.5971   Lambda : -0.209D-01
Largest |displ|/coords:  0.4314 (  22)  0.2553 (  23)  0.1880 (  20)
................................................................................
.............................. CYCLE    3 ......................................
................................................................................
   1    -41.0747931 -0.410748E+02  0.475E-01    8.94       0.0  T
   2    -41.0752539 -0.460740E-03  0.358E-01    8.99       1.0  T
   3    -41.0754650 -0.211192E-03  0.147E-01    9.06       1.0  T
   4    -41.0754911 -0.261024E-04  0.444E-02    9.06       1.0  T
   5    -41.0754928 -0.169656E-05  0.121E-02    9.06       1.9  T
   6    -41.0754931 -0.211821E-06  0.666E-03    9.06       3.4  T
   7    -41.0754932 -0.119315E-06  0.275E-03    9.06       8.4  T
   8    -41.0754932 -0.290478E-07  0.133E-03    9.06      17.3  T
speedup  1.04
cpu  time for SCC    0.00 s
wall time for SCC    0.00 s
speedup  1.09
cpu  time for grad    0.01 s
wall time for grad    0.01 s
 E :    -40.87078356  G :  0.070742    pred/act E change: -0.163D-01 -0.160D-01
Maxdispl :   0.2219   ||displ|| :   0.4629   Lambda : -0.766D-02
Largest |displ|/coords:  0.2219 (  20)  0.1411 (  22)  0.1403 (  23)
................................................................................
.............................. CYCLE    4 ......................................
................................................................................
   1    -41.0786694 -0.410787E+02  0.289E-01    9.10       0.0  T
   2    -41.0789003 -0.230902E-03  0.217E-01    9.12       1.0  T
   3    -41.0790091 -0.108773E-03  0.104E-01    9.17       1.0  T
   4    -41.0790168 -0.768896E-05  0.272E-02    9.17       1.0  T
   5    -41.0790176 -0.833178E-06  0.722E-03    9.17       3.2  T
   6    -41.0790177 -0.854584E-07  0.435E-03    9.17       5.3  T
   7    -41.0790178 -0.527005E-07  0.173E-03    9.17      13.3  T
speedup  1.16
cpu  time for SCC    0.00 s
wall time for SCC    0.00 s
speedup  1.02
cpu  time for grad    0.01 s
wall time for grad    0.01 s
 E :    -40.87572460  G :  0.043417    pred/act E change: -0.142D-01 -0.494D-02
Maxdispl :   0.2238   ||displ|| :   0.5038   Lambda : -0.488D-02
Largest |displ|/coords:  0.2238 (  15)  0.2219 (  12)  0.1582 (   7)
................................................................................
.............................. CYCLE    5 ......................................
................................................................................
   1    -41.0840132 -0.410840E+02  0.259E-01    9.12       0.0  T
   2    -41.0841052 -0.920380E-04  0.197E-01    9.16       1.0  T
   3    -41.0841344 -0.291807E-04  0.818E-02    9.21       1.0  T
   4    -41.0841402 -0.577938E-05  0.234E-02    9.21       1.0  T
   5    -41.0841406 -0.445837E-06  0.465E-03    9.21       4.9  T
   6    -41.0841407 -0.316122E-07  0.212E-03    9.21      10.8  T
speedup  0.81
cpu  time for SCC    0.00 s
wall time for SCC    0.00 s
speedup  0.98
cpu  time for grad    0.01 s
wall time for grad    0.01 s
 E :    -40.87891125  G :  0.016865    pred/act E change: -0.465D-02 -0.319D-02
Maxdispl :   0.2376   ||displ|| :   0.5844   Lambda : -0.319D-02
Largest |displ|/coords:  0.2376 (   7)  0.2375 (  12)  0.1871 (  15)
................................................................................
.............................. CYCLE    6 ......................................
................................................................................
   1    -41.0857084 -0.410857E+02  0.372E-01    9.06       0.0  T
   2    -41.0858146 -0.106263E-03  0.278E-01    9.09       1.0  T
   3    -41.0858568 -0.421332E-04  0.694E-02    9.14       1.0  T
   4    -41.0858702 -0.134856E-04  0.291E-02    9.12       1.0  T
   5    -41.0858710 -0.779708E-06  0.612E-03    9.12       3.7  T
   6    -41.0858711 -0.361269E-07  0.271E-03    9.12       8.5  T
   7    -41.0858711 -0.889704E-08  0.118E-03    9.12      19.5  T
speedup  0.95
cpu  time for SCC    0.00 s
wall time for SCC    0.00 s
speedup  1.03
cpu  time for grad    0.01 s
wall time for grad    0.01 s
 E :    -40.88027315  G :  0.027860    pred/act E change: -0.306D-02 -0.136D-02
Maxdispl :   0.2352   ||displ|| :   0.4705   Lambda : -0.246D-02
Largest |displ|/coords:  0.2352 (   1)  0.1654 (   4)  0.1551 (  11)
................................................................................
.............................. CYCLE    7 ......................................
................................................................................
   1    -41.0818989 -0.410819E+02  0.296E-01    8.98       0.0  T
   2    -41.0819532 -0.543010E-04  0.220E-01    8.99       1.0  T
   3    -41.0819749 -0.216575E-04  0.508E-02    8.99       1.0  T
   4    -41.0819820 -0.705421E-05  0.192E-02    9.00       1.2  T
   5    -41.0819823 -0.334384E-06  0.357E-03    9.00       6.4  T
   6    -41.0819823 -0.193561E-07  0.190E-03    9.00      12.1  T
speedup  1.08
cpu  time for SCC    0.00 s
wall time for SCC    0.00 s
speedup  1.08
cpu  time for grad    0.01 s
wall time for grad    0.01 s
 E :    -40.88171993  G :  0.022911    pred/act E change: -0.214D-02 -0.145D-02
Maxdispl :   0.2694   ||displ|| :   0.5044   Lambda : -0.206D-02
Largest |displ|/coords:  0.2694 (   7)  0.2459 (   1)  0.1754 (   4)
................................................................................
.............................. CYCLE    8 ......................................
................................................................................
   1    -41.0717056 -0.410717E+02  0.549E-01    8.97       0.0  T
   2    -41.0718007 -0.951701E-04  0.412E-01    8.96       1.0  T
   3    -41.0718488 -0.480817E-04  0.651E-02    8.95       1.0  T
   4    -41.0718641 -0.152631E-04  0.168E-02    8.96       1.4  T
   5    -41.0718647 -0.619299E-06  0.502E-03    8.96       4.6  T
   6    -41.0718647 -0.776175E-08  0.299E-03    8.96       7.7  T
speedup  1.08
cpu  time for SCC    0.00 s
wall time for SCC    0.00 s
speedup  1.08
cpu  time for grad    0.01 s
wall time for grad    0.01 s
 E :    -40.88075858  G :  0.057554    pred/act E change: -0.150D-02  0.961D-03
Maxdispl :   0.2270   ||displ|| :   0.4435   Lambda : -0.101D-01
Largest |displ|/coords:  0.2270 (  12)  0.2087 (   7)  0.1801 (   2)
................................................................................
.............................. CYCLE    9 ......................................
................................................................................
   1    -41.0916035 -0.410916E+02  0.772E-01    9.04       0.0  T
   2    -41.0918500 -0.246497E-03  0.580E-01    9.04       1.0  T
   3    -41.0919940 -0.143943E-03  0.105E-01    9.05       1.0  T
   4    -41.0920308 -0.368568E-04  0.145E-02    9.04       1.6  T
   5    -41.0920310 -0.194442E-06  0.881E-03    9.05       2.6  T
   6    -41.0920310 -0.283889E-07  0.349E-03    9.05       6.6  T
   7    -41.0920310 -0.150288E-07  0.622E-04    9.05      36.9  T
speedup  0.93
cpu  time for SCC    0.00 s
wall time for SCC    0.00 s
speedup  1.02
cpu  time for grad    0.01 s
wall time for grad    0.01 s
 E :    -40.88177066  G :  0.037014    pred/act E change: -0.129D-02 -0.101D-02
Maxdispl :   0.1963   ||displ|| :   0.3866   Lambda : -0.322D-02
Largest |displ|/coords:  0.1963 (  13)  0.1516 (  14)  0.1233 (   1)
................................................................................
.............................. CYCLE   10 ......................................
................................................................................
   1    -41.0826085 -0.410826E+02  0.307E-01    9.13       0.0  T
   2    -41.0826533 -0.448069E-04  0.228E-01    9.12       1.0  T
   3    -41.0826809 -0.275609E-04  0.465E-02    9.11       1.0  T
   4    -41.0826863 -0.547210E-05  0.132E-02    9.11       1.7  T
   5    -41.0826867 -0.363873E-06  0.513E-03    9.11       4.5  T
   6    -41.0826867 -0.172758E-07  0.300E-03    9.11       7.7  T
speedup  1.08
cpu  time for SCC    0.00 s
wall time for SCC    0.00 s
speedup  1.08
cpu  time for grad    0.01 s
wall time for grad    0.01 s
 E :    -40.88328645  G :  0.022593    pred/act E change: -0.607D-02 -0.152D-02
Maxdispl :   0.2212   ||displ|| :   0.3952   Lambda : -0.198D-02
Largest |displ|/coords:  0.2212 (   1)  0.1509 (  13)  0.1460 (   3)
................................................................................
.............................. CYCLE   11 ......................................
................................................................................
   1    -41.0862800 -0.410863E+02  0.267E-01    9.12       0.0  T
   2    -41.0862939 -0.138952E-04  0.202E-01    9.12       1.0  T
   3    -41.0863023 -0.842561E-05  0.259E-02    9.11       1.0  T
   4    -41.0863047 -0.236912E-05  0.827E-03    9.12       2.8  T
   5    -41.0863048 -0.103573E-06  0.253E-03    9.12       9.1  T
   6    -41.0863048 -0.286450E-08  0.139E-03    9.12      16.5  T
speedup  1.03
cpu  time for SCC    0.00 s
wall time for SCC    0.00 s
speedup  0.94
cpu  time for grad    0.01 s
wall time for grad    0.01 s
 E :    -40.88414101  G :  0.018488    pred/act E change: -0.185D-02 -0.855D-03
Maxdispl :   0.1285   ||displ|| :   0.2746   Lambda : -0.907D-03
Largest |displ|/coords:  0.1285 (   4)  0.0983 (  10)  0.0939 (   3)
................................................................................
.............................. CYCLE   12 ......................................
................................................................................
   1    -41.0858255 -0.410858E+02  0.183E-01    9.10       0.0  T
   2    -41.0858435 -0.180029E-04  0.137E-01    9.10       1.0  T
   3    -41.0858517 -0.817702E-05  0.271E-02    9.10       1.0  T
   4    -41.0858544 -0.275587E-05  0.907E-03    9.11       2.5  T
   5    -41.0858546 -0.142264E-06  0.268E-03    9.10       8.5  T
   6    -41.0858546 -0.512865E-08  0.153E-03    9.10      15.0  T
speedup  1.11
cpu  time for SCC    0.00 s
wall time for SCC    0.00 s
speedup  1.10
cpu  time for grad    0.01 s
wall time for grad    0.01 s
 E :    -40.88477476  G :  0.021898    pred/act E change: -0.114D-02 -0.634D-03
Maxdispl :   0.2505   ||displ|| :   0.5095   Lambda : -0.189D-02
Largest |displ|/coords:  0.2505 (   4)  0.2408 (   5)  0.1723 (  13)
................................................................................
.............................. CYCLE   13 ......................................
................................................................................
   1    -41.0918838 -0.410919E+02  0.342E-01    9.04       0.0  T
   2    -41.0919857 -0.101959E-03  0.255E-01    9.05       1.0  T
   3    -41.0920364 -0.507318E-04  0.646E-02    9.06       1.0  T
   4    -41.0920496 -0.131564E-04  0.152E-02    9.06       1.5  T
   5    -41.0920499 -0.286447E-06  0.578E-03    9.06       4.0  T
   6    -41.0920499 -0.250090E-07  0.322E-03    9.06       7.1  T
speedup  1.08
cpu  time for SCC    0.00 s
wall time for SCC    0.00 s
speedup  0.96
cpu  time for grad    0.01 s
wall time for grad    0.01 s
 E :    -40.88554765  G :  0.028955    pred/act E change: -0.488D-03 -0.773D-03
Maxdispl :   0.2428   ||displ|| :   0.4757   Lambda : -0.168D-02
Largest |displ|/coords:  0.2428 (   1)  0.2324 (   4)  0.2064 (   6)
................................................................................
.............................. CYCLE   14 ......................................
................................................................................
   1    -41.0900174 -0.410900E+02  0.308E-01    9.09       0.0  T
   2    -41.0900486 -0.311363E-04  0.234E-01    9.09       1.0  T
   3    -41.0900717 -0.231026E-04  0.357E-02    9.09       1.0  T
   4    -41.0900760 -0.433648E-05  0.133E-02    9.09       1.7  T
   5    -41.0900763 -0.309222E-06  0.404E-03    9.09       5.7  T
   6    -41.0900763 -0.122007E-07  0.252E-03    9.09       9.1  T
speedup  1.08
cpu  time for SCC    0.00 s
wall time for SCC    0.00 s
speedup  0.96
cpu  time for grad    0.01 s
wall time for grad    0.01 s
 E :    -40.88686066  G :  0.023954    pred/act E change: -0.119D-02 -0.131D-02
Maxdispl :   0.3342   ||displ|| :   0.6392   Lambda : -0.259D-02
Largest |displ|/coords:  0.3342 (   1)  0.2852 (   4)  0.2616 (   2)
................................................................................
.............................. CYCLE   15 ......................................
................................................................................
   1    -41.0984111 -0.410984E+02  0.293E-01    9.17       0.0  T
   2    -41.0984677 -0.566045E-04  0.218E-01    9.17       1.0  T
   3    -41.0984962 -0.285294E-04  0.488E-02    9.16       1.0  T
   4    -41.0985031 -0.688474E-05  0.188E-02    9.17       1.2  T
   5    -41.0985038 -0.682073E-06  0.537E-03    9.17       4.3  T
   6    -41.0985038 -0.276842E-07  0.327E-03    9.17       7.0  T
speedup  0.81
cpu  time for SCC    0.00 s
wall time for SCC    0.00 s
speedup  0.96
cpu  time for grad    0.01 s
wall time for grad    0.01 s
 E :    -40.88844756  G :  0.019059    pred/act E change: -0.103D-02 -0.159D-02
Maxdispl :   0.3379   ||displ|| :   0.6998   Lambda : -0.215D-02
Largest |displ|/coords:  0.3379 (   1)  0.3084 (   4)  0.2660 (  13)
................................................................................
.............................. CYCLE   16 ......................................
................................................................................
   1    -41.0967368 -0.410967E+02  0.352E-01    9.09       0.0  T
   2    -41.0968416 -0.104720E-03  0.265E-01    9.09       1.0  T
   3    -41.0968987 -0.571560E-04  0.679E-02    9.10       1.0  T
   4    -41.0969123 -0.136251E-04  0.239E-02    9.10       1.0  T
   5    -41.0969133 -0.101086E-05  0.818E-03    9.10       2.8  T
   6    -41.0969134 -0.553534E-07  0.435E-03    9.10       5.3  T
   7    -41.0969134 -0.246763E-07  0.130E-03    9.10      17.7  T
   8    -41.0969134 -0.215134E-08  0.316E-04    9.10      72.6  T
speedup  1.02
cpu  time for SCC    0.00 s
wall time for SCC    0.00 s
speedup  1.05
cpu  time for grad    0.01 s
wall time for grad    0.01 s
 E :    -40.88915015  G :  0.043448    pred/act E change: -0.182D-02 -0.703D-03
Maxdispl :   0.1793   ||displ|| :   0.4055   Lambda : -0.396D-02
Largest |displ|/coords:  0.1793 (   2)  0.1400 (   5)  0.1286 (   4)
................................................................................
.............................. CYCLE   17 ......................................
................................................................................
   1    -41.1098943 -0.411099E+02  0.301E-01    9.06       0.0  T
   2    -41.1099815 -0.871071E-04  0.227E-01    9.06       1.0  T
   3    -41.1100409 -0.594680E-04  0.603E-02    8.94       1.0  T
   4    -41.1100512 -0.102428E-04  0.144E-02    8.95       1.6  T
   5    -41.1100514 -0.238278E-06  0.725E-03    8.96       3.2  T
   6    -41.1100514 -0.351068E-07  0.360E-03    8.96       6.4  T
   7    -41.1100515 -0.145555E-07  0.758E-04    8.96      30.3  T
speedup  0.93
cpu  time for SCC    0.00 s
wall time for SCC    0.00 s
speedup  0.89
cpu  time for grad    0.01 s
wall time for grad    0.01 s
 E :    -40.89013155  G :  0.039386    pred/act E change: -0.160D-02 -0.981D-03
Maxdispl :   0.1865   ||displ|| :   0.4150   Lambda : -0.472D-02
Largest |displ|/coords:  0.1865 (   5)  0.1454 (  22)  0.1326 (   6)
................................................................................
.............................. CYCLE   18 ......................................
................................................................................
   1    -41.1066613 -0.411067E+02  0.558E-01    8.93       0.0  T
   2    -41.1067842 -0.122863E-03  0.418E-01    8.94       1.0  T
   3    -41.1068626 -0.784027E-04  0.819E-02    8.93       1.0  T
   4    -41.1068786 -0.160390E-04  0.192E-02    8.95       1.2  T
   5    -41.1068789 -0.252539E-06  0.715E-03    8.95       3.2  T
   6    -41.1068790 -0.706522E-07  0.347E-03    8.95       6.6  T
   7    -41.1068790 -0.130293E-07  0.120E-03    8.95      19.2  T
speedup  0.93
cpu  time for SCC    0.00 s
wall time for SCC    0.00 s
speedup  1.01
cpu  time for grad    0.01 s
wall time for grad    0.01 s
 E :    -40.89054671  G :  0.034758    pred/act E change: -0.231D-02 -0.415D-03
Maxdispl :   0.1453   ||displ|| :   0.3578   Lambda : -0.334D-02
Largest |displ|/coords:  0.1453 (  13)  0.1395 (   5)  0.1292 (   2)
................................................................................
.............................. CYCLE   19 ......................................
................................................................................
   1    -41.1067563 -0.411068E+02  0.283E-01    8.86       0.0  T
   2    -41.1068276 -0.712667E-04  0.210E-01    8.85       1.0  T
   3    -41.1068639 -0.362531E-04  0.584E-02    8.83       1.0  T
   4    -41.1068713 -0.748129E-05  0.197E-02    8.82       1.2  T
   5    -41.1068720 -0.643706E-06  0.637E-03    8.81       3.6  T
   6    -41.1068720 -0.305642E-07  0.330E-03    8.81       7.0  T
   7    -41.1068720 -0.169726E-07  0.116E-03    8.81      19.7  T
speedup  0.93
cpu  time for SCC    0.00 s
wall time for SCC    0.00 s
speedup  1.00
cpu  time for grad    0.01 s
wall time for grad    0.01 s
 E :    -40.89218986  G :  0.034181    pred/act E change: -0.276D-02 -0.164D-02
Maxdispl :   0.1773   ||displ|| :   0.3467   Lambda : -0.205D-02
Largest |displ|/coords:  0.1773 (  10)  0.1291 (   2)  0.1189 (  11)
................................................................................
.............................. CYCLE   20 ......................................
................................................................................
   1    -41.1094160 -0.411094E+02  0.286E-01    8.76       0.0  T
   2    -41.1094532 -0.372079E-04  0.216E-01    8.76       1.0  T
   3    -41.1094873 -0.341478E-04  0.391E-02    8.75       1.0  T
   4    -41.1094918 -0.450699E-05  0.116E-02    8.76       2.0  T
   5    -41.1094920 -0.115742E-06  0.543E-03    8.76       4.2  T
   6    -41.1094920 -0.263120E-07  0.235E-03    8.76       9.8  T
speedup  1.08
cpu  time for SCC    0.00 s
wall time for SCC    0.00 s
speedup  1.07
cpu  time for grad    0.01 s
wall time for grad    0.01 s
 E :    -40.89229291  G :  0.041037    pred/act E change: -0.188D-02 -0.103D-03
Maxdispl :   0.1351   ||displ|| :   0.3002   Lambda : -0.247D-02
Largest |displ|/coords:  0.1351 (   1)  0.0984 (   4)  0.0837 (   5)
................................................................................
.............................. CYCLE   21 ......................................
................................................................................
   1    -41.1065735 -0.411066E+02  0.219E-01    8.63       0.0  T
   2    -41.1066071 -0.336531E-04  0.162E-01    8.64       1.0  T
   3    -41.1066275 -0.204101E-04  0.397E-02    8.67       1.0  T
   4    -41.1066311 -0.354541E-05  0.111E-02    8.65       2.1  T
   5    -41.1066313 -0.176894E-06  0.418E-03    8.64       5.5  T
   6    -41.1066313 -0.102263E-07  0.223E-03    8.65      10.3  T
speedup  1.05
cpu  time for SCC    0.00 s
wall time for SCC    0.00 s
speedup  1.03
cpu  time for grad    0.01 s
wall time for grad    0.01 s
 E :    -40.89299866  G :  0.029844    pred/act E change: -0.115D-02 -0.706D-03
Maxdispl :   0.1442   ||displ|| :   0.2871   Lambda : -0.254D-02
Largest |displ|/coords:  0.1442 (   7)  0.1422 (  15)  0.0950 (   5)
................................................................................
.............................. CYCLE   22 ......................................
................................................................................
   1    -41.1128406 -0.411128E+02  0.317E-01    8.75       0.0  T
   2    -41.1128639 -0.233234E-04  0.239E-01    8.75       1.0  T
   3    -41.1128827 -0.187861E-04  0.309E-02    8.74       1.0  T
   4    -41.1128856 -0.288105E-05  0.115E-02    8.75       2.0  T
   5    -41.1128857 -0.191845E-06  0.399E-03    8.75       5.8  T
   6    -41.1128858 -0.759871E-08  0.218E-03    8.75      10.5  T
speedup  1.08
cpu  time for SCC    0.00 s
wall time for SCC    0.00 s
speedup  1.07
cpu  time for grad    0.01 s
wall time for grad    0.01 s
 E :    -40.89386097  G :  0.029463    pred/act E change: -0.135D-02 -0.862D-03
Maxdispl :   0.1717   ||displ|| :   0.3559   Lambda : -0.160D-02
Largest |displ|/coords:  0.1717 (   5)  0.1578 (   1)  0.1286 (  10)
................................................................................
.............................. CYCLE   23 ......................................
................................................................................
   1    -41.1054270 -0.411054E+02  0.247E-01    8.70       0.0  T
   2    -41.1054615 -0.344780E-04  0.186E-01    8.68       1.0  T
   3    -41.1054863 -0.248372E-04  0.464E-02    8.65       1.0  T
   4    -41.1054906 -0.434836E-05  0.148E-02    8.64       1.6  T
   5    -41.1054910 -0.359651E-06  0.477E-03    8.64       4.8  T
   6    -41.1054910 -0.205802E-07  0.251E-03    8.64       9.1  T
speedup  0.81
cpu  time for SCC    0.00 s
wall time for SCC    0.00 s
speedup  0.94
cpu  time for grad    0.01 s
wall time for grad    0.01 s
 E :    -40.89432930  G :  0.037202    pred/act E change: -0.138D-02 -0.468D-03
Maxdispl :   0.1609   ||displ|| :   0.3092   Lambda : -0.253D-02
Largest |displ|/coords:  0.1609 (  14)  0.1147 (   3)  0.1085 (  13)
................................................................................
.............................. CYCLE   24 ......................................
................................................................................
   1    -41.1091866 -0.411092E+02  0.278E-01    8.61       0.0  T
   2    -41.1092252 -0.385579E-04  0.205E-01    8.62       1.0  T
   3    -41.1092457 -0.204996E-04  0.403E-02    8.63       1.0  T
   4    -41.1092503 -0.459484E-05  0.104E-02    8.64       2.2  T
   5    -41.1092505 -0.177199E-06  0.353E-03    8.64       6.5  T
   6    -41.1092505 -0.757736E-08  0.198E-03    8.64      11.6  T
speedup  0.79
cpu  time for SCC    0.00 s
wall time for SCC    0.00 s
speedup  0.92
cpu  time for grad    0.01 s
wall time for grad    0.01 s
 E :    -40.89493989  G :  0.025805    pred/act E change: -0.902D-03 -0.611D-03
Maxdispl :   0.1245   ||displ|| :   0.2471   Lambda : -0.175D-02
Largest |displ|/coords:  0.1245 (   5)  0.0939 (   7)  0.0853 (   6)
................................................................................
.............................. CYCLE   25 ......................................
................................................................................
   1    -41.1098113 -0.411098E+02  0.207E-01    8.72       0.0  T
   2    -41.1098278 -0.164851E-04  0.157E-01    8.73       1.0  T
   3    -41.1098366 -0.883535E-05  0.301E-02    8.75       1.0  T
   4    -41.1098393 -0.266587E-05  0.876E-03    8.74       2.6  T
   5    -41.1098394 -0.114381E-06  0.266E-03    8.74       8.6  T
   6    -41.1098394 -0.371814E-08  0.162E-03    8.74      14.1  T
speedup  1.08
cpu  time for SCC    0.00 s
wall time for SCC    0.00 s
speedup  1.07
cpu  time for grad    0.01 s
wall time for grad    0.01 s
 E :    -40.89611139  G :  0.016548    pred/act E change: -0.138D-02 -0.117D-02
Maxdispl :   0.2406   ||displ|| :   0.3952   Lambda : -0.163D-02
Largest |displ|/coords:  0.2406 (   5)  0.1650 (   7)  0.1648 (   6)

generating ANC from model Hessian ...
 Shifting diagonal of input Hessian by   5.098694583239743E-003
 Lowest  eigenvalues of input Hessian
    0.005000    0.005022   -0.000000   -0.000000   -0.000000    0.000000
    0.000000    0.000000    0.005144    0.005228    0.005253    0.005482
    0.005604    0.005644    0.006664    0.006995    0.010500    0.011742
 Highest eigenvalues
    1.415605    1.425087    1.443249    2.522922    3.424842    3.681625
 
cpu  time for ANC gen    0.00 s
wall time for ANC gen    0.00 s
................................................................................
.............................. CYCLE   26 ......................................
................................................................................
   1    -41.1072480 -0.411072E+02  0.312E-01    8.66       0.0  T
   2    -41.1072699 -0.218942E-04  0.236E-01    8.64       1.0  T
   3    -41.1072835 -0.136259E-04  0.325E-02    8.60       1.0  T
   4    -41.1072868 -0.334867E-05  0.128E-02    8.61       1.8  T
   5    -41.1072871 -0.232776E-06  0.316E-03    8.61       7.3  T
   6    -41.1072871 -0.520219E-08  0.187E-03    8.61      12.3  T
   7    -41.1072871 -0.606342E-08  0.670E-04    8.61      34.3  T
   8    -41.1072871 -0.101893E-08  0.241E-04    8.61      95.2  T
speedup  1.00
cpu  time for SCC    0.00 s
wall time for SCC    0.01 s
speedup  0.99
cpu  time for grad    0.01 s
wall time for grad    0.01 s
 E :    -40.89676461  G :  0.025425    pred/act E change:  0.000D+00 -0.653D-03
Maxdispl :   0.1417   ||displ|| :   0.3400   Lambda : -0.218D-02
Largest |displ|/coords:  0.1417 (   9)  0.1411 (   5)  0.1184 (  10)
................................................................................
.............................. CYCLE   27 ......................................
................................................................................
   1    -41.1079894 -0.411080E+02  0.288E-01    8.64       0.0  T
   2    -41.1080067 -0.172961E-04  0.219E-01    8.65       1.0  T
   3    -41.1080216 -0.149426E-04  0.250E-02    8.67       1.0  T
   4    -41.1080241 -0.248908E-05  0.104E-02    8.66       2.2  T
   5    -41.1080242 -0.161343E-06  0.364E-03    8.66       6.3  T
   6    -41.1080243 -0.873440E-08  0.213E-03    8.66      10.8  T
speedup  1.08
cpu  time for SCC    0.00 s
wall time for SCC    0.00 s
speedup  1.06
cpu  time for grad    0.01 s
wall time for grad    0.01 s
 E :    -40.89809312  G :  0.017964    pred/act E change:  0.000D+00 -0.133D-02
Maxdispl :   0.1289   ||displ|| :   0.2554   Lambda : -0.102D-02
Largest |displ|/coords:  0.1289 (   3)  0.1058 (  13)  0.0878 (   6)
................................................................................
.............................. CYCLE   28 ......................................
................................................................................
   1    -41.1112703 -0.411113E+02  0.188E-01    8.71       0.0  T
   2    -41.1112891 -0.188432E-04  0.140E-01    8.72       1.0  T
   3    -41.1112971 -0.796300E-05  0.291E-02    8.74       1.0  T
   4    -41.1112995 -0.247457E-05  0.911E-03    8.73       2.5  T
   5    -41.1112997 -0.156100E-06  0.231E-03    8.73       9.9  T
   6    -41.1112997 -0.299195E-08  0.145E-03    8.73      15.8  T
speedup  1.08
cpu  time for SCC    0.00 s
wall time for SCC    0.00 s
speedup  1.06
cpu  time for grad    0.01 s
wall time for grad    0.01 s
 E :    -40.89865332  G :  0.009866    pred/act E change: -0.122D-02 -0.560D-03
Maxdispl :   0.2247   ||displ|| :   0.3141   Lambda : -0.600D-03
Largest |displ|/coords:  0.2247 (   4)  0.1007 (   8)  0.0925 (   3)
................................................................................
.............................. CYCLE   29 ......................................
................................................................................
   1    -41.1124874 -0.411125E+02  0.259E-01    8.78       0.0  T
   2    -41.1125009 -0.135594E-04  0.198E-01    8.78       1.0  T
   3    -41.1125124 -0.114580E-04  0.235E-02    8.78       1.0  T
   4    -41.1125142 -0.186715E-05  0.840E-03    8.78       2.7  T
   5    -41.1125143 -0.755116E-07  0.259E-03    8.78       8.8  T
   6    -41.1125143 -0.383661E-08  0.157E-03    8.78      14.6  T
speedup  0.81
cpu  time for SCC    0.00 s
wall time for SCC    0.00 s
speedup  0.94
cpu  time for grad    0.01 s
wall time for grad    0.01 s
 E :    -40.89900720  G :  0.008418    pred/act E change: -0.545D-03 -0.354D-03
Maxdispl :   0.2059   ||displ|| :   0.3158   Lambda : -0.364D-03
Largest |displ|/coords:  0.2059 (   4)  0.1841 (   3)  0.0845 (   2)
................................................................................
.............................. CYCLE   30 ......................................
................................................................................
   1    -41.1117482 -0.411117E+02  0.117E-01    8.81       0.0  T
   2    -41.1117523 -0.409927E-05  0.887E-02    8.81       1.0  T
   3    -41.1117552 -0.291091E-05  0.142E-02    8.80       1.6  T
   4    -41.1117558 -0.629510E-06  0.484E-03    8.81       4.7  T
   5    -41.1117558 -0.208733E-07  0.160E-03    8.81      14.4  T
   6    -41.1117558 -0.232577E-08  0.942E-04    8.81      24.4  T
speedup  0.81
cpu  time for SCC    0.00 s
wall time for SCC    0.00 s
speedup  0.94
cpu  time for grad    0.01 s
wall time for grad    0.01 s
 E :    -40.89931357  G :  0.008026    pred/act E change: -0.330D-03 -0.306D-03
Maxdispl :   0.4313   ||displ|| :   0.6613   Lambda : -0.756D-03
Largest |displ|/coords:  0.4313 (   4)  0.4251 (   3)  0.1949 (   2)
................................................................................
.............................. CYCLE   31 ......................................
................................................................................
   1    -41.1112837 -0.411113E+02  0.188E-01    8.81       0.0  T
   2    -41.1112989 -0.152023E-04  0.143E-01    8.82       1.0  T
   3    -41.1113076 -0.878366E-05  0.263E-02    8.84       1.0  T
   4    -41.1113102 -0.258741E-05  0.982E-03    8.84       2.3  T
   5    -41.1113103 -0.104358E-06  0.282E-03    8.84       8.1  T
   6    -41.1113103 -0.608755E-08  0.173E-03    8.84      13.2  T
speedup  1.00
cpu  time for SCC    0.00 s
wall time for SCC    0.00 s
speedup  1.02
cpu  time for grad    0.01 s
wall time for grad    0.01 s
 E :    -40.89998723  G :  0.008304    pred/act E change: -0.200D-03 -0.674D-03
Maxdispl :   0.5584   ||displ|| :   0.8289   Lambda : -0.968D-03
Largest |displ|/coords:  0.5584 (   3)  0.5129 (   4)  0.2501 (   2)
................................................................................
.............................. CYCLE   32 ......................................
................................................................................
   1    -41.1091325 -0.411091E+02  0.214E-01    8.84       0.0  T
   2    -41.1091595 -0.269794E-04  0.162E-01    8.87       1.0  T
   3    -41.1091730 -0.135110E-04  0.349E-02    8.93       1.0  T
   4    -41.1091773 -0.428559E-05  0.128E-02    8.92       1.8  T
   5    -41.1091775 -0.244151E-06  0.358E-03    8.92       6.4  T
   6    -41.1091775 -0.111324E-07  0.218E-03    8.92      10.5  T
   7    -41.1091775 -0.506426E-08  0.652E-04    8.92      35.2  T
speedup  0.93
cpu  time for SCC    0.00 s
wall time for SCC    0.00 s
speedup  0.98
cpu  time for grad    0.01 s
wall time for grad    0.01 s
 E :    -40.90096475  G :  0.009678    pred/act E change: -0.543D-03 -0.978D-03
Maxdispl :   0.5723   ||displ|| :   0.8141   Lambda : -0.108D-02
Largest |displ|/coords:  0.5723 (   3)  0.4778 (   4)  0.2446 (   2)
................................................................................
.............................. CYCLE   33 ......................................
................................................................................
   1    -41.1095993 -0.411096E+02  0.161E-01    8.92       0.0  T
   2    -41.1096262 -0.269570E-04  0.120E-01    8.95       1.0  T
   3    -41.1096383 -0.120626E-04  0.347E-02    8.99       1.0  T
   4    -41.1096413 -0.304962E-05  0.126E-02    8.99       1.8  T
   5    -41.1096416 -0.235481E-06  0.324E-03    8.99       7.1  T
   6    -41.1096416 -0.115331E-07  0.188E-03    8.99      12.2  T
   7    -41.1096416 -0.416000E-08  0.677E-04    8.99      33.9  T
speedup  1.16
cpu  time for SCC    0.00 s
wall time for SCC    0.00 s
speedup  1.09
cpu  time for grad    0.01 s
wall time for grad    0.01 s
 E :    -40.90212356  G :  0.010837    pred/act E change: -0.816D-03 -0.116D-02
Maxdispl :   0.5431   ||displ|| :   0.8046   Lambda : -0.155D-02
Largest |displ|/coords:  0.5431 (   4)  0.4363 (   3)  0.2192 (   2)
................................................................................
.............................. CYCLE   34 ......................................
................................................................................
   1    -41.0971624 -0.410972E+02  0.447E-01    9.00       0.0  T
   2    -41.0972751 -0.112736E-03  0.335E-01    9.02       1.0  T
   3    -41.0973305 -0.554045E-04  0.720E-02    9.06       1.0  T
   4    -41.0973467 -0.162182E-04  0.181E-02    9.06       1.3  T
   5    -41.0973472 -0.526431E-06  0.590E-03    9.06       3.9  T
   6    -41.0973473 -0.257850E-07  0.378E-03    9.06       6.1  T
   7    -41.0973473 -0.102930E-07  0.823E-04    9.06      27.9  T
   8    -41.0973473 -0.100306E-08  0.211E-04    9.06     108.5  T
speedup  1.02
cpu  time for SCC    0.00 s
wall time for SCC    0.00 s
speedup  1.01
cpu  time for grad    0.01 s
wall time for grad    0.01 s
 E :    -40.90149175  G :  0.054674    pred/act E change: -0.894D-03  0.632D-03
Maxdispl :   0.2503   ||displ|| :   0.3987   Lambda : -0.933D-02
Largest |displ|/coords:  0.2503 (   3)  0.1924 (   6)  0.1802 (   4)
................................................................................
.............................. CYCLE   35 ......................................
................................................................................
   1    -41.1136853 -0.411137E+02  0.718E-01    9.05       0.0  T
   2    -41.1139291 -0.243722E-03  0.541E-01    9.06       1.0  T
   3    -41.1140720 -0.142977E-03  0.106E-01    9.09       1.0  T
   4    -41.1141083 -0.362196E-04  0.141E-02    9.08       1.6  T
   5    -41.1141084 -0.141103E-06  0.876E-03    9.08       2.6  T
   6    -41.1141084 -0.190366E-07  0.351E-03    9.08       6.5  T
   7    -41.1141084 -0.114166E-07  0.435E-04    9.08      52.7  T
speedup  1.14
cpu  time for SCC    0.00 s
wall time for SCC    0.00 s
speedup  1.08
cpu  time for grad    0.01 s
wall time for grad    0.01 s
 E :    -40.90256653  G :  0.040645    pred/act E change: -0.128D-02 -0.107D-02
Maxdispl :   0.1094   ||displ|| :   0.1887   Lambda : -0.198D-02
Largest |displ|/coords:  0.1094 (   6)  0.0769 (   5)  0.0717 (   3)
................................................................................
.............................. CYCLE   36 ......................................
................................................................................
   1    -41.1109771 -0.411110E+02  0.163E-01    9.13       0.0  T
   2    -41.1109961 -0.189588E-04  0.120E-01    9.13       1.0  T
   3    -41.1110068 -0.106980E-04  0.286E-02    9.13       1.0  T
   4    -41.1110088 -0.202026E-05  0.458E-03    9.13       5.0  T
   5    -41.1110088 -0.126678E-07  0.259E-03    9.13       8.9  T
speedup  1.29
cpu  time for SCC    0.00 s
wall time for SCC    0.00 s
speedup  0.99
cpu  time for grad    0.01 s
wall time for grad    0.01 s
 E :    -40.90377021  G :  0.012018    pred/act E change: -0.541D-02 -0.120D-02
Maxdispl :   0.1971   ||displ|| :   0.3033   Lambda : -0.947D-03
Largest |displ|/coords:  0.1971 (   5)  0.1272 (   2)  0.0900 (  10)
................................................................................
.............................. CYCLE   37 ......................................
................................................................................
   1    -41.1065163 -0.411065E+02  0.195E-01    9.15       0.0  T
   2    -41.1065255 -0.919688E-05  0.147E-01    9.15       1.0  T
   3    -41.1065316 -0.612961E-05  0.215E-02    9.16       1.1  T
   4    -41.1065330 -0.135912E-05  0.556E-03    9.16       4.1  T
   5    -41.1065330 -0.328223E-07  0.217E-03    9.16      10.6  T
   6    -41.1065330 -0.201209E-08  0.122E-03    9.16      18.8  T
speedup  0.79
cpu  time for SCC    0.00 s
wall time for SCC    0.00 s
speedup  0.91
cpu  time for grad    0.01 s
wall time for grad    0.01 s
 E :    -40.90447581  G :  0.011740    pred/act E change: -0.103D-02 -0.706D-03
Maxdispl :   0.3614   ||displ|| :   0.5145   Lambda : -0.125D-02
Largest |displ|/coords:  0.3614 (   5)  0.2314 (   2)  0.1635 (   4)
................................................................................
.............................. CYCLE   38 ......................................
................................................................................
   1    -41.1049123 -0.411049E+02  0.360E-01    9.16       0.0  T
   2    -41.1049448 -0.324997E-04  0.271E-01    9.16       1.0  T
   3    -41.1049668 -0.220056E-04  0.391E-02    9.16       1.0  T
   4    -41.1049715 -0.468538E-05  0.107E-02    9.16       2.1  T
   5    -41.1049716 -0.136935E-06  0.367E-03    9.16       6.2  T
   6    -41.1049716 -0.767535E-08  0.213E-03    9.16      10.8  T
   7    -41.1049716 -0.514651E-08  0.573E-04    9.16      40.1  T
speedup  1.16
cpu  time for SCC    0.00 s
wall time for SCC    0.00 s
speedup  1.06
cpu  time for grad    0.01 s
wall time for grad    0.01 s
 E :    -40.90457351  G :  0.022121    pred/act E change: -0.517D-03 -0.977D-04
Maxdispl :   0.1411   ||displ|| :   0.2090   Lambda : -0.126D-02
Largest |displ|/coords:  0.1411 (   5)  0.0750 (   1)  0.0625 (   8)
................................................................................
.............................. CYCLE   39 ......................................
................................................................................
   1    -41.1066843 -0.411067E+02  0.202E-01    9.19       0.0  T
   2    -41.1066959 -0.115525E-04  0.153E-01    9.19       1.0  T
   3    -41.1067031 -0.720200E-05  0.228E-02    9.19       1.0  T
   4    -41.1067049 -0.183393E-05  0.461E-03    9.19       5.0  T
   5    -41.1067050 -0.380099E-07  0.214E-03    9.19      10.7  T
speedup  1.25
cpu  time for SCC    0.00 s
wall time for SCC    0.00 s
speedup  1.10
cpu  time for grad    0.01 s
wall time for grad    0.01 s
 E :    -40.90525121  G :  0.010149    pred/act E change: -0.790D-03 -0.678D-03
Maxdispl :   0.2275   ||displ|| :   0.2750   Lambda : -0.399D-03
Largest |displ|/coords:  0.2275 (   2)  0.0862 (   3)  0.0849 (   1)
................................................................................
.............................. CYCLE   40 ......................................
................................................................................
   1    -41.1064158 -0.411064E+02  0.106E-01    9.20       0.0  T
   2    -41.1064186 -0.285266E-05  0.799E-02    9.20       1.0  T
   3    -41.1064211 -0.246666E-05  0.128E-02    9.20       1.8  T
   4    -41.1064214 -0.368629E-06  0.487E-03    9.20       4.7  T
   5    -41.1064215 -0.240510E-07  0.140E-03    9.20      16.4  T
   6    -41.1064215 -0.208222E-08  0.833E-04    9.20      27.5  T
speedup  0.81
cpu  time for SCC    0.00 s
wall time for SCC    0.00 s
speedup  0.92
cpu  time for grad    0.01 s
wall time for grad    0.01 s
 E :    -40.90559361  G :  0.008057    pred/act E change: -0.657D-03 -0.342D-03
Maxdispl :   0.4917   ||displ|| :   0.6250   Lambda : -0.795D-03
Largest |displ|/coords:  0.4917 (   2)  0.2321 (   1)  0.2022 (   3)
................................................................................
.............................. CYCLE   41 ......................................
................................................................................
   1    -41.1077283 -0.411077E+02  0.232E-01    9.22       0.0  T
   2    -41.1077428 -0.145765E-04  0.174E-01    9.22       1.0  T
   3    -41.1077537 -0.108540E-04  0.270E-02    9.21       1.0  T
   4    -41.1077558 -0.209806E-05  0.103E-02    9.21       2.2  T
   5    -41.1077559 -0.122963E-06  0.334E-03    9.21       6.9  T
   6    -41.1077559 -0.119099E-07  0.204E-03    9.21      11.2  T
   7    -41.1077559 -0.662487E-08  0.595E-04    9.21      38.6  T
speedup  1.16
cpu  time for SCC    0.00 s
wall time for SCC    0.00 s
speedup  1.06
cpu  time for grad    0.01 s
wall time for grad    0.01 s
 E :    -40.90611058  G :  0.010412    pred/act E change: -0.215D-03 -0.517D-03
Maxdispl :   0.4202   ||displ|| :   0.5759   Lambda : -0.624D-03
Largest |displ|/coords:  0.4202 (   2)  0.2071 (   1)  0.1681 (   3)
................................................................................
.............................. CYCLE   42 ......................................
................................................................................
   1    -41.1042582 -0.411043E+02  0.307E-01    9.23       0.0  T
   2    -41.1042818 -0.235869E-04  0.231E-01    9.23       1.0  T
   3    -41.1042987 -0.168524E-04  0.325E-02    9.22       1.0  T
   4    -41.1043023 -0.361759E-05  0.125E-02    9.22       1.8  T
   5    -41.1043025 -0.224245E-06  0.431E-03    9.22       5.3  T
   6    -41.1043025 -0.168397E-07  0.252E-03    9.22       9.1  T
   7    -41.1043025 -0.128293E-07  0.635E-04    9.22      36.1  T
speedup  0.91
cpu  time for SCC    0.00 s
wall time for SCC    0.00 s
speedup  0.96
cpu  time for grad    0.01 s
wall time for grad    0.01 s
 E :    -40.90631295  G :  0.014657    pred/act E change: -0.553D-03 -0.202D-03
Maxdispl :   0.1546   ||displ|| :   0.2619   Lambda : -0.554D-03
Largest |displ|/coords:  0.1546 (   7)  0.1399 (   1)  0.1162 (   2)
................................................................................
.............................. CYCLE   43 ......................................
................................................................................
   1    -41.1041547 -0.411042E+02  0.215E-01    9.26       0.0  T
   2    -41.1041593 -0.458170E-05  0.161E-01    9.26       1.0  T
   3    -41.1041618 -0.257597E-05  0.133E-02    9.26       1.7  T
   4    -41.1041627 -0.833952E-06  0.465E-03    9.26       4.9  T
   5    -41.1041627 -0.300836E-07  0.199E-03    9.26      11.6  T
   6    -41.1041627 -0.340734E-08  0.116E-03    9.26      19.8  T
speedup  1.08
cpu  time for SCC    0.00 s
wall time for SCC    0.00 s
speedup  1.01
cpu  time for grad    0.01 s
wall time for grad    0.01 s
 E :    -40.90663129  G :  0.014794    pred/act E change: -0.416D-03 -0.318D-03
Maxdispl :   0.1767   ||displ|| :   0.2344   Lambda : -0.618D-03
Largest |displ|/coords:  0.1767 (   1)  0.0754 (   2)  0.0621 (   5)
................................................................................
.............................. CYCLE   44 ......................................
................................................................................
   1    -41.1093650 -0.411094E+02  0.117E-01    9.30       0.0  T
   2    -41.1093747 -0.973810E-05  0.873E-02    9.30       1.0  T
   3    -41.1093802 -0.549421E-05  0.195E-02    9.30       1.2  T
   4    -41.1093814 -0.122207E-05  0.565E-03    9.29       4.1  T
   5    -41.1093815 -0.385847E-07  0.215E-03    9.30      10.7  T
   6    -41.1093815 -0.458550E-08  0.121E-03    9.30      18.9  T
speedup  1.03
cpu  time for SCC    0.00 s
wall time for SCC    0.00 s
speedup  1.00
cpu  time for grad    0.01 s
wall time for grad    0.01 s
 E :    -40.90685797  G :  0.017013    pred/act E change: -0.296D-03 -0.227D-03
Maxdispl :   0.2778   ||displ|| :   0.4303   Lambda : -0.605D-03
Largest |displ|/coords:  0.2778 (   1)  0.2088 (   2)  0.1801 (   7)
................................................................................
.............................. CYCLE   45 ......................................
................................................................................
   1    -41.1071501 -0.411072E+02  0.282E-01    9.32       0.0  T
   2    -41.1071703 -0.201794E-04  0.212E-01    9.31       1.0  T
   3    -41.1071808 -0.105744E-04  0.282E-02    9.31       1.0  T
   4    -41.1071844 -0.355782E-05  0.105E-02    9.31       2.2  T
   5    -41.1071846 -0.203129E-06  0.365E-03    9.31       6.3  T
   6    -41.1071846 -0.112057E-07  0.231E-03    9.31       9.9  T
   7    -41.1071846 -0.939941E-08  0.520E-04    9.31      44.2  T
speedup  0.93
cpu  time for SCC    0.00 s
wall time for SCC    0.00 s
speedup  0.96
cpu  time for grad    0.01 s
wall time for grad    0.01 s
 E :    -40.90737191  G :  0.014914    pred/act E change: -0.326D-03 -0.514D-03
Maxdispl :   0.4062   ||displ|| :   0.5987   Lambda : -0.910D-03
Largest |displ|/coords:  0.4062 (   1)  0.2920 (   2)  0.2016 (   7)
................................................................................
.............................. CYCLE   46 ......................................
................................................................................
   1    -41.1021360 -0.411021E+02  0.370E-01    9.35       0.0  T
   2    -41.1021980 -0.620328E-04  0.278E-01    9.35       1.0  T
   3    -41.1022320 -0.339215E-04  0.518E-02    9.34       1.0  T
   4    -41.1022416 -0.959206E-05  0.179E-02    9.33       1.3  T
   5    -41.1022422 -0.599732E-06  0.602E-03    9.34       3.8  T
   6    -41.1022422 -0.307712E-07  0.374E-03    9.34       6.1  T
   7    -41.1022422 -0.218064E-07  0.874E-04    9.34      26.2  T
   8    -41.1022422 -0.157645E-08  0.236E-04    9.34      97.2  T
speedup  1.02
cpu  time for SCC    0.01 s
wall time for SCC    0.00 s
speedup  0.99
cpu  time for grad    0.01 s
wall time for grad    0.01 s
 E :    -40.90779462  G :  0.025441    pred/act E change: -0.359D-03 -0.423D-03
Maxdispl :   0.1419   ||displ|| :   0.1957   Lambda : -0.983D-03
Largest |displ|/coords:  0.1419 (   1)  0.0654 (   2)  0.0566 (   7)
................................................................................
.............................. CYCLE   47 ......................................
................................................................................
   1    -41.1036683 -0.411037E+02  0.139E-01    9.30       0.0  T
   2    -41.1036859 -0.175545E-04  0.104E-01    9.30       1.0  T
   3    -41.1036965 -0.106401E-04  0.271E-02    9.30       1.0  T
   4    -41.1036985 -0.198270E-05  0.847E-03    9.30       2.7  T
   5    -41.1036986 -0.101004E-06  0.285E-03    9.30       8.0  T
   6    -41.1036986 -0.663779E-08  0.159E-03    9.30      14.4  T
speedup  1.05
cpu  time for SCC    0.00 s
wall time for SCC    0.00 s
speedup  1.01
cpu  time for grad    0.01 s
wall time for grad    0.01 s
 E :    -40.90824150  G :  0.016897    pred/act E change: -0.618D-03 -0.447D-03
Maxdispl :   0.2729   ||displ|| :   0.3859   Lambda : -0.941D-03
Largest |displ|/coords:  0.2729 (   1)  0.1840 (   2)  0.0924 (   5)
................................................................................
.............................. CYCLE   48 ......................................
................................................................................
   1    -41.1047039 -0.411047E+02  0.184E-01    9.27       0.0  T
   2    -41.1047120 -0.803507E-05  0.140E-01    9.26       1.0  T
   3    -41.1047208 -0.881527E-05  0.189E-02    9.26       1.2  T
   4    -41.1047215 -0.706396E-06  0.674E-03    9.26       3.4  T
   5    -41.1047215 -0.497376E-07  0.256E-03    9.26       9.0  T
   6    -41.1047216 -0.797362E-08  0.161E-03    9.26      14.3  T
speedup  1.05
cpu  time for SCC    0.00 s
wall time for SCC    0.00 s
speedup  1.01
cpu  time for grad    0.01 s
wall time for grad    0.01 s
 E :    -40.90881674  G :  0.010868    pred/act E change: -0.511D-03 -0.575D-03
Maxdispl :   0.3100   ||displ|| :   0.4847   Lambda : -0.813D-03
Largest |displ|/coords:  0.3100 (   1)  0.1998 (   2)  0.1239 (   7)
................................................................................
.............................. CYCLE   49 ......................................
................................................................................
   1    -41.1038265 -0.411038E+02  0.267E-01    9.24       0.0  T
   2    -41.1038444 -0.178339E-04  0.202E-01    9.24       1.0  T
   3    -41.1038600 -0.156311E-04  0.266E-02    9.23       1.0  T
   4    -41.1038623 -0.232312E-05  0.103E-02    9.23       2.2  T
   5    -41.1038624 -0.107026E-06  0.382E-03    9.23       6.0  T
   6    -41.1038624 -0.164403E-07  0.230E-03    9.23      10.0  T
   7    -41.1038624 -0.831502E-08  0.510E-04    9.23      45.0  T
speedup  0.89
cpu  time for SCC    0.00 s
wall time for SCC    0.00 s
speedup  0.93
cpu  time for grad    0.01 s
wall time for grad    0.01 s
 E :    -40.90924303  G :  0.012664    pred/act E change: -0.540D-03 -0.426D-03
Maxdispl :   0.1413   ||displ|| :   0.2127   Lambda : -0.430D-03
Largest |displ|/coords:  0.1413 (   1)  0.0649 (   6)  0.0585 (   5)
................................................................................
.............................. CYCLE   50 ......................................
................................................................................
   1    -41.1051912 -0.411052E+02  0.147E-01    9.27       0.0  T
   2    -41.1051995 -0.830955E-05  0.111E-01    9.27       1.0  T
   3    -41.1052068 -0.735921E-05  0.240E-02    9.27       1.0  T
   4    -41.1052078 -0.101135E-05  0.646E-03    9.27       3.6  T
   5    -41.1052079 -0.576696E-07  0.234E-03    9.27       9.8  T
   6    -41.1052079 -0.308376E-08  0.124E-03    9.27      18.4  T
speedup  1.00
cpu  time for SCC    0.00 s
wall time for SCC    0.00 s
speedup  1.09
cpu  time for grad    0.01 s
wall time for grad    0.01 s
 E :    -40.90940275  G :  0.013272    pred/act E change: -0.502D-03 -0.160D-03
Maxdispl :   0.1887   ||displ|| :   0.3072   Lambda : -0.485D-03
Largest |displ|/coords:  0.1887 (   1)  0.1501 (   2)  0.1187 (   3)
................................................................................
.............................. CYCLE   51 ......................................
................................................................................
   1    -41.1026690 -0.411027E+02  0.157E-01    9.28       0.0  T
   2    -41.1026789 -0.984864E-05  0.118E-01    9.28       1.0  T
   3    -41.1026850 -0.611077E-05  0.223E-02    9.28       1.0  T
   4    -41.1026864 -0.140957E-05  0.632E-03    9.28       3.6  T
   5    -41.1026865 -0.672827E-07  0.235E-03    9.28       9.8  T
   6    -41.1026865 -0.375059E-08  0.133E-03    9.28      17.3  T
speedup  1.05
cpu  time for SCC    0.00 s
wall time for SCC    0.00 s
speedup  1.00
cpu  time for grad    0.01 s
wall time for grad    0.01 s
 E :    -40.90957303  G :  0.010755    pred/act E change: -0.225D-03 -0.170D-03
Maxdispl :   0.0784   ||displ|| :   0.1338   Lambda : -0.268D-03
Largest |displ|/coords:  0.0784 (   2)  0.0567 (   8)  0.0482 (   1)
................................................................................
.............................. CYCLE   52 ......................................
................................................................................
   1    -41.1045626 -0.411046E+02  0.976E-02    9.27       0.0  T
   2    -41.1045659 -0.323744E-05  0.733E-02    9.27       1.0  T
   3    -41.1045682 -0.239160E-05  0.121E-02    9.28       1.9  T
   4    -41.1045687 -0.428970E-06  0.312E-03    9.28       7.4  T
   5    -41.1045687 -0.934159E-08  0.138E-03    9.28      16.6  T
   6    -41.1045687 -0.171949E-08  0.675E-04    9.28      34.0  T
speedup  1.08
cpu  time for SCC    0.00 s
wall time for SCC    0.00 s
speedup  1.01
cpu  time for grad    0.01 s
wall time for grad    0.01 s
 E :    -40.90964663  G :  0.009789    pred/act E change: -0.265D-03 -0.736D-04
Maxdispl :   0.1246   ||displ|| :   0.1830   Lambda : -0.273D-03
Largest |displ|/coords:  0.1246 (   1)  0.0484 (   8)  0.0477 (   6)

generating ANC from model Hessian ...
 Shifting diagonal of input Hessian by   5.034230997775057E-003
 Lowest  eigenvalues of input Hessian
    0.005000   -0.000000   -0.000000   -0.000000    0.000000    0.000000
    0.000000    0.005268    0.005549    0.005838    0.006658    0.008187
    0.009294    0.012430    0.014357    0.016215    0.019152    0.020566
 Highest eigenvalues
    1.393163    1.409864    1.432509    2.616959    3.463234    3.517730
 
cpu  time for ANC gen    0.01 s
wall time for ANC gen    0.01 s
................................................................................
.............................. CYCLE   53 ......................................
................................................................................
   1    -41.1047438 -0.411047E+02  0.119E-01    9.26       0.0  T
   2    -41.1047487 -0.489761E-05  0.894E-02    9.26       1.0  T
   3    -41.1047533 -0.460700E-05  0.158E-02    9.26       1.5  T
   4    -41.1047538 -0.497494E-06  0.671E-03    9.25       3.4  T
   5    -41.1047538 -0.412661E-07  0.182E-03    9.25      12.6  T
   6    -41.1047538 -0.322698E-08  0.107E-03    9.25      21.4  T
   7    -41.1047538 -0.104513E-08  0.249E-04    9.25      92.0  T
   8    -41.1047538 -0.153541E-09  0.557E-05    9.25     411.9  T
speedup  1.02
cpu  time for SCC    0.00 s
wall time for SCC    0.00 s
speedup  1.06
cpu  time for grad    0.01 s
wall time for grad    0.01 s
 E :    -40.90970711  G :  0.011354    pred/act E change:  0.000D+00 -0.605D-04
Maxdispl :   0.1103   ||displ|| :   0.1795   Lambda : -0.433D-03
Largest |displ|/coords:  0.1103 (   1)  0.0669 (   7)  0.0602 (   9)
................................................................................
.............................. CYCLE   54 ......................................
................................................................................
   1    -41.1048652 -0.411049E+02  0.153E-01    9.27       0.0  T
   2    -41.1048689 -0.362625E-05  0.116E-01    9.27       1.0  T
   3    -41.1048724 -0.352563E-05  0.136E-02    9.27       1.7  T
   4    -41.1048728 -0.431304E-06  0.413E-03    9.27       5.6  T
   5    -41.1048728 -0.182954E-07  0.170E-03    9.27      13.5  T
   6    -41.1048728 -0.221259E-08  0.766E-04    9.27      29.9  T
speedup  0.79
cpu  time for SCC    0.00 s
wall time for SCC    0.00 s
speedup  1.01
cpu  time for grad    0.01 s
wall time for grad    0.01 s
 E :    -40.91000091  G :  0.007186    pred/act E change:  0.000D+00 -0.294D-03
Maxdispl :   0.2388   ||displ|| :   0.3134   Lambda : -0.430D-03
Largest |displ|/coords:  0.2388 (   1)  0.1007 (   2)  0.1002 (   8)
................................................................................
.............................. CYCLE   55 ......................................
................................................................................
   1    -41.1033166 -0.411033E+02  0.226E-01    9.30       0.0  T
   2    -41.1033241 -0.753939E-05  0.170E-01    9.30       1.0  T
   3    -41.1033315 -0.739766E-05  0.194E-02    9.30       1.2  T
   4    -41.1033324 -0.894299E-06  0.603E-03    9.30       3.8  T
   5    -41.1033325 -0.333682E-07  0.266E-03    9.30       8.6  T
   6    -41.1033325 -0.757713E-08  0.117E-03    9.30      19.7  T
speedup  0.79
cpu  time for SCC    0.00 s
wall time for SCC    0.00 s
speedup  1.00
cpu  time for grad    0.01 s
wall time for grad    0.01 s
 E :    -40.91023952  G :  0.012306    pred/act E change: -0.224D-03 -0.239D-03
Maxdispl :   0.2203   ||displ|| :   0.2779   Lambda : -0.381D-03
Largest |displ|/coords:  0.2203 (   1)  0.1223 (   2)  0.0833 (   4)
................................................................................
.............................. CYCLE   56 ......................................
................................................................................
   1    -41.1041268 -0.411041E+02  0.162E-01    9.30       0.0  T
   2    -41.1041303 -0.348982E-05  0.122E-01    9.30       1.0  T
   3    -41.1041338 -0.347396E-05  0.151E-02    9.30       1.5  T
   4    -41.1041341 -0.327846E-06  0.342E-03    9.30       6.7  T
   5    -41.1041341 -0.109581E-07  0.159E-03    9.30      14.4  T
   6    -41.1041341 -0.261553E-08  0.774E-04    9.30      29.6  T
speedup  1.05
cpu  time for SCC    0.00 s
wall time for SCC    0.00 s
speedup  1.00
cpu  time for grad    0.01 s
wall time for grad    0.01 s
 E :    -40.91054705  G :  0.009310    pred/act E change: -0.236D-03 -0.308D-03
Maxdispl :   0.4872   ||displ|| :   0.6107   Lambda : -0.623D-03
Largest |displ|/coords:  0.4872 (   1)  0.2717 (   2)  0.1982 (   4)
................................................................................
.............................. CYCLE   57 ......................................
................................................................................
   1    -41.1037465 -0.411037E+02  0.328E-01    9.22       0.0  T
   2    -41.1037581 -0.115779E-04  0.245E-01    9.23       1.0  T
   3    -41.1037708 -0.127017E-04  0.315E-02    9.23       1.0  T
   4    -41.1037716 -0.851182E-06  0.757E-03    9.23       3.0  T
   5    -41.1037717 -0.592851E-07  0.303E-03    9.23       7.6  T
   6    -41.1037717 -0.854111E-08  0.164E-03    9.23      14.0  T
   7    -41.1037717 -0.273887E-08  0.390E-04    9.23      58.8  T
speedup  1.14
cpu  time for SCC    0.01 s
wall time for SCC    0.00 s
speedup  1.05
cpu  time for grad    0.01 s
wall time for grad    0.01 s
 E :    -40.91110970  G :  0.010616    pred/act E change: -0.205D-03 -0.563D-03
Maxdispl :   0.6314   ||displ|| :   0.8051   Lambda : -0.852D-03
Largest |displ|/coords:  0.6314 (   1)  0.3744 (   2)  0.2859 (   4)
................................................................................
.............................. CYCLE   58 ......................................
................................................................................
   1    -41.1019637 -0.411020E+02  0.400E-01    9.07       0.0  T
   2    -41.1019805 -0.168266E-04  0.298E-01    9.08       1.0  T
   3    -41.1019986 -0.180684E-04  0.409E-02    9.09       1.0  T
   4    -41.1019999 -0.125438E-05  0.113E-02    9.09       2.0  T
   5    -41.1020000 -0.140690E-06  0.358E-03    9.09       6.4  T
   6    -41.1020000 -0.973021E-08  0.218E-03    9.09      10.5  T
   7    -41.1020000 -0.526739E-08  0.419E-04    9.09      54.7  T
speedup  0.91
cpu  time for SCC    0.00 s
wall time for SCC    0.00 s
speedup  0.93
cpu  time for grad    0.01 s
wall time for grad    0.01 s
 E :    -40.91186967  G :  0.017418    pred/act E change: -0.428D-03 -0.760D-03
Maxdispl :   0.4783   ||displ|| :   0.6903   Lambda : -0.130D-02
Largest |displ|/coords:  0.4783 (   1)  0.3425 (   2)  0.2939 (   4)
................................................................................
.............................. CYCLE   59 ......................................
................................................................................
   1    -41.1117865 -0.411118E+02  0.278E-01    9.07       0.0  T
   2    -41.1118254 -0.388957E-04  0.206E-01    9.08       1.0  T
   3    -41.1118470 -0.216306E-04  0.449E-02    9.08       1.0  T
   4    -41.1118514 -0.435244E-05  0.121E-02    9.08       1.9  T
   5    -41.1118516 -0.245294E-06  0.394E-03    9.08       5.8  T
   6    -41.1118516 -0.770679E-08  0.218E-03    9.08      10.5  T
   7    -41.1118516 -0.536149E-08  0.614E-04    9.08      37.4  T
speedup  1.11
cpu  time for SCC    0.01 s
wall time for SCC    0.00 s
speedup  1.02
cpu  time for grad    0.01 s
wall time for grad    0.01 s
 E :    -40.91217208  G :  0.033771    pred/act E change: -0.702D-03 -0.302D-03
Maxdispl :   0.3661   ||displ|| :   0.4945   Lambda : -0.192D-02
Largest |displ|/coords:  0.3661 (   1)  0.2116 (   4)  0.2014 (   2)
................................................................................
.............................. CYCLE   60 ......................................
................................................................................
   1    -41.1077352 -0.411077E+02  0.265E-01    9.15       0.0  T
   2    -41.1077469 -0.117089E-04  0.197E-01    9.15       1.0  T
   3    -41.1077535 -0.660048E-05  0.281E-02    9.16       1.0  T
   4    -41.1077552 -0.176590E-05  0.884E-03    9.15       2.6  T
   5    -41.1077553 -0.107348E-06  0.290E-03    9.15       7.9  T
   6    -41.1077553 -0.351601E-08  0.170E-03    9.15      13.5  T
speedup  1.05
cpu  time for SCC    0.00 s
wall time for SCC    0.00 s
speedup  0.99
cpu  time for grad    0.01 s
wall time for grad    0.01 s
 E :    -40.91332312  G :  0.024336    pred/act E change: -0.960D-03 -0.115D-02
Maxdispl :   0.2920   ||displ|| :   0.4533   Lambda : -0.121D-02
Largest |displ|/coords:  0.2920 (   1)  0.2503 (   2)  0.1808 (   4)
................................................................................
.............................. CYCLE   61 ......................................
................................................................................
   1    -41.1030612 -0.411031E+02  0.239E-01    9.06       0.0  T
   2    -41.1030766 -0.153813E-04  0.180E-01    9.06       1.0  T
   3    -41.1030938 -0.171612E-04  0.295E-02    9.06       1.0  T
   4    -41.1030951 -0.134019E-05  0.108E-02    9.07       2.1  T
   5    -41.1030952 -0.114207E-06  0.336E-03    9.06       6.8  T
   6    -41.1030952 -0.816047E-08  0.193E-03    9.06      11.9  T
speedup  1.05
cpu  time for SCC    0.00 s
wall time for SCC    0.00 s
speedup  0.99
cpu  time for grad    0.01 s
wall time for grad    0.01 s
 E :    -40.91374312  G :  0.030973    pred/act E change: -0.120D-02 -0.420D-03
Maxdispl :   0.2077   ||displ|| :   0.3734   Lambda : -0.246D-02
Largest |displ|/coords:  0.2077 (   2)  0.1727 (   4)  0.1454 (   8)
................................................................................
.............................. CYCLE   62 ......................................
................................................................................
   1    -41.1056180 -0.411056E+02  0.331E-01    9.30       0.0  T
   2    -41.1056505 -0.325372E-04  0.248E-01    9.29       1.0  T
   3    -41.1056747 -0.242314E-04  0.488E-02    9.28       1.0  T
   4    -41.1056788 -0.404601E-05  0.123E-02    9.28       1.9  T
   5    -41.1056789 -0.166901E-06  0.391E-03    9.28       5.9  T
   6    -41.1056790 -0.580624E-08  0.217E-03    9.28      10.6  T
speedup  1.08
cpu  time for SCC    0.00 s
wall time for SCC    0.00 s
speedup  1.00
cpu  time for grad    0.01 s
wall time for grad    0.01 s
 E :    -40.91443544  G :  0.029970    pred/act E change: -0.727D-03 -0.692D-03
Maxdispl :   0.1994   ||displ|| :   0.3362   Lambda : -0.165D-02
Largest |displ|/coords:  0.1994 (   1)  0.1550 (   5)  0.1157 (   2)
................................................................................
.............................. CYCLE   63 ......................................
................................................................................
   1    -41.1159260 -0.411159E+02  0.203E-01    9.42       0.0  T
   2    -41.1159460 -0.199398E-04  0.150E-01    9.43       1.0  T
   3    -41.1159563 -0.103217E-04  0.331E-02    9.43       1.0  T
   4    -41.1159586 -0.234807E-05  0.854E-03    9.42       2.7  T
   5    -41.1159588 -0.140300E-06  0.294E-03    9.43       7.8  T
   6    -41.1159588 -0.430740E-08  0.165E-03    9.43      13.9  T
speedup  1.05
cpu  time for SCC    0.00 s
wall time for SCC    0.00 s
speedup  0.99
cpu  time for grad    0.01 s
wall time for grad    0.01 s
 E :    -40.91511131  G :  0.019691    pred/act E change: -0.140D-02 -0.676D-03
Maxdispl :   0.1193   ||displ|| :   0.1736   Lambda : -0.601D-03
Largest |displ|/coords:  0.1193 (   5)  0.0736 (   1)  0.0449 (   7)
................................................................................
.............................. CYCLE   64 ......................................
................................................................................
   1    -41.1119885 -0.411120E+02  0.148E-01    9.24       0.0  T
   2    -41.1119931 -0.453711E-05  0.111E-01    9.24       1.0  T
   3    -41.1119967 -0.366396E-05  0.170E-02    9.25       1.4  T
   4    -41.1119973 -0.565822E-06  0.595E-03    9.25       3.9  T
   5    -41.1119973 -0.429102E-07  0.167E-03    9.25      13.8  T
   6    -41.1119973 -0.207957E-08  0.100E-03    9.25      22.8  T
speedup  1.08
cpu  time for SCC    0.00 s
wall time for SCC    0.00 s
speedup  0.99
cpu  time for grad    0.01 s
wall time for grad    0.01 s
 E :    -40.91544784  G :  0.013462    pred/act E change: -0.919D-03 -0.337D-03
Maxdispl :   0.3591   ||displ|| :   0.5688   Lambda : -0.110D-02
Largest |displ|/coords:  0.3591 (   1)  0.2939 (   2)  0.2465 (   4)
................................................................................
.............................. CYCLE   65 ......................................
................................................................................
   1    -41.1164535 -0.411165E+02  0.315E-01    9.49       0.0  T
   2    -41.1164971 -0.435536E-04  0.222E-01    9.48       1.0  T
   3    -41.1165286 -0.315582E-04  0.548E-02    9.46       1.0  T
   4    -41.1165316 -0.299542E-05  0.175E-02    9.46       1.3  T
   5    -41.1165319 -0.281140E-06  0.519E-03    9.46       4.4  T
   6    -41.1165319 -0.247790E-07  0.294E-03    9.46       7.8  T
   7    -41.1165319 -0.118827E-07  0.913E-04    9.46      25.1  T
speedup  0.93
cpu  time for SCC    0.00 s
wall time for SCC    0.00 s
speedup  1.04
cpu  time for grad    0.01 s
[...]
speedup  1.05
cpu  time for grad    0.01 s
wall time for grad    0.01 s
 E :    -40.92070218  G :  0.000823    pred/act E change: -0.122D-05 -0.222D-05
Maxdispl :   0.0387   ||displ|| :   0.0520   Lambda : -0.349D-05
Largest |displ|/coords:  0.0387 (   1)  0.0256 (   8)  0.0121 (   9)
................................................................................
.............................. CYCLE  207 ......................................
................................................................................
   1    -41.1177933 -0.411178E+02  0.624E-02    9.38       0.0  T
   2    -41.1177936 -0.329381E-06  0.470E-02    9.38       1.0  T
   3    -41.1177940 -0.355384E-06  0.427E-03    9.38       5.4  T
   4    -41.1177940 -0.274770E-07  0.137E-03    9.38      16.7  T
   5    -41.1177940 -0.156861E-08  0.502E-04    9.38      45.7  T
   6    -41.1177940 -0.173927E-09  0.278E-04    9.38      82.4  T
speedup  0.81
cpu  time for SCC    0.00 s
wall time for SCC    0.00 s
speedup  0.96
cpu  time for grad    0.01 s
wall time for grad    0.01 s
 E :    -40.92070319  G :  0.001876    pred/act E change: -0.163D-05 -0.100D-05
Maxdispl :   0.0193   ||displ|| :   0.0288   Lambda : -0.371D-05
Largest |displ|/coords:  0.0193 (   1)  0.0082 (   8)  0.0079 (  25)
................................................................................
.............................. CYCLE  208 ......................................
................................................................................
   1    -41.1175671 -0.411176E+02  0.336E-02    9.38       0.0  T
   2    -41.1175673 -0.176005E-06  0.253E-02    9.38       1.0  T
   3    -41.1175673 -0.865646E-07  0.345E-03    9.38       6.6  T
   4    -41.1175674 -0.338509E-07  0.116E-03    9.38      19.8  T
   5    -41.1175674 -0.826432E-09  0.246E-04    9.38      93.1  T
   6    -41.1175674 -0.408491E-10  0.145E-04    9.38     158.7  T
speedup  1.08
cpu  time for SCC    0.00 s
wall time for SCC    0.00 s
speedup  1.06
cpu  time for grad    0.01 s
wall time for grad    0.01 s
 E :    -40.92070566  G :  0.000872    pred/act E change: -0.175D-05 -0.247D-05
Maxdispl :   0.0198   ||displ|| :   0.0257   Lambda : -0.388D-05
Largest |displ|/coords:  0.0198 (   1)  0.0073 (   5)  0.0065 (   4)
................................................................................
.............................. CYCLE  209 ......................................
................................................................................
   1    -41.1176638 -0.411177E+02  0.230E-02    9.38       0.0  T
   2    -41.1176639 -0.718224E-07  0.166E-02    9.38       1.4  T
   3    -41.1176640 -0.427889E-07  0.312E-03    9.38       7.4  T
   4    -41.1176640 -0.584510E-08  0.925E-04    9.38      24.8  T
   5    -41.1176640 -0.858712E-09  0.151E-04    9.38     152.3  T
speedup  0.97
cpu  time for SCC    0.00 s
wall time for SCC    0.00 s
speedup  1.02
cpu  time for grad    0.01 s
wall time for grad    0.01 s
 E :    -40.92070776  G :  0.000908    pred/act E change: -0.186D-05 -0.210D-05
Maxdispl :   0.0743   ||displ|| :   0.0902   Lambda : -0.479D-05
Largest |displ|/coords:  0.0743 (   1)  0.0314 (   8)  0.0241 (   9)
................................................................................
.............................. CYCLE  210 ......................................
................................................................................
   1    -41.1171410 -0.411171E+02  0.103E-01    9.39       0.0  T
   2    -41.1171420 -0.967907E-06  0.782E-02    9.39       1.0  T
   3    -41.1171430 -0.953864E-06  0.628E-03    9.39       3.7  T
   4    -41.1171431 -0.104156E-06  0.262E-03    9.39       8.8  T
   5    -41.1171431 -0.489904E-08  0.797E-04    9.39      28.8  T
   6    -41.1171431 -0.366157E-09  0.445E-04    9.39      51.6  T
speedup  1.08
cpu  time for SCC    0.00 s
wall time for SCC    0.00 s
speedup  0.96
cpu  time for grad    0.01 s
wall time for grad    0.01 s
 E :    -40.92070968  G :  0.001393    pred/act E change: -0.194D-05 -0.192D-05
Maxdispl :   0.0181   ||displ|| :   0.0302   Lambda : -0.337D-05
Largest |displ|/coords:  0.0181 (   1)  0.0121 (   8)  0.0074 (   7)
................................................................................
.............................. CYCLE  211 ......................................
................................................................................
   1    -41.1174817 -0.411175E+02  0.357E-02    9.39       0.0  T
   2    -41.1174819 -0.222016E-06  0.267E-02    9.39       1.0  T
   3    -41.1174820 -0.121558E-06  0.436E-03    9.39       5.3  T
   4    -41.1174821 -0.360908E-07  0.142E-03    9.39      16.2  T
   5    -41.1174821 -0.141930E-08  0.291E-04    9.39      79.0  T
   6    -41.1174821 -0.647375E-10  0.182E-04    9.39     125.7  T
speedup  1.05
cpu  time for SCC    0.00 s
wall time for SCC    0.00 s
speedup  1.05
cpu  time for grad    0.01 s
wall time for grad    0.01 s
 E :    -40.92071143  G :  0.000517    pred/act E change: -0.242D-05 -0.175D-05
Maxdispl :   0.0228   ||displ|| :   0.0291   Lambda : -0.179D-05
Largest |displ|/coords:  0.0228 (   1)  0.0122 (   9)  0.0054 (   8)
................................................................................
.............................. CYCLE  212 ......................................
................................................................................
   1    -41.1174981 -0.411175E+02  0.344E-02    9.39       0.0  T
   2    -41.1174982 -0.889884E-07  0.259E-02    9.39       1.0  T
   3    -41.1174982 -0.811702E-07  0.260E-03    9.39       8.8  T
   4    -41.1174982 -0.991073E-08  0.859E-04    9.39      26.7  T
   5    -41.1174983 -0.470237E-09  0.236E-04    9.39      97.2  T
speedup  0.97
cpu  time for SCC    0.00 s
wall time for SCC    0.00 s
speedup  1.03
cpu  time for grad    0.01 s
wall time for grad    0.01 s
 E :    -40.92071274  G :  0.000579    pred/act E change: -0.169D-05 -0.132D-05
Maxdispl :   0.0259   ||displ|| :   0.0324   Lambda : -0.138D-05
Largest |displ|/coords:  0.0259 (   1)  0.0124 (   9)  0.0073 (   8)
................................................................................
.............................. CYCLE  213 ......................................
................................................................................
   1    -41.1174469 -0.411174E+02  0.369E-02    9.38       0.0  T
   2    -41.1174470 -0.105459E-06  0.278E-02    9.38       1.0  T
   3    -41.1174471 -0.971101E-07  0.249E-03    9.38       9.2  T
   4    -41.1174471 -0.119633E-07  0.894E-04    9.38      25.7  T
   5    -41.1174471 -0.557876E-09  0.264E-04    9.38      86.8  T
speedup  0.94
cpu  time for SCC    0.00 s
wall time for SCC    0.00 s
speedup  1.01
cpu  time for grad    0.01 s
wall time for grad    0.01 s
 E :    -40.92071361  G :  0.000604    pred/act E change: -0.897D-06 -0.873D-06
Maxdispl :   0.0051   ||displ|| :   0.0094   Lambda : -0.527D-06
Largest |displ|/coords:  0.0051 (   1)  0.0036 (   2)  0.0027 (   9)
................................................................................
.............................. CYCLE  214 ......................................
................................................................................
   1    -41.1174640 -0.411175E+02  0.953E-03    9.38       0.0  T
   2    -41.1174640 -0.155201E-07  0.714E-03    9.38       3.2  T
   3    -41.1174640 -0.592019E-08  0.111E-03    9.38      20.7  T
   4    -41.1174640 -0.294779E-08  0.371E-04    9.38      61.9  T
   5    -41.1174640 -0.841567E-10  0.667E-05    9.38     343.7  T
speedup  0.97
cpu  time for SCC    0.00 s
wall time for SCC    0.00 s
speedup  1.00
cpu  time for grad    0.01 s
wall time for grad    0.01 s
 E :    -40.92071399  G :  0.000315    pred/act E change: -0.690D-06 -0.371D-06
Maxdispl :   0.0093   ||displ|| :   0.0131   Lambda : -0.367D-06
Largest |displ|/coords:  0.0093 (   1)  0.0049 (   2)  0.0037 (   8)
................................................................................
.............................. CYCLE  215 ......................................
................................................................................
   1    -41.1174193 -0.411174E+02  0.128E-02    9.38       0.0  T
   2    -41.1174193 -0.154039E-07  0.961E-03    9.38       2.4  T
   3    -41.1174193 -0.124072E-07  0.917E-04    9.38      25.0  T
   4    -41.1174193 -0.211148E-08  0.378E-04    9.38      60.6  T
speedup  1.15
cpu  time for SCC    0.00 s
wall time for SCC    0.00 s
speedup  0.96
cpu  time for grad    0.01 s
wall time for grad    0.01 s
 E :    -40.92071422  G :  0.000271    pred/act E change: -0.263D-06 -0.234D-06
Maxdispl :   0.0024   ||displ|| :   0.0041   Lambda : -0.178D-06
Largest |displ|/coords:  0.0024 (   2)  0.0015 (   5)  0.0013 (   7)
................................................................................
.............................. CYCLE  216 ......................................
................................................................................
   1    -41.1174193 -0.411174E+02  0.446E-03    9.38       0.0  T
   2    -41.1174193 -0.322321E-08  0.318E-03    9.38       7.2  T
   3    -41.1174193 -0.260972E-08  0.618E-04    9.38      37.1  T
   4    -41.1174193 -0.226414E-09  0.161E-04    9.38     142.5  T
speedup  1.15
cpu  time for SCC    0.00 s
wall time for SCC    0.00 s
speedup  1.08
cpu  time for grad    0.01 s
wall time for grad    0.01 s
 E :    -40.92071434  G :  0.000191    pred/act E change: -0.183D-06 -0.119D-06
Maxdispl :   0.0058   ||displ|| :   0.0085   Lambda : -0.139D-06
Largest |displ|/coords:  0.0058 (   1)  0.0030 (   7)  0.0029 (   2)
................................................................................
.............................. CYCLE  217 ......................................
................................................................................
   1    -41.1173893 -0.411174E+02  0.845E-03    9.38       0.0  T
   2    -41.1173893 -0.737082E-08  0.629E-03    9.38       3.6  T
   3    -41.1173893 -0.684565E-08  0.871E-04    9.38      26.3  T
   4    -41.1173893 -0.683713E-09  0.220E-04    9.38     104.4  T
speedup  1.15
cpu  time for SCC    0.00 s
wall time for SCC    0.00 s
speedup  0.98
cpu  time for grad    0.01 s
wall time for grad    0.01 s
 E :    -40.92071442  G :  0.000200    pred/act E change: -0.891D-07 -0.861D-07
Maxdispl :   0.0015   ||displ|| :   0.0026   Lambda : -0.557D-07
Largest |displ|/coords:  0.0015 (   1)  0.0011 (   7)  0.0009 (   6)

   *** GEOMETRY OPTIMIZATION CONVERGED AFTER 217 ITERATIONS ***

------------------------------------------------------------------------
 total energy gain (kcal):     -0.0743
------------------------------------------------------------------------
================
 final structure:
================
$coord
       -2.51505394815203       -1.06707435738713        0.61440555265274      S 
       -0.81174330855949       -0.22790335959682        2.57610262194632      O 
       -4.67670344683704        0.55926232457159        0.24465359980659      O 
       -1.12794078732584       -1.49341993602918       -1.76862356411750      O 
       -3.57345895862062       -3.74007491961135        1.42112645511234      O 
       -5.17060334690571       -3.83881293131734        0.59457461859196      H 
       -1.92526191598478        4.65771407008758        0.57902809189129      O 
       -1.41197910404583        4.55823264056559        2.31978542645294      H 
       -3.24707720834655        3.35708109405736        0.39045829284369      H 
        3.94679925678401        0.56807537799304        1.39911410050486      O 
        2.38108331677313        0.23686743599628        2.34963481907878      H 
        4.35756821709081       -1.07681711923502        0.65197462968936      H 
        3.37605887150402       -3.73663755963263       -1.14963546850312      O 
        3.91817909796060       -4.44470902915037       -2.72592143762365      H 
        1.62003526199073       -3.21044324818663       -1.38217856345575      H 
        1.45168907015164        2.49138684078894       -2.05819642620438      O 
        2.79888023818711        1.85258025673340       -0.61377618406766      H 
        0.39775193283991        0.88251480856006       -2.30987210129255      H 
        0.21177674251812        3.67217761059917       -1.13265448229713      H 
$end
 
 Bond Distances (Angstroems)
 ---------------------------
S1-O2=1.4447         S1-O3=1.4448         S1-O4=1.4765         S1-O5=1.5801         O2-S1=1.4447         O3-S1=1.4448         
O4-S1=1.4765         O5-S1=1.5801         O5-H6=0.9531         H6-O5=0.9531         O7-H8=0.9618         O7-H9=0.9864         
H8-O7=0.9618         H9-O7=0.9864         O10-H11=0.9850       O10-H12=0.9804       H11-O10=0.9850       H12-O10=0.9804       
O13-H14=0.9584       O13-H15=0.9778       H14-O13=0.9584       H15-O13=0.9778       O16-H17=1.0985       O16-H18=1.0265       
O16-H19=1.0300       H17-O16=1.0985       H18-O16=1.0265       H19-O16=1.0300       
 O  H  Rav=0.9958 sigma=0.0422  Rmin=0.9531  Rmax=1.0985    10
 S  O  Rav=1.4865 sigma=0.0556  Rmin=1.4447  Rmax=1.5801     4
 
 selected bond angles (degree)
 --------------------
O3-S1-O2=114.09                O4-S1-O2=110.52                O4-S1-O3=111.65                O5-S1-O2=107.59                
O5-S1-O3=106.81                O5-S1-O4=105.68                H6-O5-S1=103.85                H9-O7-H8=105.01                
H12-O10-H11=103.56             
 
 selected dihedral angles (degree)
 ---------------------------------
H6-O5-S1-O2=153.39            H6-O5-S1-O3= 30.50            H6-O5-S1-O4=271.48            
 
 CMA Distance (Angstroems)
 ---------------------------
R(CMA):  2.5517

========================================================================
 FINAL SINGLEPOINT CALCULATION ON OPTIMIZED GEOMETRY
========================================================================

 Ncao       : 52
 Nao        : 51
 Nshell     : 29
 Nel        : 64
 T(el)      :   300.0
 intcut     :    25.0
 scfconv/Eh :  0.100E-05
   qconv/e  :  0.100E-03
 intneglect :  0.100E-07
 broydamp   :      0.250
 iter      E             dE          RMSdq      gap      omega  full diag
   1    -41.1173893 -0.411174E+02  0.107E-04    9.38       0.0  T
   2    -41.1173893 -0.346034E-11  0.675E-05    9.38     340.0  T
   3    -41.1173893 -0.197531E-11  0.981E-06    9.38    2339.5  T
speedup  1.11
cpu  time for SCC    0.00 s
wall time for SCC    0.00 s

   *** convergence criteria satisfied after 3 iterations ***

          eigenvalues
 #    :          20         21         22         23         24         25         26         27
 occ. :        2.000      2.000      2.000      2.000      2.000      2.000      2.000      2.000
 eps  :       -14.556    -14.298    -13.982    -13.716    -12.952    -12.849    -12.821    -12.792
 #    :          28         29         30         31         32         33         34         35
 occ. :        2.000      2.000      2.000      2.000      2.000      0.000      0.000      0.000
 eps  :       -12.574    -12.420    -12.324    -12.302    -12.101     -2.717     -0.767     -0.402
 #    :          36         37         38         39         40         41         42         43
 occ. :        0.000      0.000      0.000      0.000      0.000      0.000      0.000      0.000
 eps  :         0.542      0.765      1.523      2.938      4.010      4.264      5.863      6.646


   #   Z            q   n(s)   n(p)   n(d)      C6AA      α(0)
   1  16 S      1.682  1.584  1.783  0.951    89.185    15.895
   2   8 O     -0.727  1.759  4.968  0.000    29.458     7.277
   3   8 O     -0.736  1.775  4.961  0.000    29.708     7.308
   4   8 O     -0.761  1.778  4.983  0.000    30.411     7.394
   5   8 O     -0.581  1.747  4.834  0.000    24.703     6.710
   6   1 H      0.351  0.649  0.000  0.000     0.579     1.191
   7   8 O     -0.597  1.740  4.857  0.000    25.112     6.764
   8   1 H      0.310  0.690  0.000  0.000     0.691     1.306
   9   1 H      0.333  0.667  0.000  0.000     0.631     1.248
  10   8 O     -0.583  1.753  4.831  0.000    24.745     6.716
  11   1 H      0.343  0.657  0.000  0.000     0.605     1.222
  12   1 H      0.346  0.654  0.000  0.000     0.599     1.216
  13   8 O     -0.613  1.742  4.872  0.000    25.507     6.816
  14   1 H      0.288  0.712  0.000  0.000     0.758     1.367
  15   1 H      0.318  0.682  0.000  0.000     0.670     1.286
  16   8 O     -0.513  1.732  4.781  0.000    23.105     6.492
  17   1 H      0.390  0.610  0.000  0.000     0.498     1.106
  18   1 H      0.373  0.627  0.000  0.000     0.537     1.151
  19   1 H      0.378  0.622  0.000  0.000     0.528     1.142

 Mol. C6AA /au·bohr⁶  :       3381.757203
 Mol. C8AA /au·bohr⁸  :      76585.183666
 Mol. α(0) /au        :         83.605474

 
 Wiberg/Mayer (AO) data. WBOs > 0.1 written file <wbo>
 largest (>0.05) Wiberg bond orders for each atom
           total WBO             WBO to atom ...
     1  S   4.853    O    2 1.360    O    3 1.338    O    4 1.209    O    5 0.907
     2  O   1.732    S    1 1.360    O    3 0.111    O    4 0.111    O    5 0.065    H   11 0.053
     3  O   1.733    S    1 1.338    O    2 0.111    O    4 0.104    O    5 0.078    H    9 0.065
     4  O   1.735    S    1 1.209    H   18 0.124    O    2 0.111    O    3 0.104    O    5 0.068    H   15 0.052
     5  O   1.984    S    1 0.907    H    6 0.860    O    3 0.078    O    4 0.068    O    2 0.065
     6  H   0.877    O    5 0.860
     7  O   1.945    H    8 0.899    H    9 0.818    H   19 0.138    O   16 0.052
     8  H   0.904    O    7 0.899
     9  H   0.889    O    7 0.818    O    3 0.065
    10  O   2.035    H   12 0.832    H   11 0.825    H   17 0.244    O   16 0.078
    11  H   0.882    O   10 0.825    O    2 0.053
    12  H   0.881    O   10 0.832
    13  O   1.849    H   14 0.911    H   15 0.844
    14  H   0.917    O   13 0.911
    15  H   0.899    O   13 0.844    O    4 0.052
    16  O   2.232    H   18 0.728    H   19 0.716    H   17 0.600    O   10 0.078    O    7 0.052
    17  H   0.848    O   16 0.600    O   10 0.244
    18  H   0.861    O   16 0.728    O    4 0.124
    19  H   0.857    O   16 0.716    O    7 0.138
 MOs/occ written to file <molden.input>
 
molecular dipole:
                 x           y           z       tot (Debye)
 q only:        0.723       0.203      -0.566
   full:       -0.020      -0.520      -0.480       1.800
molecular quadrupole (traceless):
                xx          xy          yy          xz          yz          zz
 q only:       -1.073       4.317       1.490      -2.933       4.814      -0.417
  q+dip:       -0.614       4.903       0.181      -4.149       7.829       0.433
   full:       -0.422       5.168       0.243      -4.208       7.907       0.179

SCC energy    :     -41.1173893
rep           :       0.1965921
ES            :       0.1990951
AES           :      -0.0552492
AXC           :      -0.0102782
disp          :      -0.0141592
XB            :       0.0000000
fix           :       0.0000000
total E       :     -40.9207144
atomizationE  :       3.7149016     2331.14
(atE without considering molecular charge,
 total energy contains solvation terms)
H-L gap (eV)  :          9.3835
optimized geometry written to: xtbopt.xyz


------------------------------------------------------------------------
 * finished run on 2019/09/03 at 12:39:17.671     
------------------------------------------------------------------------
 total:
 * wall-time:     0 d,  0 h,  0 min,  3.146 sec
 *  cpu-time:     0 d,  0 h,  0 min,  3.099 sec
 * ratio c/w:     0.985 speedup
 SCF:
 * wall-time:     0 d,  0 h,  0 min,  0.095 sec
 *  cpu-time:     0 d,  0 h,  0 min,  0.090 sec
 * ratio c/w:     0.952 speedup
 ANC optimizer:
 * wall-time:     0 d,  0 h,  0 min,  3.029 sec
 *  cpu-time:     0 d,  0 h,  0 min,  2.988 sec
 * ratio c/w:     0.986 speedup

