      -----------------------------------------------------------      
     |                   =====================                   |     
     |                           x T B                           |     
     |                   =====================                   |     
     |                         S. Grimme                         |     
     |          Mulliken Center for Theoretical Chemistry        |     
     |                    University of Bonn                     |     
     |                 Version 6.0.1 (SAW181210)                 |     
      -----------------------------------------------------------      

   This program is distributed in the hope that it will be useful,
   but WITHOUT ANY WARRANTY; without even the implied warranty of
   MERCHANTABILITY or FITNESS FOR A PARTICULAR PURPOSE.
   
   FOR NON-COMMERCIAL, ACADEMIA USE ONLY.
   
   Cite this work as:
   S. Grimme, C. Bannwarth, P. Shushkov, J. Comput. Theory Chem., 2017,
   13, 1989-2009.
   C. Bannwarth, S. Ehlert and S. Grimme., ChemRxiv, 2018, preprint.
   http://doi.org/10.26434/chemrxiv.7246238.v1
   
   for sTDA-xTB:
   S. Grimme and C. Bannwarth, J. Chem. Phys., 2016, 145, 054103.
   
   in the mass-spec context:
   V. Asgeirsson, C. Bauer and S. Grimme, Chem. Sci., 2017, 8, 4879.
   
   if GBSA is used:
   P. Shushkov, F. März and S. Grimme, unpublished.
   
   for ANC optimizer:
   S. Grimme, unpublished.
   Rational Function algorithm used in ANCopt:
   F. Eckert, P. Pulay, H.-J. Werner, J. Comput. Chem., 1997, 18, 1473.
   
   with help from (in alphabetical order)
   C. Bannwarth, F. Bohle, G. Brandenburg, E. Caldeweyher, M. Checinski,
   S. Dohm, S. Ehlert, S. Ehrlich, F. März, H. Neugebauer, J. Pisarek,
   P. Pracht, P. Shushkov, and S. Spicher.
   
 * started run on 2019/09/03 at 12:41:27.703     
========================================================================
 # omp threads = 1
========================================================================
number of atoms            : 19
number of electrons        : 64
charge                     : 0
spin                       : .0
first test random number   : .5979

########################################################################
# WARNING! Please study the warnings concerning your input carefully
#  - XTBPATH is not set, using XTBHOME instead
#  - the use of '-opt' is discouraged, please use '--opt' next time
#  - the use of '-chrg' is discouraged, please use '--chrg' next time
#  - the use of '-uhf' is discouraged, please use '--uhf' next time
########################################################################

           ------------------------------------------------- 
          |                 G F N 2 - x T B                 |
          | Geometry, Frequencies, Noncovalent interactions |
          |            JCTC 2018 parametrisation            |
           ------------------------------------------------- 
      method parameters     
 k(s)        :  1.8500
 k(p)        :  2.2300
 k(d)        :  2.2300
 k(f)        :  2.0000
 kEN (H0ij)  : -2.0000
 D4 a1       :  0.5200
 D4 a2       :  5.0000
 D4 s6       :  1.0000
 D4 s8       :  2.7000
 D4 s9       :  5.0000
 alphaj      :  2.0000


            Z     q(EN)     CN     RAES       Cart. coordinates
     1  S   6.0    0.64    4.30    4.24    -0.43625    -1.40667    -4.62353
     2  O   6.0   -0.27    1.11    1.80     1.98961    -1.11912    -6.02376
     3  O   6.0   -0.33    1.27    1.80     0.09641    -1.70664    -1.87500
     4  O   6.0   -0.28    1.14    1.80    -2.02939     0.87969    -5.02674
     5  O   6.0   -0.24    2.08    1.84    -1.78292    -3.64946    -5.55566
     6  H   1.0    0.15    1.21    1.47    -0.75711    -5.12307    -5.29624
     7  O   6.0   -0.28    1.98    1.82     4.25021     0.15534     1.32219
     8  H   1.0    0.15    0.97    1.43     5.63582    -0.07092     0.16309
     9  H   1.0    0.16    1.00    1.43     2.77410    -0.42221     0.42658
    10  O   6.0   -0.25    1.93    1.82     3.77954    -2.13020     5.92947
    11  H   1.0    0.16    1.02    1.43     4.11047    -1.04561     4.50512
    12  H   1.0    0.15    0.97    1.43     4.40052    -1.22247     7.38034
    13  O   6.0   -0.29    2.03    1.83    -4.97859     2.51038     2.89129
    14  H   1.0    0.15    0.97    1.43    -6.03623     1.08121     3.28310
    15  H   1.0    0.15    0.97    1.43    -5.08241     3.59948     4.34652
    16  O   6.0   -0.21    2.92    2.58    -1.19631     2.64115    -0.28276
    17  H   1.0    0.14    1.06    1.44    -2.70643     2.72432     0.81381
    18  H   1.0    0.15    1.11    1.45    -0.52288     0.90375    -0.41674
    19  H   1.0    0.14    0.98    1.43    -1.50817     3.40105    -1.96109

  Z AO/shell   Hii/eV     exponent
  1     Wed Apr 25 08:07:45 CEST 2018   EN: 2.200 GM2: 0.406  GM3: 0.0800  RAES: 1.40
     1s    -10.707211    1.230000
  8     Wed Apr 25 08:07:45 CEST 2018   EN: 3.440 GM2: 0.452  GM3:-0.0517  RAES: 1.80
     2s    -20.229985    2.439742
     2p    -15.503117    2.137023
 16     Tue Apr 24 11:44:34 CEST 2018   EN: 2.580 GM2: 0.340  GM3:-0.0502  RAES: 3.10
     3s    -20.029654    1.981333
     3p    -11.377694    2.025643
     3d     -0.420282    1.702555
 no old-style atom pair restraining (fixing) potential

molecular fragmentation (1/2 indicates fragments):
1111112222222222222
# atoms in fragment 1/2:     6    13
 fragment masses (1/2) :       97.07       73.07
CMA distance (Bohr)    :   7.446
constraining FC (au)   :  0.0500
           ------------------------------------------------- 
          |        Self-Consistent Charge Iterations        |
           ------------------------------------------------- 

 Ncao       : 52
 Nao        : 51
 Nshell     : 29
 Nel        : 64
 T(el)      :   300.0
 intcut     :    25.0
 scfconv/Eh :  0.100E-05
   qconv/e  :  0.100E-03
 intneglect :  0.100E-07
 broydamp   :      0.250
 iter      E             dE          RMSdq      gap      omega  full diag
   1    -40.9692653 -0.409693E+02  0.770E+00   10.62       0.0  T
   2    -41.0150254 -0.457601E-01  0.555E+00    9.94       1.0  T
   3    -41.0480226 -0.329971E-01  0.156E+00    7.98       1.0  T
   4    -41.0528283 -0.480570E-02  0.610E-01    8.06       1.0  T
   5    -41.0533177 -0.489449E-03  0.371E-01    7.89       1.0  T
   6    -41.0537526 -0.434881E-03  0.160E-01    7.90       1.0  T
   7    -41.0538563 -0.103689E-03  0.625E-02    7.98       1.0  T
   8    -41.0538698 -0.135690E-04  0.338E-02    7.98       1.0  T
   9    -41.0538736 -0.370292E-05  0.167E-02    7.98       1.4  T
  10    -41.0538749 -0.137758E-05  0.283E-03    7.98       8.1  T
  11    -41.0538749 -0.181231E-07  0.122E-03    7.98      18.7  T
  12    -41.0538750 -0.459252E-08  0.476E-04    7.98      48.2  T
  13    -41.0538750 -0.580229E-09  0.234E-04    7.98      98.0  T
speedup  0.96
cpu  time for SCC    0.01 s
wall time for SCC    0.01 s

   *** convergence criteria satisfied after 13 iterations ***

          eigenvalues
 #    :          20         21         22         23         24         25         26         27
 occ. :        2.000      2.000      2.000      2.000      2.000      2.000      2.000      2.000
 eps  :       -14.134    -13.769    -12.968    -12.906    -12.566    -11.966    -11.851    -11.442
 #    :          28         29         30         31         32         33         34         35
 occ. :        2.000      2.000      2.000      2.000      2.000      0.000      0.000      0.000
 eps  :       -11.197    -11.100    -10.927    -10.419    -10.193     -2.216     -1.019      0.232
 #    :          36         37         38         39         40         41         42         43
 occ. :        0.000      0.000      0.000      0.000      0.000      0.000      0.000      0.000
 eps  :         0.781      1.385      1.633      2.294      4.076      4.181      4.823      5.609


   #   Z            q   n(s)   n(p)   n(d)      C6AA      α(0)
   1  16 S      1.535  1.588  1.880  0.997    92.606    16.197
   2   8 O     -0.728  1.783  4.945  0.000    29.481     7.280
   3   8 O     -0.774  1.770  5.004  0.000    30.792     7.440
   4   8 O     -0.734  1.768  4.966  0.000    29.654     7.301
   5   8 O     -0.534  1.716  4.819  0.000    23.637     6.563
   6   1 H      0.358  0.642  0.000  0.000     0.561     1.172
   7   8 O     -0.595  1.736  4.858  0.000    25.057     6.756
   8   1 H      0.293  0.707  0.000  0.000     0.743     1.354
   9   1 H      0.314  0.686  0.000  0.000     0.679     1.295
  10   8 O     -0.602  1.748  4.853  0.000    25.231     6.779
  11   1 H      0.312  0.688  0.000  0.000     0.687     1.302
  12   1 H      0.263  0.737  0.000  0.000     0.844     1.443
  13   8 O     -0.572  1.720  4.852  0.000    24.517     6.683
  14   1 H      0.316  0.684  0.000  0.000     0.674     1.290
  15   1 H      0.311  0.689  0.000  0.000     0.688     1.303
  16   8 O     -0.403  1.636  4.767  0.000    20.848     6.167
  17   1 H      0.413  0.587  0.000  0.000     0.461     1.066
  18   1 H      0.417  0.583  0.000  0.000     0.455     1.060
  19   1 H      0.408  0.592  0.000  0.000     0.470     1.077

 Mol. C6AA /au·bohr⁶  :       3368.225786
 Mol. C8AA /au·bohr⁸  :      76498.353429
 Mol. α(0) /au        :         83.527513

 
 Wiberg/Mayer (AO) data. WBOs > 0.1 written file <wbo>
 largest (>0.05) Wiberg bond orders for each atom
           total WBO             WBO to atom ...
     1  S   4.976    O    2 1.369    O    4 1.356    O    3 1.225    O    5 1.002
     2  O   1.684    S    1 1.369    O    4 0.121    O    3 0.111    O    5 0.081
     3  O   1.698    S    1 1.225    H   18 0.114    O    2 0.111    O    4 0.110    O    5 0.066
     4  O   1.690    S    1 1.356    O    2 0.121    O    3 0.110    O    5 0.055
     5  O   2.055    S    1 1.002    H    6 0.847    O    2 0.081    O    3 0.066    O    4 0.055
     6  H   0.872    O    5 0.847
     7  O   1.858    H    8 0.910    H    9 0.874
     8  H   0.914    O    7 0.910
     9  H   0.901    O    7 0.874
    10  O   1.816    H   12 0.930    H   11 0.864
    11  H   0.903    O   10 0.864
    12  H   0.931    O   10 0.930
    13  O   1.900    H   15 0.899    H   14 0.894    H   17 0.080
    14  H   0.900    O   13 0.894
    15  H   0.903    O   13 0.899
    16  O   2.340    H   19 0.806    H   17 0.744    H   18 0.700
    17  H   0.829    O   16 0.744    O   13 0.080
    18  H   0.826    O   16 0.700    O    3 0.114
    19  H   0.833    O   16 0.806
 MOs/occ written to file <molden.input>
 
molecular dipole:
                 x           y           z       tot (Debye)
 q only:       -1.977       1.687       2.884
   full:       -2.269       1.165       2.665       9.377
molecular quadrupole (traceless):
                xx          xy          yy          xz          yz          zz
 q only:        9.836      -2.323      11.700      -8.884      12.740     -21.536
  q+dip:       10.976      -1.773       9.924     -10.589      18.804     -20.900
   full:       10.632      -1.451      10.171     -10.518      19.109     -20.803

SCC energy    :     -41.0538750
rep           :       0.2163976
ES            :       0.2546072
AES           :      -0.0418763
AXC           :      -0.0107770
disp          :      -0.0100320
XB            :       0.0000000
fix           :       0.0000000
total E       :     -40.8374138
atomizationE  :       3.6316010     2278.86
(atE without considering molecular charge,
 total energy contains solvation terms)
H-L gap (eV)  :          7.9767
           ------------------------------------------------- 
          |                 ===============                 |
          |                   A N C O P T                   |
          |                 ===============                 |
          |          Approximate Normal Coordinate          |
          |           Rational Function Optimizer           |
           ------------------------------------------------- 
dumping coords to <xtbopt.coord> and <xtbopt.log>
 optlevel               2
 Maxcycle             380
 Maxmicro              25
 Econv         1.000000000000000E-007
 Gconv         2.000000000000000E-004
 Maxdispl       1.00000000000000     
 Hlow          5.000000000000000E-003
 S6             20.0000000000000     
 Nvar               51

generating ANC from model Hessian ...
 Shifting diagonal of input Hessian by   6.404977988154393E-003
 Lowest  eigenvalues of input Hessian
    0.005000    0.006322    0.006349   -0.000000   -0.000000    0.000000
    0.000000    0.000000    0.000000    0.006436    0.006570    0.006678
    0.006864    0.006904    0.007012    0.007336    0.007864    0.009278
 Highest eigenvalues
    1.452003    1.557414    1.565745    3.133550    3.212664    3.307953
 
cpu  time for ANC gen    0.00 s
wall time for ANC gen    0.00 s
................................................................................
.............................. CYCLE    1 ......................................
................................................................................
   1    -41.0538750 -0.410539E+02  0.923E-05    7.98       0.0  T
   2    -41.0538750 -0.120153E-10  0.720E-05    7.98     318.7  T
   3    -41.0538750 -0.104592E-10  0.422E-05    7.98     543.2  T
speedup  0.95
cpu  time for SCC    0.00 s
wall time for SCC    0.00 s
speedup  1.00
cpu  time for grad    0.01 s
wall time for grad    0.01 s
 E :    -40.83741372  G :  0.177771    pred/act E change:  0.000D+00  0.381D-07
Maxdispl :   0.2449   ||displ|| :   0.4889   Lambda : -0.235D-01
Largest |displ|/coords:  0.2449 (  15)  0.2028 (  14)  0.1537 (   1)
................................................................................
.............................. CYCLE    2 ......................................
................................................................................
   1    -41.0655898 -0.410656E+02  0.548E-01    8.37       0.0  T
   2    -41.0657719 -0.182119E-03  0.415E-01    8.47       1.0  T
   3    -41.0658384 -0.664278E-04  0.131E-01    8.63       1.0  T
   4    -41.0658595 -0.211188E-04  0.294E-02    8.62       1.0  T
   5    -41.0658610 -0.151545E-05  0.937E-03    8.61       2.4  T
   6    -41.0658611 -0.937151E-07  0.436E-03    8.61       5.3  T
   7    -41.0658611 -0.443447E-07  0.239E-03    8.61       9.6  T
speedup  0.93
cpu  time for SCC    0.00 s
wall time for SCC    0.00 s
speedup  1.02
cpu  time for grad    0.01 s
wall time for grad    0.01 s
 E :    -40.85670224  G :  0.127054    pred/act E change:  0.000D+00 -0.193D-01
Maxdispl :   0.3414   ||displ|| :   0.4654   Lambda : -0.155D-01
Largest |displ|/coords:  0.3414 (  15)  0.1459 (  14)  0.1431 (  13)
................................................................................
.............................. CYCLE    3 ......................................
................................................................................
   1    -41.0769566 -0.410770E+02  0.419E-01    8.79       0.0  T
   2    -41.0772170 -0.260460E-03  0.311E-01    8.87       1.0  T
   3    -41.0773234 -0.106354E-03  0.131E-01    8.99       1.0  T
   4    -41.0773348 -0.114501E-04  0.333E-02    8.99       1.0  T
   5    -41.0773374 -0.250935E-05  0.955E-03    8.98       2.4  T
   6    -41.0773375 -0.126397E-06  0.475E-03    8.98       4.8  T
   7    -41.0773375 -0.657177E-07  0.261E-03    8.98       8.8  T
speedup  0.93
cpu  time for SCC    0.00 s
wall time for SCC    0.00 s
speedup  0.90
cpu  time for grad    0.01 s
wall time for grad    0.01 s
 E :    -40.86889115  G :  0.081618    pred/act E change: -0.146D-01 -0.122D-01
Maxdispl :   0.2202   ||displ|| :   0.3814   Lambda : -0.800D-02
Largest |displ|/coords:  0.2202 (  15)  0.1380 (  14)  0.1024 (  20)
................................................................................
.............................. CYCLE    4 ......................................
................................................................................
   1    -41.0774770 -0.410775E+02  0.362E-01    8.86       0.0  T
   2    -41.0777017 -0.224648E-03  0.270E-01    8.83       1.0  T
   3    -41.0777965 -0.948137E-04  0.113E-01    8.77       1.0  T
   4    -41.0778068 -0.103630E-04  0.275E-02    8.76       1.0  T
   5    -41.0778086 -0.173288E-05  0.809E-03    8.76       2.8  T
   6    -41.0778087 -0.798478E-07  0.387E-03    8.76       5.9  T
   7    -41.0778087 -0.397370E-07  0.197E-03    8.76      11.7  T
speedup  0.91
cpu  time for SCC    0.00 s
wall time for SCC    0.00 s
speedup  1.00
cpu  time for grad    0.01 s
wall time for grad    0.01 s
 E :    -40.87459391  G :  0.051751    pred/act E change: -0.942D-02 -0.570D-02
Maxdispl :   0.1186   ||displ|| :   0.2694   Lambda : -0.377D-02
Largest |displ|/coords:  0.1186 (  15)  0.0908 (  20)  0.0769 (   1)
................................................................................
.............................. CYCLE    5 ......................................
................................................................................
   1    -41.0837822 -0.410838E+02  0.318E-01    8.61       0.0  T
   2    -41.0838482 -0.660031E-04  0.242E-01    8.59       1.0  T
   3    -41.0838755 -0.272434E-04  0.596E-02    8.55       1.0  T
   4    -41.0838849 -0.941753E-05  0.198E-02    8.55       1.2  T
   5    -41.0838856 -0.681261E-06  0.491E-03    8.56       4.7  T
   6    -41.0838856 -0.279780E-07  0.244E-03    8.56       9.4  T
speedup  0.83
cpu  time for SCC    0.00 s
wall time for SCC    0.00 s
speedup  0.98
cpu  time for grad    0.01 s
wall time for grad    0.01 s
 E :    -40.87691092  G :  0.029084    pred/act E change: -0.458D-02 -0.232D-02
Maxdispl :   0.1997   ||displ|| :   0.3862   Lambda : -0.344D-02
Largest |displ|/coords:  0.1997 (   1)  0.1964 (  10)  0.0989 (  15)
................................................................................
.............................. CYCLE    6 ......................................
................................................................................
   1    -41.0836912 -0.410837E+02  0.358E-01    8.35       0.0  T
   2    -41.0838031 -0.111961E-03  0.270E-01    8.33       1.0  T
   3    -41.0838437 -0.405106E-04  0.783E-02    8.28       1.0  T
   4    -41.0838559 -0.122230E-04  0.249E-02    8.29       1.0  T
   5    -41.0838566 -0.733320E-06  0.546E-03    8.29       4.2  T
   6    -41.0838567 -0.395740E-07  0.253E-03    8.29       9.1  T
speedup  1.03
cpu  time for SCC    0.00 s
wall time for SCC    0.00 s
speedup  1.06
cpu  time for grad    0.01 s
wall time for grad    0.01 s
 E :    -40.87844949  G :  0.019886    pred/act E change: -0.202D-02 -0.154D-02
Maxdispl :   0.1339   ||displ|| :   0.2669   Lambda : -0.988D-03
Largest |displ|/coords:  0.1339 (   9)  0.1065 (   2)  0.1024 (  10)
................................................................................
.............................. CYCLE    7 ......................................
................................................................................
   1    -41.0823840 -0.410824E+02  0.289E-01    8.18       0.0  T
   2    -41.0824029 -0.188197E-04  0.220E-01    8.20       1.0  T
   3    -41.0824168 -0.138861E-04  0.264E-02    8.26       1.0  T
   4    -41.0824196 -0.284576E-05  0.977E-03    8.24       2.3  T
   5    -41.0824197 -0.138091E-06  0.299E-03    8.23       7.7  T
   6    -41.0824197 -0.403149E-08  0.170E-03    8.23      13.5  T
speedup  1.08
cpu  time for SCC    0.00 s
wall time for SCC    0.00 s
speedup  1.08
cpu  time for grad    0.01 s
wall time for grad    0.01 s
 E :    -40.87887508  G :  0.024083    pred/act E change: -0.197D-02 -0.426D-03
Maxdispl :   0.2255   ||displ|| :   0.4173   Lambda : -0.171D-02
Largest |displ|/coords:  0.2255 (   9)  0.1783 (  10)  0.1613 (   6)
................................................................................
.............................. CYCLE    8 ......................................
................................................................................
   1    -41.0891775 -0.410892E+02  0.482E-01    8.21       0.0  T
   2    -41.0892363 -0.587548E-04  0.367E-01    8.19       1.0  T
   3    -41.0892764 -0.401940E-04  0.473E-02    8.15       1.0  T
   4    -41.0892858 -0.930256E-05  0.184E-02    8.18       1.2  T
   5    -41.0892863 -0.551902E-06  0.512E-03    8.19       4.5  T
   6    -41.0892863 -0.754233E-08  0.288E-03    8.19       8.0  T
speedup  1.08
cpu  time for SCC    0.00 s
wall time for SCC    0.00 s
speedup  1.08
cpu  time for grad    0.01 s
wall time for grad    0.01 s
 E :    -40.87851970  G :  0.035270    pred/act E change: -0.529D-03  0.355D-03
Maxdispl :   0.0975   ||displ|| :   0.1979   Lambda : -0.157D-02
Largest |displ|/coords:  0.0975 (  10)  0.0872 (  11)  0.0644 (   1)
................................................................................
.............................. CYCLE    9 ......................................
................................................................................
   1    -41.0891664 -0.410892E+02  0.227E-01    8.27       0.0  T
   2    -41.0891834 -0.170170E-04  0.172E-01    8.27       1.0  T
   3    -41.0891943 -0.109229E-04  0.277E-02    8.27       1.0  T
   4    -41.0891968 -0.248855E-05  0.910E-03    8.27       2.5  T
   5    -41.0891970 -0.161637E-06  0.293E-03    8.27       7.8  T
   6    -41.0891970 -0.364791E-08  0.155E-03    8.27      14.8  T
speedup  1.08
cpu  time for SCC    0.00 s
wall time for SCC    0.00 s
speedup  1.08
cpu  time for grad    0.01 s
wall time for grad    0.01 s
 E :    -40.87944184  G :  0.017371    pred/act E change: -0.100D-02 -0.922D-03
Maxdispl :   0.1888   ||displ|| :   0.3010   Lambda : -0.118D-02
Largest |displ|/coords:  0.1888 (  12)  0.1428 (   4)  0.1085 (   1)
................................................................................
.............................. CYCLE   10 ......................................
................................................................................
   1    -41.0756036 -0.410756E+02  0.486E-01    8.33       0.0  T
   2    -41.0756964 -0.928392E-04  0.365E-01    8.35       1.0  T
   3    -41.0757458 -0.493777E-04  0.654E-02    8.37       1.0  T
   4    -41.0757598 -0.140779E-04  0.123E-02    8.36       1.9  T
   5    -41.0757601 -0.257646E-06  0.459E-03    8.36       5.0  T
   6    -41.0757601 -0.107576E-07  0.268E-03    8.36       8.6  T
   7    -41.0757601 -0.527162E-08  0.383E-04    8.36      59.9  T
speedup  1.16
cpu  time for SCC    0.00 s
wall time for SCC    0.00 s
speedup  1.00
cpu  time for grad    0.01 s
wall time for grad    0.01 s
 E :    -40.87836821  G :  0.046932    pred/act E change: -0.817D-03  0.107D-02
Maxdispl :   0.1039   ||displ|| :   0.2071   Lambda : -0.374D-02
Largest |displ|/coords:  0.1039 (  12)  0.0877 (  13)  0.0615 (  17)
................................................................................
.............................. CYCLE   11 ......................................
................................................................................
   1    -41.0866777 -0.410867E+02  0.353E-01    8.35       0.0  T
   2    -41.0867648 -0.871773E-04  0.261E-01    8.35       1.0  T
   3    -41.0868116 -0.467469E-04  0.615E-02    8.35       1.0  T
   4    -41.0868211 -0.949667E-05  0.975E-03    8.35       2.4  T
   5    -41.0868212 -0.141927E-06  0.427E-03    8.35       5.4  T
   6    -41.0868212 -0.513788E-08  0.234E-03    8.35       9.8  T
speedup  0.83
cpu  time for SCC    0.00 s
wall time for SCC    0.00 s
speedup  0.98
cpu  time for grad    0.01 s
wall time for grad    0.01 s
 E :    -40.87956579  G :  0.023338    pred/act E change: -0.645D-03 -0.120D-02
Maxdispl :   0.2029   ||displ|| :   0.3718   Lambda : -0.204D-02
Largest |displ|/coords:  0.2029 (   7)  0.1340 (   9)  0.1105 (   8)
................................................................................
.............................. CYCLE   12 ......................................
................................................................................
   1    -41.0904264 -0.410904E+02  0.490E-01    8.30       0.0  T
   2    -41.0904718 -0.454159E-04  0.372E-01    8.27       1.0  T
   3    -41.0905100 -0.382696E-04  0.411E-02    8.23       1.0  T
   4    -41.0905160 -0.590305E-05  0.145E-02    8.26       1.6  T
   5    -41.0905162 -0.267105E-06  0.576E-03    8.27       4.0  T
   6    -41.0905162 -0.128129E-07  0.291E-03    8.27       7.9  T
speedup  0.81
cpu  time for SCC    0.00 s
wall time for SCC    0.00 s
speedup  0.96
cpu  time for grad    0.01 s
wall time for grad    0.01 s
 E :    -40.87914698  G :  0.036794    pred/act E change: -0.195D-02  0.419D-03
Maxdispl :   0.1094   ||displ|| :   0.2102   Lambda : -0.169D-02
Largest |displ|/coords:  0.1094 (   8)  0.0717 (   4)  0.0715 (  12)
................................................................................
.............................. CYCLE   13 ......................................
................................................................................
   1    -41.0891930 -0.410892E+02  0.232E-01    8.31       0.0  T
   2    -41.0892051 -0.121506E-04  0.176E-01    8.32       1.0  T
   3    -41.0892159 -0.108034E-04  0.221E-02    8.32       1.0  T
   4    -41.0892174 -0.144629E-05  0.896E-03    8.32       2.6  T
   5    -41.0892175 -0.918920E-07  0.303E-03    8.31       7.6  T
   6    -41.0892175 -0.777143E-08  0.152E-03    8.31      15.0  T
speedup  1.08
cpu  time for SCC    0.00 s
wall time for SCC    0.00 s
speedup  1.07
cpu  time for grad    0.01 s
wall time for grad    0.01 s
 E :    -40.88016382  G :  0.007579    pred/act E change: -0.116D-02 -0.102D-02
Maxdispl :   0.1969   ||displ|| :   0.3117   Lambda : -0.695D-03
Largest |displ|/coords:  0.1969 (   4)  0.1121 (   2)  0.1003 (   9)
................................................................................
.............................. CYCLE   14 ......................................
................................................................................
   1    -41.0835510 -0.410836E+02  0.389E-01    8.26       0.0  T
   2    -41.0835711 -0.201744E-04  0.296E-01    8.28       1.0  T
   3    -41.0835894 -0.182854E-04  0.251E-02    8.34       1.0  T
   4    -41.0835918 -0.236005E-05  0.625E-03    8.32       3.7  T
   5    -41.0835918 -0.303150E-07  0.277E-03    8.32       8.3  T
   6    -41.0835918 -0.280144E-08  0.131E-03    8.32      17.5  T
speedup  1.08
cpu  time for SCC    0.00 s
wall time for SCC    0.00 s
speedup  1.08
cpu  time for grad    0.01 s
wall time for grad    0.01 s
 E :    -40.88024719  G :  0.021492    pred/act E change: -0.885D-03 -0.834D-04
Maxdispl :   0.0650   ||displ|| :   0.1495   Lambda : -0.787D-03
Largest |displ|/coords:  0.0650 (   7)  0.0637 (   8)  0.0591 (   6)
................................................................................
.............................. CYCLE   15 ......................................
................................................................................
   1    -41.0868353 -0.410868E+02  0.181E-01    8.36       0.0  T
   2    -41.0868450 -0.973175E-05  0.136E-01    8.34       1.0  T
   3    -41.0868508 -0.574432E-05  0.210E-02    8.29       1.1  T
   4    -41.0868524 -0.158857E-05  0.354E-03    8.32       6.5  T
   5    -41.0868524 -0.863012E-08  0.202E-03    8.32      11.4  T
speedup  0.97
cpu  time for SCC    0.00 s
wall time for SCC    0.00 s
speedup  1.03
cpu  time for grad    0.01 s
wall time for grad    0.01 s
 E :    -40.88066634  G :  0.008713    pred/act E change: -0.381D-03 -0.419D-03
Maxdispl :   0.2012   ||displ|| :   0.3250   Lambda : -0.424D-03
Largest |displ|/coords:  0.2012 (   9)  0.1371 (   4)  0.1266 (   2)
................................................................................
.............................. CYCLE   16 ......................................
................................................................................
   1    -41.0871448 -0.410871E+02  0.178E-01    8.28       0.0  T
   2    -41.0871485 -0.373226E-05  0.135E-01    8.27       1.0  T
   3    -41.0871523 -0.378122E-05  0.125E-02    8.26       1.8  T
   4    -41.0871526 -0.346965E-06  0.644E-03    8.27       3.6  T
   5    -41.0871527 -0.331005E-07  0.158E-03    8.27      14.5  T
   6    -41.0871527 -0.192658E-08  0.102E-03    8.27      22.6  T
speedup  0.79
cpu  time for SCC    0.00 s
wall time for SCC    0.00 s
speedup  0.95
cpu  time for grad    0.01 s
wall time for grad    0.01 s
 E :    -40.88094666  G :  0.011388    pred/act E change: -0.403D-03 -0.280D-03
Maxdispl :   0.2502   ||displ|| :   0.5471   Lambda : -0.605D-03
Largest |displ|/coords:  0.2502 (   4)  0.2367 (   9)  0.2342 (   2)
................................................................................
.............................. CYCLE   17 ......................................
................................................................................
   1    -41.0856492 -0.410856E+02  0.296E-01    8.25       0.0  T
   2    -41.0856596 -0.104458E-04  0.224E-01    8.25       1.0  T
   3    -41.0856699 -0.102863E-04  0.222E-02    8.25       1.0  T
   4    -41.0856710 -0.105068E-05  0.110E-02    8.25       2.1  T
   5    -41.0856710 -0.705389E-07  0.247E-03    8.25       9.3  T
   6    -41.0856710 -0.437542E-08  0.161E-03    8.25      14.3  T
speedup  1.08
cpu  time for SCC    0.00 s
wall time for SCC    0.00 s
speedup  0.95
cpu  time for grad    0.01 s
wall time for grad    0.01 s
 E :    -40.88134242  G :  0.016929    pred/act E change: -0.234D-03 -0.396D-03
Maxdispl :   0.1976   ||displ|| :   0.4036   Lambda : -0.612D-03
Largest |displ|/coords:  0.1976 (   4)  0.1807 (   2)  0.1414 (   9)
................................................................................
.............................. CYCLE   18 ......................................
................................................................................
   1    -41.0863579 -0.410864E+02  0.257E-01    8.23       0.0  T
   2    -41.0863671 -0.921417E-05  0.196E-01    8.23       1.0  T
   3    -41.0863754 -0.827958E-05  0.196E-02    8.25       1.2  T
   4    -41.0863764 -0.107404E-05  0.944E-03    8.25       2.4  T
   5    -41.0863765 -0.663306E-07  0.190E-03    8.24      12.1  T
   6    -41.0863765 -0.163820E-08  0.117E-03    8.25      19.6  T
speedup  0.81
cpu  time for SCC    0.00 s
wall time for SCC    0.00 s
speedup  0.96
cpu  time for grad    0.01 s
wall time for grad    0.01 s
 E :    -40.88178194  G :  0.013506    pred/act E change: -0.393D-03 -0.440D-03
Maxdispl :   0.2461   ||displ|| :   0.4835   Lambda : -0.873D-03
Largest |displ|/coords:  0.2461 (   2)  0.2346 (   4)  0.1861 (   9)
................................................................................
.............................. CYCLE   19 ......................................
................................................................................
   1    -41.0914158 -0.410914E+02  0.282E-01    8.35       0.0  T
   2    -41.0914374 -0.215369E-04  0.213E-01    8.35       1.0  T
   3    -41.0914517 -0.142912E-04  0.352E-02    8.34       1.0  T
   4    -41.0914547 -0.308458E-05  0.148E-02    8.34       1.6  T
   5    -41.0914549 -0.193146E-06  0.300E-03    8.34       7.6  T
   6    -41.0914549 -0.602301E-08  0.188E-03    8.34      12.2  T
speedup  0.83
cpu  time for SCC    0.00 s
wall time for SCC    0.00 s
speedup  0.95
cpu  time for grad    0.01 s
wall time for grad    0.01 s
 E :    -40.88195140  G :  0.023485    pred/act E change: -0.356D-03 -0.169D-03
Maxdispl :   0.1556   ||displ|| :   0.3328   Lambda : -0.967D-03
Largest |displ|/coords:  0.1556 (   2)  0.1496 (   9)  0.1375 (   8)
................................................................................
.............................. CYCLE   20 ......................................
................................................................................
   1    -41.0904111 -0.410904E+02  0.198E-01    8.30       0.0  T
   2    -41.0904198 -0.870664E-05  0.150E-01    8.29       1.0  T
   3    -41.0904278 -0.800452E-05  0.206E-02    8.29       1.1  T
   4    -41.0904289 -0.107035E-05  0.101E-02    8.29       2.3  T
   5    -41.0904289 -0.849644E-07  0.245E-03    8.29       9.4  T
   6    -41.0904289 -0.408544E-08  0.151E-03    8.29      15.2  T
speedup  0.83
cpu  time for SCC    0.00 s
wall time for SCC    0.00 s
speedup  0.96
cpu  time for grad    0.01 s
wall time for grad    0.01 s
 E :    -40.88259304  G :  0.009617    pred/act E change: -0.538D-03 -0.642D-03
Maxdispl :   0.2807   ||displ|| :   0.5287   Lambda : -0.648D-03
Largest |displ|/coords:  0.2807 (   2)  0.2244 (   9)  0.1781 (   4)
................................................................................
.............................. CYCLE   21 ......................................
................................................................................
   1    -41.0882418 -0.410882E+02  0.303E-01    8.14       0.0  T
   2    -41.0882675 -0.256480E-04  0.228E-01    8.14       1.0  T
   3    -41.0882788 -0.113856E-04  0.429E-02    8.13       1.0  T
   4    -41.0882831 -0.429129E-05  0.164E-02    8.13       1.4  T
   5    -41.0882833 -0.191457E-06  0.298E-03    8.14       7.7  T
   6    -41.0882833 -0.757493E-08  0.176E-03    8.14      13.0  T
speedup  0.81
cpu  time for SCC    0.00 s
wall time for SCC    0.00 s
speedup  0.95
cpu  time for grad    0.01 s
wall time for grad    0.01 s
 E :    -40.88294832  G :  0.017719    pred/act E change: -0.537D-03 -0.355D-03
Maxdispl :   0.2104   ||displ|| :   0.3670   Lambda : -0.640D-03
Largest |displ|/coords:  0.2104 (   2)  0.1507 (   9)  0.1012 (   4)
................................................................................
.............................. CYCLE   22 ......................................
................................................................................
   1    -41.0934321 -0.410934E+02  0.197E-01    8.25       0.0  T
   2    -41.0934505 -0.183415E-04  0.149E-01    8.23       1.0  T
   3    -41.0934590 -0.851582E-05  0.337E-02    8.20       1.0  T
   4    -41.0934618 -0.278352E-05  0.131E-02    8.21       1.7  T
   5    -41.0934620 -0.197430E-06  0.265E-03    8.21       8.7  T
   6    -41.0934620 -0.569751E-08  0.161E-03    8.21      14.3  T
speedup  1.08
cpu  time for SCC    0.00 s
wall time for SCC    0.00 s
speedup  0.94
cpu  time for grad    0.01 s
wall time for grad    0.01 s
 E :    -40.88341782  G :  0.014744    pred/act E change: -0.414D-03 -0.470D-03
Maxdispl :   0.3776   ||displ|| :   0.6779   Lambda : -0.120D-02
Largest |displ|/coords:  0.3776 (   2)  0.3194 (   9)  0.2704 (   4)
................................................................................
.............................. CYCLE   23 ......................................
................................................................................
   1    -41.0883599 -0.410884E+02  0.464E-01    8.19       0.0  T
   2    -41.0884519 -0.920717E-04  0.351E-01    8.21       1.0  T
   3    -41.0884966 -0.446901E-04  0.709E-02    8.24       1.0  T
   4    -41.0885111 -0.144720E-04  0.274E-02    8.23       1.0  T
   5    -41.0885121 -0.988852E-06  0.579E-03    8.22       4.0  T
   6    -41.0885121 -0.289779E-07  0.345E-03    8.22       6.6  T
   7    -41.0885121 -0.129542E-07  0.108E-03    8.22      21.3  T
   8    -41.0885121 -0.159964E-08  0.245E-04    8.22      93.6  T
speedup  1.02
cpu  time for SCC    0.00 s
wall time for SCC    0.00 s
speedup  1.04
cpu  time for grad    0.01 s
wall time for grad    0.01 s
 E :    -40.88368939  G :  0.034166    pred/act E change: -0.363D-03 -0.272D-03
Maxdispl :   0.1005   ||displ|| :   0.2575   Lambda : -0.185D-02
Largest |displ|/coords:  0.1005 (   5)  0.0976 (   8)  0.0877 (  13)
................................................................................
.............................. CYCLE   24 ......................................
................................................................................
   1    -41.0994347 -0.410994E+02  0.208E-01    8.13       0.0  T
   2    -41.0994903 -0.555720E-04  0.155E-01    8.11       1.0  T
   3    -41.0995142 -0.239222E-04  0.556E-02    8.07       1.0  T
   4    -41.0995181 -0.391710E-05  0.180E-02    8.07       1.3  T
   5    -41.0995187 -0.550840E-06  0.437E-03    8.08       5.2  T
   6    -41.0995187 -0.113741E-07  0.232E-03    8.08       9.9  T
speedup  1.05
cpu  time for SCC    0.00 s
wall time for SCC    0.00 s
speedup  1.06
cpu  time for grad    0.01 s
wall time for grad    0.01 s
 E :    -40.88427025  G :  0.031627    pred/act E change: -0.876D-03 -0.581D-03
Maxdispl :   0.2166   ||displ|| :   0.4038   Lambda : -0.247D-02
Largest |displ|/coords:  0.2166 (   7)  0.1563 (   2)  0.1521 (   9)
................................................................................
.............................. CYCLE   25 ......................................
................................................................................
   1    -41.0999878 -0.411000E+02  0.298E-01    8.22       0.0  T
   2    -41.1000448 -0.569595E-04  0.222E-01    8.18       1.0  T
   3    -41.1000758 -0.310425E-04  0.482E-02    8.11       1.0  T
   4    -41.1000827 -0.686601E-05  0.181E-02    8.13       1.3  T
   5    -41.1000831 -0.392081E-06  0.529E-03    8.14       4.3  T
   6    -41.1000831 -0.199510E-07  0.306E-03    8.14       7.5  T
speedup  1.08
cpu  time for SCC    0.00 s
wall time for SCC    0.00 s
speedup  1.06
cpu  time for grad    0.01 s
wall time for grad    0.01 s
 E :    -40.88430920  G :  0.045305    pred/act E change: -0.984D-03 -0.390D-04
Maxdispl :   0.0957   ||displ|| :   0.2601   Lambda : -0.262D-02
Largest |displ|/coords:  0.0957 (   2)  0.0877 (   6)  0.0813 (   9)

generating ANC from model Hessian ...
 Shifting diagonal of input Hessian by   5.130505766427681E-003
 Lowest  eigenvalues of input Hessian
    0.005000    0.005085   -0.000000   -0.000000    0.000000    0.000000
    0.000000    0.000000    0.005268    0.005334    0.005384    0.005502
    0.005611    0.005843    0.006912    0.007512    0.007732    0.008633
 Highest eigenvalues
    1.408877    1.411744    1.431995    2.442916    3.247743    3.923252
 
cpu  time for ANC gen    0.00 s
wall time for ANC gen    0.00 s
................................................................................
.............................. CYCLE   26 ......................................
................................................................................
   1    -41.0993947 -0.410994E+02  0.293E-01    8.01       0.0  T
   2    -41.0994627 -0.680324E-04  0.219E-01    8.03       1.0  T
   3    -41.0994943 -0.315743E-04  0.602E-02    8.07       1.0  T
   4    -41.0995017 -0.745751E-05  0.188E-02    8.05       1.2  T
   5    -41.0995024 -0.669171E-06  0.454E-03    8.04       5.1  T
   6    -41.0995024 -0.125704E-07  0.270E-03    8.04       8.5  T
   7    -41.0995024 -0.610069E-08  0.754E-04    8.04      30.4  T
   8    -41.0995024 -0.747150E-09  0.212E-04    8.04     108.4  T
speedup  1.00
cpu  time for SCC    0.00 s
wall time for SCC    0.00 s
speedup  1.07
cpu  time for grad    0.01 s
wall time for grad    0.01 s
 E :    -40.88569068  G :  0.025114    pred/act E change:  0.000D+00 -0.138D-02
Maxdispl :   0.0719   ||displ|| :   0.1717   Lambda : -0.934D-03
Largest |displ|/coords:  0.0719 (  11)  0.0660 (  12)  0.0571 (   3)
................................................................................
.............................. CYCLE   27 ......................................
................................................................................
   1    -41.0997892 -0.410998E+02  0.214E-01    8.06       0.0  T
   2    -41.0997965 -0.731065E-05  0.163E-01    8.06       1.0  T
   3    -41.0998041 -0.758767E-05  0.166E-02    8.06       1.4  T
   4    -41.0998047 -0.615313E-06  0.818E-03    8.06       2.8  T
   5    -41.0998048 -0.359130E-07  0.164E-03    8.06      14.0  T
   6    -41.0998048 -0.158610E-08  0.104E-03    8.06      22.1  T
speedup  1.08
cpu  time for SCC    0.00 s
wall time for SCC    0.00 s
speedup  1.06
cpu  time for grad    0.01 s
wall time for grad    0.01 s
 E :    -40.88629190  G :  0.013870    pred/act E change:  0.000D+00 -0.601D-03
Maxdispl :   0.1705   ||displ|| :   0.2995   Lambda : -0.104D-02
Largest |displ|/coords:  0.1705 (   3)  0.1159 (   7)  0.1081 (   5)
................................................................................
.............................. CYCLE   28 ......................................
................................................................................
   1    -41.1007295 -0.411007E+02  0.373E-01    8.07       0.0  T
   2    -41.1007576 -0.281684E-04  0.284E-01    8.05       1.0  T
   3    -41.1007809 -0.232344E-04  0.328E-02    8.02       1.0  T
   4    -41.1007845 -0.361874E-05  0.152E-02    8.03       1.5  T
   5    -41.1007847 -0.209437E-06  0.330E-03    8.04       7.0  T
   6    -41.1007847 -0.667290E-08  0.200E-03    8.04      11.5  T
   7    -41.1007847 -0.308633E-08  0.510E-04    8.04      45.0  T
speedup  0.93
cpu  time for SCC    0.00 s
wall time for SCC    0.00 s
speedup  0.99
cpu  time for grad    0.01 s
wall time for grad    0.01 s
 E :    -40.88665244  G :  0.022552    pred/act E change: -0.481D-03 -0.361D-03
Maxdispl :   0.1075   ||displ|| :   0.1818   Lambda : -0.554D-03
Largest |displ|/coords:  0.1075 (   3)  0.0707 (   7)  0.0628 (   5)
................................................................................
.............................. CYCLE   29 ......................................
................................................................................
   1    -41.1022897 -0.411023E+02  0.156E-01    8.04       0.0  T
   2    -41.1022965 -0.680990E-05  0.117E-01    8.04       1.0  T
   3    -41.1022996 -0.311303E-05  0.177E-02    8.03       1.3  T
   4    -41.1023009 -0.121804E-05  0.529E-03    8.03       4.3  T
   5    -41.1023009 -0.244485E-07  0.163E-03    8.03      14.1  T
speedup  1.29
cpu  time for SCC    0.00 s
wall time for SCC    0.00 s
speedup  1.01
cpu  time for grad    0.01 s
wall time for grad    0.01 s
 E :    -40.88712341  G :  0.016757    pred/act E change: -0.568D-03 -0.471D-03
Maxdispl :   0.3992   ||displ|| :   0.5584   Lambda : -0.146D-02
Largest |displ|/coords:  0.3992 (   3)  0.1944 (   8)  0.1823 (   7)
................................................................................
.............................. CYCLE   30 ......................................
................................................................................
   1    -41.1037205 -0.411037E+02  0.432E-01    7.98       0.0  T
   2    -41.1037914 -0.708740E-04  0.321E-01    7.97       1.0  T
   3    -41.1038198 -0.284155E-04  0.567E-02    7.95       1.0  T
   4    -41.1038310 -0.111639E-04  0.170E-02    7.94       1.4  T
   5    -41.1038313 -0.302734E-06  0.512E-03    7.94       4.5  T
   6    -41.1038313 -0.171897E-07  0.321E-03    7.95       7.1  T
   7    -41.1038313 -0.124356E-07  0.784E-04    7.95      29.3  T
   8    -41.1038313 -0.120014E-08  0.190E-04    7.95     121.0  T
speedup  1.02
cpu  time for SCC    0.01 s
wall time for SCC    0.00 s
speedup  1.04
cpu  time for grad    0.01 s
wall time for grad    0.01 s
 E :    -40.88787358  G :  0.021134    pred/act E change: -0.286D-03 -0.750D-03
Maxdispl :   0.2588   ||displ|| :   0.4266   Lambda : -0.177D-02
Largest |displ|/coords:  0.2588 (   3)  0.2230 (   5)  0.1236 (   7)
................................................................................
.............................. CYCLE   31 ......................................
................................................................................
   1    -41.1129135 -0.411129E+02  0.470E-01    7.96       0.0  T
   2    -41.1129821 -0.685735E-04  0.356E-01    7.93       1.0  T
   3    -41.1130314 -0.493017E-04  0.585E-02    7.87       1.0  T
   4    -41.1130410 -0.958553E-05  0.144E-02    7.90       1.6  T
   5    -41.1130412 -0.240516E-06  0.686E-03    7.90       3.3  T
   6    -41.1130412 -0.308962E-07  0.361E-03    7.90       6.3  T
   7    -41.1130413 -0.131220E-07  0.104E-03    7.90      22.1  T
speedup  1.16
cpu  time for SCC    0.01 s
wall time for SCC    0.00 s
speedup  1.00
cpu  time for grad    0.01 s
wall time for grad    0.01 s
 E :    -40.88783155  G :  0.034783    pred/act E change: -0.957D-03  0.420D-04
Maxdispl :   0.1644   ||displ|| :   0.2699   Lambda : -0.191D-02
Largest |displ|/coords:  0.1644 (   8)  0.1197 (  12)  0.0922 (   7)
................................................................................
.............................. CYCLE   32 ......................................
................................................................................
   1    -41.1150221 -0.411150E+02  0.364E-01    7.94       0.0  T
   2    -41.1150476 -0.255180E-04  0.277E-01    7.92       1.0  T
   3    -41.1150737 -0.260152E-04  0.294E-02    7.88       1.0  T
   4    -41.1150761 -0.240191E-05  0.885E-03    7.91       2.6  T
   5    -41.1150761 -0.451381E-07  0.456E-03    7.91       5.0  T
   6    -41.1150761 -0.157121E-07  0.159E-03    7.91      14.4  T
speedup  1.05
cpu  time for SCC    0.00 s
wall time for SCC    0.00 s
speedup  1.06
cpu  time for grad    0.01 s
wall time for grad    0.01 s
 E :    -40.88825404  G :  0.027638    pred/act E change: -0.104D-02 -0.422D-03
Maxdispl :   0.0867   ||displ|| :   0.1842   Lambda : -0.119D-02
Largest |displ|/coords:  0.0867 (  12)  0.0810 (   7)  0.0602 (   1)
................................................................................
.............................. CYCLE   33 ......................................
................................................................................
   1    -41.1088761 -0.411089E+02  0.265E-01    7.84       0.0  T
   2    -41.1088978 -0.216680E-04  0.199E-01    7.86       1.0  T
   3    -41.1089141 -0.163630E-04  0.322E-02    7.90       1.0  T
   4    -41.1089170 -0.288262E-05  0.818E-03    7.89       2.8  T
   5    -41.1089171 -0.511918E-07  0.368E-03    7.89       6.2  T
   6    -41.1089171 -0.660361E-08  0.151E-03    7.89      15.2  T
speedup  1.08
cpu  time for SCC    0.00 s
wall time for SCC    0.00 s
speedup  1.07
cpu  time for grad    0.01 s
wall time for grad    0.01 s
 E :    -40.88851805  G :  0.018135    pred/act E change: -0.103D-02 -0.264D-03
Maxdispl :   0.2240   ||displ|| :   0.2935   Lambda : -0.851D-03
Largest |displ|/coords:  0.2240 (   3)  0.1017 (   7)  0.0855 (  11)
................................................................................
.............................. CYCLE   34 ......................................
................................................................................
   1    -41.1055434 -0.411055E+02  0.246E-01    7.86       0.0  T
   2    -41.1055568 -0.133245E-04  0.184E-01    7.85       1.0  T
   3    -41.1055665 -0.978115E-05  0.264E-02    7.84       1.0  T
   4    -41.1055683 -0.179719E-05  0.707E-03    7.84       3.2  T
   5    -41.1055684 -0.478046E-07  0.326E-03    7.84       7.0  T
   6    -41.1055684 -0.733713E-08  0.152E-03    7.84      15.1  T
   7    -41.1055684 -0.354915E-08  0.428E-04    7.84      53.7  T
speedup  1.16
cpu  time for SCC    0.00 s
wall time for SCC    0.00 s
speedup  1.10
cpu  time for grad    0.01 s
wall time for grad    0.01 s
 E :    -40.88873967  G :  0.020663    pred/act E change: -0.614D-03 -0.222D-03
Maxdispl :   0.1323   ||displ|| :   0.1939   Lambda : -0.801D-03
Largest |displ|/coords:  0.1323 (   3)  0.0666 (  12)  0.0531 (   9)
................................................................................
.............................. CYCLE   35 ......................................
................................................................................
   1    -41.1142497 -0.411142E+02  0.178E-01    7.86       0.0  T
   2    -41.1142683 -0.186370E-04  0.133E-01    7.84       1.0  T
   3    -41.1142803 -0.120050E-04  0.303E-02    7.81       1.0  T
   4    -41.1142826 -0.224344E-05  0.669E-03    7.81       3.4  T
   5    -41.1142826 -0.664138E-07  0.321E-03    7.81       7.1  T
   6    -41.1142826 -0.647228E-08  0.172E-03    7.81      13.4  T
speedup  1.08
cpu  time for SCC    0.00 s
wall time for SCC    0.00 s
speedup  1.06
cpu  time for grad    0.01 s
wall time for grad    0.01 s
 E :    -40.88894662  G :  0.013475    pred/act E change: -0.462D-03 -0.207D-03
Maxdispl :   0.1083   ||displ|| :   0.1333   Lambda : -0.302D-03
Largest |displ|/coords:  0.1083 (   3)  0.0338 (   1)  0.0335 (  12)
................................................................................
.............................. CYCLE   36 ......................................
................................................................................
   1    -41.1115083 -0.411115E+02  0.124E-01    7.79       0.0  T
   2    -41.1115113 -0.297833E-05  0.946E-02    7.80       1.0  T
   3    -41.1115140 -0.272381E-05  0.107E-02    7.80       2.2  T
   4    -41.1115143 -0.325697E-06  0.349E-03    7.80       6.6  T
   5    -41.1115143 -0.127338E-07  0.108E-03    7.80      21.3  T
   6    -41.1115143 -0.517467E-09  0.582E-04    7.80      39.4  T
speedup  1.08
cpu  time for SCC    0.00 s
wall time for SCC    0.00 s
speedup  1.03
cpu  time for grad    0.01 s
wall time for grad    0.01 s
 E :    -40.88916335  G :  0.006396    pred/act E change: -0.416D-03 -0.217D-03
Maxdispl :   0.2626   ||displ|| :   0.3157   Lambda : -0.267D-03
Largest |displ|/coords:  0.2626 (   3)  0.0895 (  11)  0.0726 (   9)
................................................................................
.............................. CYCLE   37 ......................................
................................................................................
   1    -41.1096682 -0.411097E+02  0.163E-01    7.78       0.0  T
   2    -41.1096726 -0.444353E-05  0.123E-01    7.78       1.0  T
   3    -41.1096764 -0.375553E-05  0.163E-02    7.78       1.4  T
   4    -41.1096769 -0.494069E-06  0.649E-03    7.78       3.5  T
   5    -41.1096769 -0.321934E-07  0.144E-03    7.78      15.9  T
   6    -41.1096769 -0.181170E-08  0.819E-04    7.78      28.0  T
speedup  1.05
cpu  time for SCC    0.00 s
wall time for SCC    0.00 s
speedup  0.93
cpu  time for grad    0.01 s
wall time for grad    0.01 s
 E :    -40.88934712  G :  0.010771    pred/act E change: -0.154D-03 -0.184D-03
Maxdispl :   0.4028   ||displ|| :   0.4500   Lambda : -0.335D-03
Largest |displ|/coords:  0.4028 (   3)  0.0852 (  11)  0.0824 (   1)
................................................................................
.............................. CYCLE   38 ......................................
................................................................................
   1    -41.1086794 -0.411087E+02  0.210E-01    7.77       0.0  T
   2    -41.1086848 -0.541903E-05  0.157E-01    7.77       1.0  T
   3    -41.1086898 -0.492658E-05  0.203E-02    7.75       1.1  T
   4    -41.1086903 -0.556726E-06  0.837E-03    7.76       2.7  T
   5    -41.1086904 -0.504920E-07  0.195E-03    7.76      11.8  T
   6    -41.1086904 -0.332832E-08  0.119E-03    7.76      19.3  T
speedup  1.08
cpu  time for SCC    0.00 s
wall time for SCC    0.00 s
speedup  1.05
cpu  time for grad    0.01 s
wall time for grad    0.01 s
 E :    -40.88960624  G :  0.014402    pred/act E change: -0.147D-03 -0.259D-03
Maxdispl :   0.4837   ||displ|| :   0.5790   Lambda : -0.545D-03
Largest |displ|/coords:  0.4837 (   3)  0.1217 (  11)  0.1198 (   4)
................................................................................
.............................. CYCLE   39 ......................................
................................................................................
   1    -41.1104864 -0.411105E+02  0.218E-01    7.80       0.0  T
   2    -41.1104949 -0.849329E-05  0.162E-01    7.79       1.0  T
   3    -41.1105016 -0.676244E-05  0.241E-02    7.77       1.0  T
   4    -41.1105026 -0.963830E-06  0.982E-03    7.78       2.3  T
   5    -41.1105027 -0.861355E-07  0.242E-03    7.78       9.5  T
   6    -41.1105027 -0.522317E-08  0.140E-03    7.78      16.4  T
speedup  0.81
cpu  time for SCC    0.00 s
wall time for SCC    0.00 s
speedup  0.93
cpu  time for grad    0.01 s
wall time for grad    0.01 s
 E :    -40.89002047  G :  0.014426    pred/act E change: -0.201D-03 -0.414D-03
Maxdispl :   0.5680   ||displ|| :   0.6525   Lambda : -0.737D-03
Largest |displ|/coords:  0.5680 (   3)  0.1283 (   4)  0.1029 (   8)
................................................................................
.............................. CYCLE   40 ......................................
................................................................................
   1    -41.1128536 -0.411129E+02  0.263E-01    7.81       0.0  T
   2    -41.1128633 -0.971305E-05  0.195E-01    7.80       1.0  T
   3    -41.1128701 -0.684009E-05  0.260E-02    7.79       1.0  T
   4    -41.1128713 -0.120780E-05  0.951E-03    7.79       2.4  T
   5    -41.1128714 -0.967227E-07  0.248E-03    7.79       9.3  T
   6    -41.1128714 -0.488861E-08  0.150E-03    7.79      15.3  T
speedup  1.05
cpu  time for SCC    0.00 s
wall time for SCC    0.00 s
speedup  1.03
cpu  time for grad    0.01 s
wall time for grad    0.01 s
 E :    -40.89066779  G :  0.012773    pred/act E change: -0.364D-03 -0.647D-03
Maxdispl :   0.5486   ||displ|| :   0.6787   Lambda : -0.107D-02
Largest |displ|/coords:  0.5486 (   3)  0.2428 (   4)  0.1239 (  22)
................................................................................
.............................. CYCLE   41 ......................................
................................................................................
   1    -41.1173659 -0.411174E+02  0.280E-01    7.94       0.0  T
   2    -41.1173758 -0.995506E-05  0.211E-01    7.94       1.0  T
   3    -41.1173847 -0.887601E-05  0.229E-02    7.94       1.0  T
   4    -41.1173858 -0.110388E-05  0.851E-03    7.94       2.7  T
   5    -41.1173859 -0.791734E-07  0.272E-03    7.94       8.4  T
   6    -41.1173859 -0.437200E-08  0.150E-03    7.94      15.3  T
speedup  1.08
cpu  time for SCC    0.00 s
wall time for SCC    0.00 s
speedup  1.03
cpu  time for grad    0.01 s
wall time for grad    0.01 s
 E :    -40.89152885  G :  0.013998    pred/act E change: -0.526D-03 -0.861D-03
Maxdispl :   0.7090   ||displ|| :   0.8448   Lambda : -0.119D-02
Largest |displ|/coords:  0.7090 (   3)  0.2456 (   4)  0.1416 (   1)
................................................................................
.............................. CYCLE   42 ......................................
................................................................................
   1    -41.1149235 -0.411149E+02  0.360E-01    7.94       0.0  T
   2    -41.1149394 -0.159560E-04  0.271E-01    7.94       1.0  T
   3    -41.1149537 -0.142942E-04  0.334E-02    7.94       1.0  T
   4    -41.1149556 -0.192404E-05  0.122E-02    7.94       1.9  T
   5    -41.1149557 -0.848038E-07  0.295E-03    7.94       7.8  T
   6    -41.1149557 -0.572466E-08  0.180E-03    7.94      12.7  T
speedup  1.08
cpu  time for SCC    0.00 s
wall time for SCC    0.00 s
speedup  1.03
cpu  time for grad    0.01 s
wall time for grad    0.01 s
 E :    -40.89266651  G :  0.019329    pred/act E change: -0.780D-03 -0.114D-02
Maxdispl :   0.3335   ||displ|| :   0.7603   Lambda : -0.222D-02
Largest |displ|/coords:  0.3335 (   3)  0.2812 (   4)  0.2606 (  18)
................................................................................
.............................. CYCLE   43 ......................................
................................................................................
   1    -41.1154720 -0.411155E+02  0.440E-01    8.07       0.0  T
   2    -41.1155769 -0.104882E-03  0.330E-01    8.08       1.0  T
   3    -41.1156282 -0.512979E-04  0.840E-02    8.13       1.0  T
   4    -41.1156425 -0.143095E-04  0.279E-02    8.14       1.0  T
   5    -41.1156434 -0.933635E-06  0.733E-03    8.15       3.1  T
   6    -41.1156435 -0.471003E-07  0.412E-03    8.14       5.6  T
   7    -41.1156435 -0.194314E-07  0.175E-03    8.14      13.1  T
   8    -41.1156435 -0.343715E-08  0.441E-04    8.14      52.0  T
speedup  1.02
cpu  time for SCC    0.00 s
wall time for SCC    0.00 s
speedup  1.00
cpu  time for grad    0.01 s
wall time for grad    0.01 s
 E :    -40.89254451  G :  0.044247    pred/act E change: -0.102D-02  0.122D-03
Maxdispl :   0.3357   ||displ|| :   0.4393   Lambda : -0.322D-02
Largest |displ|/coords:  0.3357 (   3)  0.1569 (   9)  0.1084 (   2)
................................................................................
.............................. CYCLE   44 ......................................
................................................................................
   1    -41.1067357 -0.411067E+02  0.315E-01    8.10       0.0  T
   2    -41.1067613 -0.255402E-04  0.238E-01    8.11       1.0  T
   3    -41.1067856 -0.243313E-04  0.336E-02    8.13       1.0  T
   4    -41.1067885 -0.285460E-05  0.153E-02    8.11       1.5  T
   5    -41.1067887 -0.244949E-06  0.464E-03    8.11       4.9  T
   6    -41.1067887 -0.175749E-07  0.256E-03    8.11       9.0  T
speedup  1.08
cpu  time for SCC    0.00 s
wall time for SCC    0.00 s
speedup  1.02
cpu  time for grad    0.01 s
wall time for grad    0.01 s
 E :    -40.89411735  G :  0.030046    pred/act E change: -0.175D-02 -0.157D-02
Maxdispl :   0.2261   ||displ|| :   0.4138   Lambda : -0.173D-02
Largest |displ|/coords:  0.2261 (   3)  0.1523 (   7)  0.1379 (   8)
................................................................................
.............................. CYCLE   45 ......................................
................................................................................
   1    -41.1146256 -0.411146E+02  0.234E-01    8.26       0.0  T
   2    -41.1146645 -0.388505E-04  0.175E-01    8.25       1.0  T
   3    -41.1146855 -0.210309E-04  0.470E-02    8.22       1.0  T
   4    -41.1146900 -0.446142E-05  0.171E-02    8.22       1.3  T
   5    -41.1146904 -0.453679E-06  0.464E-03    8.23       4.9  T
   6    -41.1146904 -0.160775E-07  0.252E-03    8.23       9.1  T
speedup  0.81
cpu  time for SCC    0.00 s
wall time for SCC    0.00 s
speedup  1.02
cpu  time for grad    0.01 s
wall time for grad    0.01 s
 E :    -40.89451840  G :  0.023511    pred/act E change: -0.192D-02 -0.401D-03
Maxdispl :   0.2071   ||displ|| :   0.3539   Lambda : -0.125D-02
Largest |displ|/coords:  0.2071 (   3)  0.1071 (  17)  0.0960 (   8)
................................................................................
.............................. CYCLE   46 ......................................
................................................................................
   1    -41.1154330 -0.411154E+02  0.214E-01    8.26       0.0  T
   2    -41.1154458 -0.128101E-04  0.162E-01    8.26       1.0  T
   3    -41.1154571 -0.113470E-04  0.280E-02    8.27       1.0  T
   4    -41.1154588 -0.161824E-05  0.989E-03    8.27       2.3  T
   5    -41.1154589 -0.916080E-07  0.319E-03    8.28       7.2  T
   6    -41.1154589 -0.771124E-08  0.170E-03    8.27      13.5  T
speedup  1.08
cpu  time for SCC    0.00 s
wall time for SCC    0.00 s
speedup  1.00
cpu  time for grad    0.01 s
wall time for grad    0.01 s
 E :    -40.89512874  G :  0.020240    pred/act E change: -0.101D-02 -0.610D-03
Maxdispl :   0.2395   ||displ|| :   0.4499   Lambda : -0.153D-02
Largest |displ|/coords:  0.2395 (   7)  0.1892 (   3)  0.1517 (   8)
................................................................................
.............................. CYCLE   47 ......................................
................................................................................
   1    -41.1153792 -0.411154E+02  0.267E-01    8.32       0.0  T
   2    -41.1154112 -0.320354E-04  0.201E-01    8.35       1.0  T
   3    -41.1154339 -0.226595E-04  0.380E-02    8.40       1.0  T
   4    -41.1154380 -0.413153E-05  0.161E-02    8.38       1.4  T
   5    -41.1154384 -0.409041E-06  0.465E-03    8.38       4.9  T
   6    -41.1154384 -0.158084E-07  0.256E-03    8.38       9.0  T
speedup  1.08
cpu  time for SCC    0.00 s
wall time for SCC    0.00 s
speedup  1.02
cpu  time for grad    0.01 s
wall time for grad    0.01 s
 E :    -40.89487625  G :  0.033866    pred/act E change: -0.701D-03  0.252D-03
Maxdispl :   0.1591   ||displ|| :   0.2802   Lambda : -0.209D-02
Largest |displ|/coords:  0.1591 (   8)  0.1531 (   3)  0.0883 (  19)
................................................................................
.............................. CYCLE   48 ......................................
................................................................................
   1    -41.1150328 -0.411150E+02  0.229E-01    8.42       0.0  T
   2    -41.1150609 -0.280860E-04  0.170E-01    8.39       1.0  T
   3    -41.1150754 -0.145114E-04  0.365E-02    8.35       1.0  T
   4    -41.1150791 -0.377036E-05  0.934E-03    8.37       2.5  T
   5    -41.1150793 -0.167307E-06  0.344E-03    8.37       6.7  T
   6    -41.1150793 -0.492764E-08  0.191E-03    8.37      12.0  T
speedup  1.08
cpu  time for SCC    0.00 s
wall time for SCC    0.00 s
speedup  1.02
cpu  time for grad    0.01 s
wall time for grad    0.01 s
 E :    -40.89583636  G :  0.024590    pred/act E change: -0.921D-03 -0.960D-03
Maxdispl :   0.3092   ||displ|| :   0.4340   Lambda : -0.210D-02
Largest |displ|/coords:  0.3092 (   3)  0.1239 (   6)  0.1149 (  16)
................................................................................
.............................. CYCLE   49 ......................................
................................................................................
   1    -41.1126193 -0.411126E+02  0.310E-01    8.10       0.0  T
   2    -41.1126732 -0.539058E-04  0.231E-01    8.09       1.0  T
   3    -41.1126990 -0.258597E-04  0.511E-02    8.07       1.0  T
   4    -41.1127055 -0.651133E-05  0.156E-02    8.07       1.5  T
   5    -41.1127060 -0.415806E-06  0.429E-03    8.07       5.3  T
   6    -41.1127060 -0.109133E-07  0.239E-03    8.07       9.6  T
speedup  0.79
cpu  time for SCC    0.00 s
wall time for SCC    0.00 s
speedup  0.90
cpu  time for grad    0.01 s
wall time for grad    0.01 s
 E :    -40.89558746  G :  0.040123    pred/act E change: -0.113D-02  0.249D-03
Maxdispl :   0.1159   ||displ|| :   0.2320   Lambda : -0.245D-02
Largest |displ|/coords:  0.1159 (   9)  0.0857 (  11)  0.0743 (  15)
................................................................................
.............................. CYCLE   50 ......................................
................................................................................
   1    -41.1163677 -0.411164E+02  0.198E-01    8.21       0.0  T
   2    -41.1163872 -0.194523E-04  0.147E-01    8.21       1.0  T
   3    -41.1163997 -0.125241E-04  0.307E-02    8.20       1.0  T
   4    -41.1164022 -0.248610E-05  0.637E-03    8.20       3.6  T
   5    -41.1164022 -0.361044E-07  0.323E-03    8.20       7.1  T
   6    -41.1164022 -0.607567E-08  0.151E-03    8.20      15.2  T
speedup  1.05
cpu  time for SCC    0.00 s
wall time for SCC    0.00 s
speedup  1.01
cpu  time for grad    0.01 s
wall time for grad    0.01 s
 E :    -40.89688996  G :  0.015550    pred/act E change: -0.125D-02 -0.130D-02
Maxdispl :   0.2055   ||displ|| :   0.3804   Lambda : -0.170D-02
Largest |displ|/coords:  0.2055 (   7)  0.1640 (  19)  0.1453 (   1)
................................................................................
.............................. CYCLE   51 ......................................
................................................................................
   1    -41.1154890 -0.411155E+02  0.284E-01    8.41       0.0  T
   2    -41.1155125 -0.234380E-04  0.215E-01    8.42       1.0  T
   3    -41.1155351 -0.226215E-04  0.331E-02    8.45       1.0  T
   4    -41.1155373 -0.219510E-05  0.105E-02    8.44       2.2  T
   5    -41.1155374 -0.139476E-06  0.378E-03    8.44       6.1  T
   6    -41.1155374 -0.898681E-08  0.206E-03    8.44      11.2  T
   7    -41.1155374 -0.532730E-08  0.490E-04    8.44      46.8  T
speedup  0.91
cpu  time for SCC    0.00 s
wall time for SCC    0.00 s
speedup  0.96
cpu  time for grad    0.01 s
wall time for grad    0.01 s
 E :    -40.89710109  G :  0.033908    pred/act E change: -0.129D-02 -0.211D-03
Maxdispl :   0.1204   ||displ|| :   0.3083   Lambda : -0.184D-02
Largest |displ|/coords:  0.1204 (   9)  0.1142 (   2)  0.1019 (  10)
................................................................................
.............................. CYCLE   52 ......................................
................................................................................
   1    -41.1178557 -0.411179E+02  0.187E-01    8.34       0.0  T
   2    -41.1178739 -0.181308E-04  0.140E-01    8.32       1.0  T
   3    -41.1178845 -0.105988E-04  0.335E-02    8.29       1.0  T
   4    -41.1178867 -0.226354E-05  0.104E-02    8.30       2.2  T
   5    -41.1178869 -0.152148E-06  0.295E-03    8.30       7.8  T
   6    -41.1178869 -0.885637E-08  0.173E-03    8.30      13.3  T
speedup  1.05
cpu  time for SCC    0.00 s
wall time for SCC    0.00 s
speedup  1.01
cpu  time for grad    0.01 s
wall time for grad    0.01 s
 E :    -40.89838545  G :  0.019730    pred/act E change: -0.972D-03 -0.128D-02
Maxdispl :   0.6001   ||displ|| :   0.7648   Lambda : -0.242D-02
Largest |displ|/coords:  0.6001 (   3)  0.1885 (   9)  0.1837 (  19)

generating ANC from model Hessian ...
 Shifting diagonal of input Hessian by   4.973203656492872E-003
 Lowest  eigenvalues of input Hessian
   -0.000000   -0.000000   -0.000000    0.000000    0.000000    0.000000
    0.005000    0.005142    0.005538    0.005770    0.005994    0.006262
    0.006672    0.006875    0.007075    0.007353    0.007702    0.008426
 Highest eigenvalues
    1.398172    1.407314    1.422363    2.246200    3.073615    3.843399
 
cpu  time for ANC gen    0.01 s
wall time for ANC gen    0.01 s
................................................................................
.............................. CYCLE   53 ......................................
................................................................................
   1    -41.1085935 -0.411086E+02  0.438E-01    7.83       0.0  T
   2    -41.1086591 -0.656264E-04  0.327E-01    7.83       1.0  T
   3    -41.1086842 -0.250227E-04  0.709E-02    7.82       1.0  T
   4    -41.1086941 -0.997027E-05  0.178E-02    7.82       1.3  T
   5    -41.1086945 -0.399726E-06  0.459E-03    7.82       5.0  T
   6    -41.1086945 -0.177437E-07  0.256E-03    7.82       9.0  T
   7    -41.1086946 -0.133696E-07  0.117E-03    7.82      19.7  T
   8    -41.1086946 -0.359039E-08  0.422E-04    7.82      54.4  T
   9    -41.1086946 -0.778194E-09  0.163E-04    7.82     141.1  T
speedup  1.07
cpu  time for SCC    0.01 s
wall time for SCC    0.01 s
speedup  1.08
cpu  time for grad    0.01 s
wall time for grad    0.01 s
 E :    -40.89873520  G :  0.039635    pred/act E change:  0.000D+00 -0.350D-03
Maxdispl :   0.2354   ||displ|| :   0.4698   Lambda : -0.442D-02
Largest |displ|/coords:  0.2354 (  11)  0.2312 (  12)  0.1989 (   4)
................................................................................
.............................. CYCLE   54 ......................................
................................................................................
   1    -41.1131370 -0.411131E+02  0.545E-01    8.02       0.0  T
   2    -41.1131800 -0.429874E-04  0.415E-01    8.03       1.0  T
   3    -41.1132297 -0.497760E-04  0.423E-02    8.06       1.0  T
   4    -41.1132329 -0.317850E-05  0.146E-02    8.06       1.6  T
   5    -41.1132331 -0.153214E-06  0.538E-03    8.05       4.3  T
   6    -41.1132331 -0.143318E-07  0.248E-03    8.05       9.3  T
speedup  0.81
cpu  time for SCC    0.00 s
wall time for SCC    0.00 s
speedup  0.90
cpu  time for grad    0.01 s
wall time for grad    0.01 s
 E :    -40.90161664  G :  0.028383    pred/act E change:  0.000D+00 -0.288D-02
Maxdispl :   0.3324   ||displ|| :   0.6189   Lambda : -0.476D-02
Largest |displ|/coords:  0.3324 (  13)  0.2730 (   2)  0.2660 (   4)
................................................................................
.............................. CYCLE   55 ......................................
................................................................................
   1    -41.1234032 -0.411234E+02  0.589E-01    8.29       0.0  T
   2    -41.1234633 -0.600595E-04  0.444E-01    8.29       1.0  T
   3    -41.1235319 -0.685680E-04  0.596E-02    8.27       1.0  T
   4    -41.1235365 -0.464435E-05  0.166E-02    8.27       1.4  T
   5    -41.1235368 -0.292653E-06  0.706E-03    8.27       3.3  T
   6    -41.1235368 -0.359595E-07  0.368E-03    8.27       6.2  T
   7    -41.1235369 -0.162984E-07  0.868E-04    8.27      26.4  T
speedup  1.09
cpu  time for SCC    0.00 s
wall time for SCC    0.00 s
speedup  1.02
cpu  time for grad    0.01 s
wall time for grad    0.01 s
 E :    -40.90393145  G :  0.027776    pred/act E change: -0.270D-02 -0.231D-02
Maxdispl :   0.2993   ||displ|| :   0.4948   Lambda : -0.225D-02
Largest |displ|/coords:  0.2993 (   4)  0.2349 (   2)  0.1701 (   9)
................................................................................
.............................. CYCLE   56 ......................................
................................................................................
   1    -41.1210297 -0.411210E+02  0.396E-01    8.28       0.0  T
   2    -41.1210508 -0.211232E-04  0.298E-01    8.28       1.0  T
   3    -41.1210740 -0.231805E-04  0.381E-02    8.25       1.0  T
   4    -41.1210757 -0.174586E-05  0.770E-03    8.27       3.0  T
   5    -41.1210758 -0.665920E-07  0.431E-03    8.27       5.3  T
   6    -41.1210758 -0.267727E-07  0.173E-03    8.27      13.2  T
speedup  1.05
cpu  time for SCC    0.00 s
wall time for SCC    0.00 s
speedup  1.00
cpu  time for grad    0.01 s
wall time for grad    0.01 s
 E :    -40.90568113  G :  0.027757    pred/act E change: -0.329D-02 -0.175D-02
Maxdispl :   0.3444   ||displ|| :   0.5233   Lambda : -0.250D-02
Largest |displ|/coords:  0.3444 (   4)  0.1631 (   1)  0.1597 (   2)
................................................................................
.............................. CYCLE   57 ......................................
................................................................................
   1    -41.1235185 -0.411235E+02  0.432E-01    8.33       0.0  T
   2    -41.1235651 -0.466163E-04  0.322E-01    8.32       1.0  T
   3    -41.1235978 -0.326445E-04  0.548E-02    8.27       1.0  T
   4    -41.1236035 -0.567211E-05  0.108E-02    8.30       2.1  T
   5    -41.1236036 -0.116883E-06  0.477E-03    8.30       4.8  T
   6    -41.1236036 -0.198425E-07  0.206E-03    8.30      11.2  T
speedup  1.08
cpu  time for SCC    0.00 s
wall time for SCC    0.00 s
speedup  1.00
cpu  time for grad    0.01 s
wall time for grad    0.01 s
 E :    -40.90662325  G :  0.034362    pred/act E change: -0.140D-02 -0.942D-03
Maxdispl :   0.2665   ||displ|| :   0.5064   Lambda : -0.314D-02
Largest |displ|/coords:  0.2665 (   7)  0.2306 (   8)  0.1990 (   4)
................................................................................
.............................. CYCLE   58 ......................................
................................................................................
   1    -41.1119483 -0.411119E+02  0.417E-01    8.27       0.0  T
   2    -41.1120101 -0.617722E-04  0.311E-01    8.31       1.0  T
   3    -41.1120569 -0.467840E-04  0.546E-02    8.41       1.0  T
   4    -41.1120647 -0.777022E-05  0.132E-02    8.36       1.7  T
   5    -41.1120648 -0.144671E-06  0.633E-03    8.36       3.6  T
   6    -41.1120648 -0.419992E-07  0.270E-03    8.36       8.5  T
   7    -41.1120649 -0.845385E-08  0.822E-04    8.36      27.9  T
speedup  0.91
cpu  time for SCC    0.00 s
wall time for SCC    0.00 s
speedup  0.93
cpu  time for grad    0.01 s
wall time for grad    0.01 s
 E :    -40.90668835  G :  0.046291    pred/act E change: -0.159D-02 -0.651D-04
Maxdispl :   0.1281   ||displ|| :   0.2475   Lambda : -0.383D-02
Largest |displ|/coords:  0.1281 (   7)  0.1136 (   5)  0.1048 (  13)
................................................................................
.............................. CYCLE   59 ......................................
................................................................................
   1    -41.1274996 -0.411275E+02  0.331E-01    8.56       0.0  T
   2    -41.1275330 -0.333659E-04  0.251E-01    8.55       1.0  T
   3    -41.1275600 -0.270477E-04  0.379E-02    8.54       1.0  T
   4    -41.1275643 -0.422997E-05  0.858E-03    8.55       2.7  T
   5    -41.1275643 -0.752829E-07  0.438E-03    8.55       5.2  T
   6    -41.1275643 -0.849523E-08  0.188E-03    8.55      12.2  T
speedup  0.81
cpu  time for SCC    0.00 s
wall time for SCC    0.00 s
speedup  0.90
cpu  time for grad    0.01 s
wall time for grad    0.01 s
 E :    -40.90808587  G :  0.017638    pred/act E change: -0.197D-02 -0.140D-02
Maxdispl :   0.1997   ||displ|| :   0.3420   Lambda : -0.148D-02
Largest |displ|/coords:  0.1997 (   4)  0.1484 (   6)  0.1174 (   1)
................................................................................
.............................. CYCLE   60 ......................................
................................................................................
   1    -41.1199676 -0.411200E+02  0.328E-01    8.45       0.0  T
   2    -41.1199983 -0.306894E-04  0.244E-01    8.45       1.0  T
   3    -41.1200238 -0.254988E-04  0.423E-02    8.47       1.0  T
   4    -41.1200272 -0.345464E-05  0.115E-02    8.48       2.0  T
   5    -41.1200274 -0.123721E-06  0.470E-03    8.48       4.9  T
   6    -41.1200274 -0.231756E-07  0.237E-03    8.47       9.7  T
   7    -41.1200274 -0.662815E-08  0.710E-04    8.47      32.3  T
speedup  0.95
cpu  time for SCC    0.00 s
wall time for SCC    0.00 s
speedup  1.05
cpu  time for grad    0.01 s
wall time for grad    0.01 s
 E :    -40.90831870  G :  0.029976    pred/act E change: -0.203D-02 -0.233D-03
Maxdispl :   0.0768   ||displ|| :   0.1573   Lambda : -0.121D-02
Largest |displ|/coords:  0.0768 (   7)  0.0569 (  15)  0.0525 (  12)
................................................................................
.............................. CYCLE   61 ......................................
................................................................................
   1    -41.1237001 -0.411237E+02  0.149E-01    8.59       0.0  T
   2    -41.1237094 -0.924246E-05  0.110E-01    8.60       1.0  T
   3    -41.1237145 -0.519084E-05  0.242E-02    8.62       1.0  T
   4    -41.1237156 -0.106110E-05  0.703E-03    8.61       3.3  T
   5    -41.1237157 -0.926958E-07  0.221E-03    8.61      10.4  T
   6    -41.1237157 -0.280993E-08  0.126E-03    8.61      18.2  T
speedup  0.81
cpu  time for SCC    0.00 s
wall time for SCC    0.00 s
speedup  1.01
cpu  time for grad    0.01 s
wall time for grad    0.01 s
 E :    -40.90905274  G :  0.013075    pred/act E change: -0.828D-03 -0.734D-03
Maxdispl :   0.1177   ||displ|| :   0.2606   Lambda : -0.630D-03
Largest |displ|/coords:  0.1177 (   4)  0.1088 (  10)  0.0842 (   2)
................................................................................
.............................. CYCLE   62 ......................................
................................................................................
   1    -41.1231813 -0.411232E+02  0.201E-01    8.61       0.0  T
   2    -41.1231868 -0.545617E-05  0.150E-01    8.62       1.0  T
   3    -41.1231915 -0.467875E-05  0.192E-02    8.65       1.2  T
   4    -41.1231921 -0.621119E-06  0.767E-03    8.64       3.0  T
   5    -41.1231921 -0.530974E-07  0.203E-03    8.64      11.3  T
   6    -41.1231921 -0.373056E-08  0.136E-03    8.64      16.9  T
speedup  0.81
cpu  time for SCC    0.00 s
wall time for SCC    0.00 s
speedup  1.00
cpu  time for grad    0.01 s
wall time for grad    0.01 s
 E :    -40.90944862  G :  0.012079    pred/act E change: -0.618D-03 -0.396D-03
Maxdispl :   0.1370   ||displ|| :   0.3332   Lambda : -0.810D-03
Largest |displ|/coords:  0.1370 (   4)  0.1364 (   3)  0.1103 (  12)
................................................................................
.............................. CYCLE   63 ......................................
................................................................................
   1    -41.1204984 -0.411205E+02  0.382E-01    8.81       0.0  T
   2    -41.1205252 -0.268628E-04  0.286E-01    8.83       1.0  T
   3    -41.1205393 -0.140310E-04  0.416E-02    8.88       1.0  T
   4    -41.1205438 -0.455873E-05  0.120E-02    8.88       1.9  T
   5    -41.1205440 -0.222977E-06  0.432E-03    8.87       5.3  T
   6    -41.1205441 -0.106370E-07  0.226E-03    8.87      10.1  T
   7    -41.1205441 -0.862366E-08  0.919E-04    8.87      25.0  T
speedup  1.16
cpu  time for SCC    0.00 s
wall time for SCC    0.00 s
speedup  1.04
cpu  time for grad    0.01 s
wall time for grad    0.01 s
 E :    -40.90978545  G :  0.027992    pred/act E change: -0.336D-03 -0.337D-03
Maxdispl :   0.1290   ||displ|| :   0.3231   Lambda : -0.134D-02
Largest |displ|/coords:  0.1290 (   5)  0.1206 (   4)  0.1198 (   6)
................................................................................
.............................. CYCLE   64 ......................................
................................................................................
   1    -41.1243260 -0.411243E+02  0.378E-01    8.95       0.0  T
   2    -41.1243646 -0.386557E-04  0.283E-01    8.95       1.0  T
   3    -41.1243923 -0.276931E-04  0.482E-02    8.97       1.0  T
   4    -41.1243972 -0.492074E-05  0.163E-02    8.98       1.4  T
   5    -41.1243976 -0.323479E-06  0.493E-03    8.98       4.7  T
   6    -41.1243976 -0.198092E-07  0.282E-03    8.98       8.1  T
speedup  1.08
cpu  time for SCC    0.00 s
wall time for SCC    0.00 s
speedup  1.01
cpu  time for grad    0.01 s
wall time for grad    0.01 s
 E :    -40.90973610  G :  0.037634    pred/act E change: -0.450D-03  0.493D-04
Maxdispl :   0.0963   ||displ|| :   0.1993   Lambda : -0.192D-02
Largest |displ|/coords:  0.0963 (   2)  0.0874 (  13)  0.0674 (   7)
................................................................................
.............................. CYCLE   65 ......................................
................................................................................
   1    -41.1260603 -0.411261E+02  0.271E-01    8.68       0.0  T
   2    -41.1260935 -0.332235E-04  0.202E-01    8.66       1.0  T
   3    -41.1261095 -0.159798E-04  0.469E-02    8.61       1.0  T
   4    -41.1261136 -0.414344E-05  0.164E-02    8.62       1.4  T
   5    -41.1261139 -0.310300E-06  0.382E-03    8.62       6.0  T
   6    -41.1261140 -0.173446E-07  0.206E-03    8.62      11.1  T
speedup  1.05
cpu  time for SCC    0.00 s
wall time for SCC    0.00 s
speedup  1.00
cpu  time for grad    0.01 s
wall time for grad    0.01 s
 E :    -40.91025609  G :  0.022512    pred/act E change: -0.740D-03 -0.520D-03
Maxdispl :   0.0714   ||displ|| :   0.1636   Lambda : -0.102D-02
Largest |displ|/coords:  0.0714 (  14)  0.0600 (   1)  0.0586 (   6)
................................................................................
.............................. CYCLE   66 ......................................
................................................................................
[...]
................................................................................
   1    -41.1272354 -0.411272E+02  0.832E-02    8.72       0.0  T
   2    -41.1272361 -0.781118E-06  0.627E-02    8.72       1.0  T
   3    -41.1272370 -0.822342E-06  0.591E-03    8.72       3.9  T
   4    -41.1272370 -0.827530E-07  0.267E-03    8.72       8.6  T
   5    -41.1272371 -0.662622E-08  0.798E-04    8.72      28.7  T
   6    -41.1272371 -0.674454E-09  0.484E-04    8.72      47.4  T
speedup  1.05
cpu  time for SCC    0.00 s
wall time for SCC    0.00 s
speedup  1.05
cpu  time for grad    0.01 s
wall time for grad    0.01 s
 E :    -40.91578566  G :  0.001031    pred/act E change: -0.622D-05 -0.109D-04
Maxdispl :   0.0125   ||displ|| :   0.0273   Lambda : -0.433D-05
Largest |displ|/coords:  0.0125 (   2)  0.0110 (  12)  0.0104 (   1)
................................................................................
.............................. CYCLE  125 ......................................
................................................................................
   1    -41.1273389 -0.411273E+02  0.256E-02    8.73       0.0  T
   2    -41.1273390 -0.650672E-07  0.193E-02    8.73       1.2  T
   3    -41.1273391 -0.790912E-07  0.195E-03    8.73      11.8  T
   4    -41.1273391 -0.451391E-08  0.710E-04    8.73      32.3  T
   5    -41.1273391 -0.461945E-09  0.225E-04    8.73     101.9  T
speedup  0.97
cpu  time for SCC    0.00 s
wall time for SCC    0.00 s
speedup  0.92
cpu  time for grad    0.01 s
wall time for grad    0.01 s
 E :    -40.91578803  G :  0.001293    pred/act E change: -0.102D-04 -0.237D-05
Maxdispl :   0.0108   ||displ|| :   0.0198   Lambda : -0.267D-05
Largest |displ|/coords:  0.0108 (  12)  0.0084 (   3)  0.0074 (   9)
................................................................................
.............................. CYCLE  126 ......................................
................................................................................
   1    -41.1273899 -0.411274E+02  0.169E-02    8.73       0.0  T
   2    -41.1273899 -0.321535E-07  0.125E-02    8.73       1.8  T
   3    -41.1273899 -0.319764E-07  0.168E-03    8.73      13.6  T
   4    -41.1273899 -0.302134E-08  0.539E-04    8.73      42.5  T
   5    -41.1273899 -0.373014E-09  0.170E-04    8.73     135.1  T
speedup  0.97
cpu  time for SCC    0.00 s
wall time for SCC    0.00 s
speedup  0.91
cpu  time for grad    0.01 s
wall time for grad    0.01 s
 E :    -40.91578997  G :  0.000783    pred/act E change: -0.217D-05 -0.194D-05
Maxdispl :   0.0151   ||displ|| :   0.0268   Lambda : -0.253D-05
Largest |displ|/coords:  0.0151 (   3)  0.0123 (  12)  0.0070 (   9)
................................................................................
.............................. CYCLE  127 ......................................
................................................................................
   1    -41.1272785 -0.411273E+02  0.247E-02    8.73       0.0  T
   2    -41.1272786 -0.614670E-07  0.185E-02    8.73       1.2  T
   3    -41.1272787 -0.626238E-07  0.213E-03    8.73      10.8  T
   4    -41.1272787 -0.611288E-08  0.874E-04    8.73      26.2  T
   5    -41.1272787 -0.696026E-09  0.252E-04    8.73      91.2  T
speedup  0.94
cpu  time for SCC    0.00 s
wall time for SCC    0.00 s
speedup  0.91
cpu  time for grad    0.01 s
wall time for grad    0.01 s
 E :    -40.91579139  G :  0.000530    pred/act E change: -0.134D-05 -0.142D-05
Maxdispl :   0.0113   ||displ|| :   0.0188   Lambda : -0.120D-05
Largest |displ|/coords:  0.0113 (   2)  0.0075 (   4)  0.0062 (   3)
................................................................................
.............................. CYCLE  128 ......................................
................................................................................
   1    -41.1273700 -0.411274E+02  0.122E-02    8.73       0.0  T
   2    -41.1273700 -0.137592E-07  0.912E-03    8.73       2.5  T
   3    -41.1273700 -0.158929E-07  0.941E-04    8.73      24.4  T
   4    -41.1273700 -0.854143E-09  0.271E-04    8.73      84.5  T
speedup  0.80
cpu  time for SCC    0.00 s
wall time for SCC    0.00 s
speedup  0.98
cpu  time for grad    0.01 s
wall time for grad    0.01 s
 E :    -40.91579208  G :  0.000502    pred/act E change: -0.126D-05 -0.682D-06
Maxdispl :   0.0050   ||displ|| :   0.0107   Lambda : -0.721D-06
Largest |displ|/coords:  0.0050 (   5)  0.0044 (   3)  0.0036 (   2)
................................................................................
.............................. CYCLE  129 ......................................
................................................................................
   1    -41.1273180 -0.411273E+02  0.753E-03    8.73       0.0  T
   2    -41.1273180 -0.641016E-08  0.568E-03    8.73       4.0  T
   3    -41.1273180 -0.628835E-08  0.605E-04    8.72      37.9  T
   4    -41.1273180 -0.778670E-09  0.224E-04    8.72     102.6  T
speedup  0.77
cpu  time for SCC    0.00 s
wall time for SCC    0.00 s
speedup  0.96
cpu  time for grad    0.01 s
wall time for grad    0.01 s
 E :    -40.91579265  G :  0.000426    pred/act E change: -0.602D-06 -0.570D-06
Maxdispl :   0.0107   ||displ|| :   0.0209   Lambda : -0.108D-05
Largest |displ|/coords:  0.0107 (   2)  0.0094 (   5)  0.0071 (   8)
................................................................................
.............................. CYCLE  130 ......................................
................................................................................
   1    -41.1272935 -0.411273E+02  0.120E-02    8.72       0.0  T
   2    -41.1272935 -0.202720E-07  0.902E-03    8.72       2.5  T
   3    -41.1272936 -0.149538E-07  0.119E-03    8.72      19.3  T
   4    -41.1272936 -0.316306E-08  0.372E-04    8.72      61.7  T
   5    -41.1272936 -0.104059E-09  0.103E-04    8.72     222.3  T
speedup  0.94
cpu  time for SCC    0.00 s
wall time for SCC    0.00 s
speedup  1.02
cpu  time for grad    0.01 s
wall time for grad    0.01 s
 E :    -40.91579333  G :  0.000348    pred/act E change: -0.361D-06 -0.688D-06
Maxdispl :   0.0067   ||displ|| :   0.0139   Lambda : -0.511D-06
Largest |displ|/coords:  0.0067 (   3)  0.0062 (   5)  0.0054 (  11)
................................................................................
.............................. CYCLE  131 ......................................
................................................................................
   1    -41.1272512 -0.411273E+02  0.989E-03    8.72       0.0  T
   2    -41.1272512 -0.805423E-08  0.743E-03    8.72       3.1  T
   3    -41.1272512 -0.925171E-08  0.646E-04    8.72      35.5  T
   4    -41.1272512 -0.730218E-09  0.274E-04    8.72      83.7  T
speedup  1.20
cpu  time for SCC    0.00 s
wall time for SCC    0.00 s
speedup  0.96
cpu  time for grad    0.01 s
wall time for grad    0.01 s
 E :    -40.91579368  G :  0.000396    pred/act E change: -0.540D-06 -0.350D-06
Maxdispl :   0.0084   ||displ|| :   0.0148   Lambda : -0.514D-06
Largest |displ|/coords:  0.0084 (   2)  0.0063 (   3)  0.0052 (   5)
................................................................................
.............................. CYCLE  132 ......................................
................................................................................
   1    -41.1273002 -0.411273E+02  0.894E-03    8.72       0.0  T
   2    -41.1273002 -0.742364E-08  0.669E-03    8.72       3.4  T
   3    -41.1273002 -0.691240E-08  0.670E-04    8.72      34.2  T
   4    -41.1273002 -0.779814E-09  0.235E-04    8.72      97.5  T
speedup  0.77
cpu  time for SCC    0.00 s
wall time for SCC    0.00 s
speedup  0.96
cpu  time for grad    0.01 s
wall time for grad    0.01 s
 E :    -40.91579403  G :  0.000240    pred/act E change: -0.255D-06 -0.341D-06
Maxdispl :   0.0054   ||displ|| :   0.0085   Lambda : -0.275D-06
Largest |displ|/coords:  0.0054 (   3)  0.0030 (  11)  0.0024 (  12)
................................................................................
.............................. CYCLE  133 ......................................
................................................................................
   1    -41.1273207 -0.411273E+02  0.674E-03    8.72       0.0  T
   2    -41.1273207 -0.424463E-08  0.505E-03    8.72       4.5  T
   3    -41.1273207 -0.473776E-08  0.516E-04    8.72      44.4  T
   4    -41.1273207 -0.390287E-09  0.186E-04    8.72     123.5  T
speedup  1.20
cpu  time for SCC    0.00 s
wall time for SCC    0.00 s
speedup  0.98
cpu  time for grad    0.01 s
wall time for grad    0.01 s
 E :    -40.91579420  G :  0.000176    pred/act E change: -0.257D-06 -0.179D-06
Maxdispl :   0.0028   ||displ|| :   0.0047   Lambda : -0.136D-06
Largest |displ|/coords:  0.0028 (   3)  0.0019 (   2)  0.0012 (   6)
................................................................................
.............................. CYCLE  134 ......................................
................................................................................
   1    -41.1273509 -0.411274E+02  0.371E-03    8.72       0.0  T
   2    -41.1273509 -0.202686E-08  0.278E-03    8.72       8.3  T
   3    -41.1273509 -0.119943E-08  0.339E-04    8.72      67.7  T
   4    -41.1273509 -0.334595E-09  0.125E-04    8.72     183.4  T
speedup  1.20
cpu  time for SCC    0.00 s
wall time for SCC    0.00 s
speedup  0.99
cpu  time for grad    0.01 s
wall time for grad    0.01 s
 E :    -40.91579430  G :  0.000161    pred/act E change: -0.138D-06 -0.101D-06
Maxdispl :   0.0024   ||displ|| :   0.0050   Lambda : -0.103D-06
Largest |displ|/coords:  0.0024 (   3)  0.0022 (   8)  0.0017 (  12)
................................................................................
.............................. CYCLE  135 ......................................
................................................................................
   1    -41.1273600 -0.411274E+02  0.443E-03    8.72       0.0  T
   2    -41.1273600 -0.276521E-08  0.334E-03    8.72       6.9  T
   3    -41.1273600 -0.201481E-08  0.373E-04    8.72      61.5  T
   4    -41.1273600 -0.419284E-09  0.149E-04    8.72     153.6  T
speedup  0.80
cpu  time for SCC    0.00 s
wall time for SCC    0.00 s
speedup  0.98
cpu  time for grad    0.01 s
wall time for grad    0.01 s
 E :    -40.91579437  G :  0.000152    pred/act E change: -0.679D-07 -0.693D-07
Maxdispl :   0.0013   ||displ|| :   0.0029   Lambda : -0.479D-07
Largest |displ|/coords:  0.0013 (   8)  0.0011 (  14)  0.0011 (  12)

   *** GEOMETRY OPTIMIZATION CONVERGED AFTER 135 ITERATIONS ***

------------------------------------------------------------------------
 total energy gain (kcal):     -0.1530
------------------------------------------------------------------------
================
 final structure:
================
$coord
        0.59645619506385        0.41218226710863       -2.88729348671912      S 
        2.92350211558913       -0.53036458851463       -3.88809445891214      O 
        1.22681592665322        2.32837954153493       -0.78394442080729      O 
       -1.27562993451874        1.42287847256851       -4.52257358261201      O 
       -0.69849719707046       -1.82083538722147       -1.38420089784171      O 
        0.67535024691763       -2.70758637288607       -0.50531333209382      H 
        3.80104122120595       -3.32819693954501        0.13830646523861      O 
        4.51353241144329       -4.95505612396716       -0.23415032828052      H 
        4.10621945867405       -2.26711900669021       -1.34750222593010      H 
        1.15503776091277       -0.26386876115039        3.87715446544408      O 
        2.26764214314044       -1.63311177407274        3.43492379689046      H 
        1.63261528665043        1.12413566242450        2.79621972147064      H 
       -3.89726884016281       -0.01621617082406        2.50468682812317      O 
       -3.71740487257592       -1.28049946737781        1.20880492573576      H 
       -2.33014356820916       -0.08801354956882        3.46875292119837      H 
       -3.11999408232705        4.03292958450415       -0.29799149492266      O 
       -3.76314795135006        2.71201142571287        0.87291216055282      H 
       -0.47447972515345        3.29605614067130       -0.46219674352782      H 
       -3.62164659490951        3.56229504728638       -1.98850033191761      H 
$end
 
 Bond Distances (Angstroems)
 ---------------------------
S1-O2=1.4303         S1-O3=1.5422         S1-O4=1.4200         S1-O5=1.5807         O2-S1=1.4303         O3-S1=1.5422         
O3-H18=1.0496        O4-S1=1.4200         O5-S1=1.5807         O5-H6=0.9824         H6-O5=0.9824         O7-H8=0.9603         
O7-H9=0.9796         H8-O7=0.9603         H9-O7=0.9796         O10-H11=0.9625       O10-H12=0.9647       H11-O10=0.9625       
H12-O10=0.9647       O13-H14=0.9628       O13-H15=0.9744       H14-O13=0.9628       H15-O13=0.9744       O16-H17=0.9942       
O16-H19=0.9658       H17-O16=0.9942       H18-O3=1.0496        H19-O16=0.9658       
 O  H  Rav=0.9796 sigma=0.0255  Rmin=0.9603  Rmax=1.0496    10
 S  O  Rav=1.4933 sigma=0.0696  Rmin=1.4200  Rmax=1.5807     4
 
 selected bond angles (degree)
 --------------------
O3-S1-O2=108.08                O4-S1-O2=120.42                O4-S1-O3=110.06                O5-S1-O2=107.39                
O5-S1-O3=102.83                O5-S1-O4=106.61                H18-O3-S1=104.62               H6-O5-S1=105.93                
H9-O7-H8=106.52                H12-O10-H11=105.59             
 
 selected dihedral angles (degree)
 ---------------------------------
H18-O3-S1-O2=165.45           H18-O3-S1-O4= 32.11           H18-O3-S1-O5=278.83           H6-O5-S1-O2= 39.26            
H6-O5-S1-O3=285.38            H6-O5-S1-O4=169.59            
 
 CMA Distance (Angstroems)
 ---------------------------
R(CMA):  2.2779

========================================================================
 FINAL SINGLEPOINT CALCULATION ON OPTIMIZED GEOMETRY
========================================================================

 Ncao       : 52
 Nao        : 51
 Nshell     : 29
 Nel        : 64
 T(el)      :   300.0
 intcut     :    25.0
 scfconv/Eh :  0.100E-05
   qconv/e  :  0.100E-03
 intneglect :  0.100E-07
 broydamp   :      0.250
 iter      E             dE          RMSdq      gap      omega  full diag
   1    -41.1273600 -0.411274E+02  0.521E-05    8.72       0.0  T
   2    -41.1273600 -0.178346E-11  0.330E-05    8.72     694.2  T
   3    -41.1273600 -0.945022E-12  0.708E-06    8.72    3242.3  T
speedup  1.11
cpu  time for SCC    0.00 s
wall time for SCC    0.00 s

   *** convergence criteria satisfied after 3 iterations ***

          eigenvalues
 #    :          20         21         22         23         24         25         26         27
 occ. :        2.000      2.000      2.000      2.000      2.000      2.000      2.000      2.000
 eps  :       -14.401    -14.333    -14.259    -13.877    -13.759    -13.353    -13.191    -13.095
 #    :          28         29         30         31         32         33         34         35
 occ. :        2.000      2.000      2.000      2.000      2.000      0.000      0.000      0.000
 eps  :       -13.024    -12.782    -12.722    -12.408    -12.316     -3.595     -1.295     -0.608
 #    :          36         37         38         39         40         41         42         43
 occ. :        0.000      0.000      0.000      0.000      0.000      0.000      0.000      0.000
 eps  :         0.134      0.482      1.128      2.687      3.634      4.159      5.443      5.871


   #   Z            q   n(s)   n(p)   n(d)      C6AA      α(0)
   1  16 S      1.708  1.584  1.769  0.940    88.592    15.842
   2   8 O     -0.684  1.759  4.926  0.000    28.286     7.131
   3   8 O     -0.641  1.766  4.874  0.000    26.160     6.904
   4   8 O     -0.665  1.754  4.911  0.000    27.771     7.066
   5   8 O     -0.620  1.756  4.864  0.000    25.639     6.836
   6   1 H      0.381  0.619  0.000  0.000     0.517     1.128
   7   8 O     -0.613  1.740  4.873  0.000    25.501     6.816
   8   1 H      0.303  0.697  0.000  0.000     0.712     1.325
   9   1 H      0.328  0.672  0.000  0.000     0.644     1.260
  10   8 O     -0.603  1.739  4.863  0.000    25.256     6.783
  11   1 H      0.305  0.695  0.000  0.000     0.707     1.321
  12   1 H      0.306  0.694  0.000  0.000     0.704     1.318
  13   8 O     -0.603  1.747  4.855  0.000    25.248     6.782
  14   1 H      0.299  0.701  0.000  0.000     0.723     1.335
  15   1 H      0.328  0.672  0.000  0.000     0.641     1.258
  16   8 O     -0.590  1.751  4.839  0.000    24.926     6.740
  17   1 H      0.349  0.651  0.000  0.000     0.590     1.207
  18   1 H      0.394  0.606  0.000  0.000     0.490     1.096
  19   1 H      0.318  0.682  0.000  0.000     0.669     1.285

 Mol. C6AA /au·bohr⁶  :       3360.064470
 Mol. C8AA /au·bohr⁸  :      75974.307719
 Mol. α(0) /au        :         83.430483

 
 Wiberg/Mayer (AO) data. WBOs > 0.1 written file <wbo>
 largest (>0.05) Wiberg bond orders for each atom
           total WBO             WBO to atom ...
     1  S   4.830    O    4 1.467    O    2 1.409    O    3 1.002    O    5 0.926
     2  O   1.780    S    1 1.409    O    4 0.124    O    5 0.088    O    3 0.080
     3  O   1.958    S    1 1.002    H   18 0.626    O    4 0.097    O    2 0.080    O    5 0.065    O   16 0.063
     4  O   1.790    S    1 1.467    O    2 0.124    O    3 0.097    O    5 0.075
     5  O   1.967    S    1 0.926    H    6 0.765    O    2 0.088    O    4 0.075    O    3 0.065
     6  H   0.855    O    5 0.765    O    7 0.070
     7  O   1.880    H    8 0.903    H    9 0.839    H    6 0.070
     8  H   0.908    O    7 0.903
     9  H   0.893    O    7 0.839
    10  O   1.852    H   11 0.892    H   12 0.887
    11  H   0.907    O   10 0.892
    12  H   0.906    O   10 0.887
    13  O   1.896    H   14 0.898    H   15 0.855    H   17 0.080
    14  H   0.910    O   13 0.898
    15  H   0.892    O   13 0.855
    16  O   1.998    H   19 0.886    H   17 0.797    H   18 0.203    O    3 0.063
    17  H   0.878    O   16 0.797    O   13 0.080
    18  H   0.845    O    3 0.626    O   16 0.203
    19  H   0.899    O   16 0.886
 MOs/occ written to file <molden.input>
 
molecular dipole:
                 x           y           z       tot (Debye)
 q only:        0.304      -0.875       0.531
   full:        0.707      -1.313       0.172       3.816
molecular quadrupole (traceless):
                xx          xy          yy          xz          yz          zz
 q only:        2.348      -3.730       8.420       3.095       0.917     -10.768
  q+dip:        3.676      -3.940       9.226       4.186       0.939     -12.902
   full:        3.237      -4.190       9.650       4.105       0.834     -12.887

SCC energy    :     -41.1273600
rep           :       0.2114780
ES            :       0.1838788
AES           :      -0.0396268
AXC           :      -0.0101027
disp          :      -0.0139197
XB            :       0.0000000
fix           :       0.0000000
total E       :     -40.9157944
atomizationE  :       3.7099816     2328.05
(atE without considering molecular charge,
 total energy contains solvation terms)
H-L gap (eV)  :          8.7207
optimized geometry written to: xtbopt.xyz


------------------------------------------------------------------------
 * finished run on 2019/09/03 at 12:41:29.789     
------------------------------------------------------------------------
 total:
 * wall-time:     0 d,  0 h,  0 min,  2.084 sec
 *  cpu-time:     0 d,  0 h,  0 min,  2.062 sec
 * ratio c/w:     0.989 speedup
 SCF:
 * wall-time:     0 d,  0 h,  0 min,  0.097 sec
 *  cpu-time:     0 d,  0 h,  0 min,  0.093 sec
 * ratio c/w:     0.962 speedup
 ANC optimizer:
 * wall-time:     0 d,  0 h,  0 min,  1.965 sec
 *  cpu-time:     0 d,  0 h,  0 min,  1.948 sec
 * ratio c/w:     0.991 speedup

