      -----------------------------------------------------------      
     |                   =====================                   |     
     |                           x T B                           |     
     |                   =====================                   |     
     |                         S. Grimme                         |     
     |          Mulliken Center for Theoretical Chemistry        |     
     |                    University of Bonn                     |     
     |                 Version 6.0.1 (SAW181210)                 |     
      -----------------------------------------------------------      

   This program is distributed in the hope that it will be useful,
   but WITHOUT ANY WARRANTY; without even the implied warranty of
   MERCHANTABILITY or FITNESS FOR A PARTICULAR PURPOSE.
   
   FOR NON-COMMERCIAL, ACADEMIA USE ONLY.
   
   Cite this work as:
   S. Grimme, C. Bannwarth, P. Shushkov, J. Comput. Theory Chem., 2017,
   13, 1989-2009.
   C. Bannwarth, S. Ehlert and S. Grimme., ChemRxiv, 2018, preprint.
   http://doi.org/10.26434/chemrxiv.7246238.v1
   
   for sTDA-xTB:
   S. Grimme and C. Bannwarth, J. Chem. Phys., 2016, 145, 054103.
   
   in the mass-spec context:
   V. Asgeirsson, C. Bauer and S. Grimme, Chem. Sci., 2017, 8, 4879.
   
   if GBSA is used:
   P. Shushkov, F. März and S. Grimme, unpublished.
   
   for ANC optimizer:
   S. Grimme, unpublished.
   Rational Function algorithm used in ANCopt:
   F. Eckert, P. Pulay, H.-J. Werner, J. Comput. Chem., 1997, 18, 1473.
   
   with help from (in alphabetical order)
   C. Bannwarth, F. Bohle, G. Brandenburg, E. Caldeweyher, M. Checinski,
   S. Dohm, S. Ehlert, S. Ehrlich, F. März, H. Neugebauer, J. Pisarek,
   P. Pracht, P. Shushkov, and S. Spicher.
   
 * started run on 2019/09/03 at 12:45:18.295     
========================================================================
 # omp threads = 1
========================================================================
number of atoms            : 19
number of electrons        : 64
charge                     : 0
spin                       : .0
first test random number   : .9081

########################################################################
# WARNING! Please study the warnings concerning your input carefully
#  - XTBPATH is not set, using XTBHOME instead
#  - the use of '-opt' is discouraged, please use '--opt' next time
#  - the use of '-chrg' is discouraged, please use '--chrg' next time
#  - the use of '-uhf' is discouraged, please use '--uhf' next time
########################################################################

           ------------------------------------------------- 
          |                 G F N 2 - x T B                 |
          | Geometry, Frequencies, Noncovalent interactions |
          |            JCTC 2018 parametrisation            |
           ------------------------------------------------- 
      method parameters     
 k(s)        :  1.8500
 k(p)        :  2.2300
 k(d)        :  2.2300
 k(f)        :  2.0000
 kEN (H0ij)  : -2.0000
 D4 a1       :  0.5200
 D4 a2       :  5.0000
 D4 s6       :  1.0000
 D4 s8       :  2.7000
 D4 s9       :  5.0000
 alphaj      :  2.0000


            Z     q(EN)     CN     RAES       Cart. coordinates
     1  S   6.0    0.64    4.30    4.23     1.06194    -0.19299    -2.34698
     2  O   6.0   -0.31    1.18    1.80    -1.73786    -0.03451    -2.60018
     3  O   6.0   -0.30    1.21    1.80     2.12873     2.39943    -2.08343
     4  O   6.0   -0.32    1.22    1.80     1.71371    -1.71231    -0.06773
     5  O   6.0   -0.25    2.08    1.84     2.12837    -1.40770    -4.60523
     6  H   1.0    0.15    1.21    1.47     1.70889    -0.42940    -6.07427
     7  O   6.0   -0.28    2.04    1.83    -4.05982     2.74499     0.93003
     8  H   1.0    0.18    1.03    1.43    -3.75852     1.67189    -0.50952
     9  H   1.0    0.15    0.97    1.43    -5.57143     2.09363     1.70810
    10  O   6.0   -0.25    1.92    1.82     0.17001    -6.93840    -1.99879
    11  H   1.0    0.15    0.97    1.43    -1.58433    -6.45298    -1.96351
    12  H   1.0    0.16    1.00    1.43     1.10329    -5.38083    -1.86623
    13  O   6.0   -0.28    2.04    1.83     1.71325     0.13754     4.56358
    14  H   1.0    0.18    1.06    1.44     1.85182    -0.73734     2.97298
    15  H   1.0    0.15    0.97    1.43     1.58449    -1.17081     5.82306
    16  O   6.0   -0.21    2.90    2.55     0.46358     4.22430     2.17199
    17  H   1.0    0.15    1.05    1.44     1.39482     4.06101     0.56078
    18  H   1.0    0.14    1.04    1.43    -1.38496     4.11038     1.92717
    19  H   1.0    0.14    1.04    1.43     1.07400     3.01410     3.45819

  Z AO/shell   Hii/eV     exponent
  1     Wed Apr 25 08:07:45 CEST 2018   EN: 2.200 GM2: 0.406  GM3: 0.0800  RAES: 1.40
     1s    -10.707211    1.230000
  8     Wed Apr 25 08:07:45 CEST 2018   EN: 3.440 GM2: 0.452  GM3:-0.0517  RAES: 1.80
     2s    -20.229985    2.439742
     2p    -15.503117    2.137023
 16     Tue Apr 24 11:44:34 CEST 2018   EN: 2.580 GM2: 0.340  GM3:-0.0502  RAES: 3.10
     3s    -20.029654    1.981333
     3p    -11.377694    2.025643
     3d     -0.420282    1.702555
 no old-style atom pair restraining (fixing) potential

molecular fragmentation (1/2 indicates fragments):
1111112222222222222
# atoms in fragment 1/2:     6    13
 fragment masses (1/2) :       97.07       73.07
CMA distance (Bohr)    :   4.087
constraining FC (au)   :  0.0500
           ------------------------------------------------- 
          |        Self-Consistent Charge Iterations        |
           ------------------------------------------------- 

 Ncao       : 52
 Nao        : 51
 Nshell     : 29
 Nel        : 64
 T(el)      :   300.0
 intcut     :    25.0
 scfconv/Eh :  0.100E-05
   qconv/e  :  0.100E-03
 intneglect :  0.100E-07
 broydamp   :      0.250
 iter      E             dE          RMSdq      gap      omega  full diag
   1    -41.0156237 -0.410156E+02  0.770E+00   10.51       0.0  T
   2    -41.0563812 -0.407575E-01  0.556E+00   10.01       1.0  T
   3    -41.0876126 -0.312315E-01  0.147E+00    8.67       1.0  T
   4    -41.0920959 -0.448331E-02  0.625E-01    8.93       1.0  T
   5    -41.0927815 -0.685560E-03  0.340E-01    8.89       1.0  T
   6    -41.0931550 -0.373464E-03  0.149E-01    8.89       1.0  T
   7    -41.0932454 -0.904131E-04  0.537E-02    8.92       1.0  T
   8    -41.0932560 -0.105930E-04  0.312E-02    8.91       1.0  T
   9    -41.0932604 -0.438717E-05  0.111E-02    8.91       2.1  T
  10    -41.0932609 -0.544595E-06  0.269E-03    8.90       8.5  T
  11    -41.0932609 -0.188812E-07  0.107E-03    8.90      21.5  T
  12    -41.0932609 -0.404323E-08  0.480E-04    8.90      47.8  T
  13    -41.0932609 -0.889798E-09  0.107E-04    8.90     213.4  T
speedup  0.98
cpu  time for SCC    0.01 s
wall time for SCC    0.01 s

   *** convergence criteria satisfied after 13 iterations ***

          eigenvalues
 #    :          20         21         22         23         24         25         26         27
 occ. :        2.000      2.000      2.000      2.000      2.000      2.000      2.000      2.000
 eps  :       -14.346    -13.231    -13.089    -12.973    -12.574    -12.360    -12.082    -11.856
 #    :          28         29         30         31         32         33         34         35
 occ. :        2.000      2.000      2.000      2.000      2.000      0.000      0.000      0.000
 eps  :       -11.725    -11.302    -11.217    -11.188    -10.995     -2.091     -0.959     -0.204
 #    :          36         37         38         39         40         41         42         43
 occ. :        0.000      0.000      0.000      0.000      0.000      0.000      0.000      0.000
 eps  :         0.895      1.220      1.925      3.454      3.705      3.800      6.980      7.481


   #   Z            q   n(s)   n(p)   n(d)      C6AA      α(0)
   1  16 S      1.593  1.584  1.843  0.980    91.248    16.077
   2   8 O     -0.761  1.779  4.982  0.000    30.425     7.395
   3   8 O     -0.765  1.773  4.991  0.000    30.530     7.408
   4   8 O     -0.738  1.772  4.965  0.000    29.756     7.314
   5   8 O     -0.541  1.717  4.824  0.000    23.788     6.584
   6   1 H      0.362  0.638  0.000  0.000     0.552     1.163
   7   8 O     -0.614  1.728  4.886  0.000    25.517     6.818
   8   1 H      0.339  0.661  0.000  0.000     0.614     1.231
   9   1 H      0.294  0.706  0.000  0.000     0.741     1.352
  10   8 O     -0.580  1.737  4.843  0.000    24.718     6.710
  11   1 H      0.277  0.723  0.000  0.000     0.795     1.401
  12   1 H      0.293  0.707  0.000  0.000     0.741     1.352
  13   8 O     -0.627  1.728  4.899  0.000    25.836     6.860
  14   1 H      0.340  0.660  0.000  0.000     0.613     1.230
  15   1 H      0.296  0.704  0.000  0.000     0.734     1.346
  16   8 O     -0.418  1.638  4.779  0.000    21.136     6.209
  17   1 H      0.415  0.585  0.000  0.000     0.458     1.064
  18   1 H      0.416  0.584  0.000  0.000     0.457     1.062
  19   1 H      0.419  0.581  0.000  0.000     0.452     1.056

 Mol. C6AA /au·bohr⁶  :       3380.634465
 Mol. C8AA /au·bohr⁸  :      76703.866994
 Mol. α(0) /au        :         83.630962

 
 Wiberg/Mayer (AO) data. WBOs > 0.1 written file <wbo>
 largest (>0.05) Wiberg bond orders for each atom
           total WBO             WBO to atom ...
     1  S   4.925    O    4 1.320    O    2 1.301    O    3 1.271    O    5 1.001
     2  O   1.670    S    1 1.301    O    3 0.115    O    4 0.114    O    5 0.074
     3  O   1.683    S    1 1.271    O    2 0.115    O    4 0.112    H   17 0.083    O    5 0.069
     4  O   1.708    S    1 1.320    O    2 0.114    O    3 0.112    H   14 0.057    O    5 0.054
     5  O   2.051    S    1 1.001    H    6 0.845    O    2 0.074    O    3 0.069    O    4 0.054
     6  H   0.868    O    5 0.845
     7  O   1.867    H    9 0.905    H    8 0.835    H   18 0.076
     8  H   0.885    O    7 0.835
     9  H   0.914    O    7 0.905
    10  O   1.831    H   11 0.923    H   12 0.902
    11  H   0.923    O   10 0.923
    12  H   0.914    O   10 0.902
    13  O   1.848    H   15 0.899    H   14 0.825    H   19 0.071
    14  H   0.885    O   13 0.825    O    4 0.057
    15  H   0.913    O   13 0.899
    16  O   2.330    H   19 0.748    H   18 0.746    H   17 0.738
    17  H   0.828    O   16 0.738    O    3 0.083
    18  H   0.827    O   16 0.746    O    7 0.076
    19  H   0.825    O   16 0.748    O   13 0.071
 MOs/occ written to file <molden.input>
 
molecular dipole:
                 x           y           z       tot (Debye)
 q only:       -0.760       2.120       1.447
   full:       -0.855       1.631       0.793       5.097
molecular quadrupole (traceless):
                xx          xy          yy          xz          yz          zz
 q only:       -0.666       2.488     -10.228      -2.574       1.568      10.894
  q+dip:        2.643       3.192     -18.334      -4.040      -2.188      15.691
   full:        2.433       3.169     -18.484      -4.385      -2.051      16.051

SCC energy    :     -41.0932609
rep           :       0.2163417
ES            :       0.2359180
AES           :      -0.0529875
AXC           :      -0.0109372
disp          :      -0.0125011
XB            :       0.0000000
fix           :       0.0000000
total E       :     -40.8768083
atomizationE  :       3.6709955     2303.58
(atE without considering molecular charge,
 total energy contains solvation terms)
H-L gap (eV)  :          8.9047
           ------------------------------------------------- 
          |                 ===============                 |
          |                   A N C O P T                   |
          |                 ===============                 |
          |          Approximate Normal Coordinate          |
          |           Rational Function Optimizer           |
           ------------------------------------------------- 
dumping coords to <xtbopt.coord> and <xtbopt.log>
 optlevel               2
 Maxcycle             380
 Maxmicro              25
 Econv         1.000000000000000E-007
 Gconv         2.000000000000000E-004
 Maxdispl       1.00000000000000     
 Hlow          5.000000000000000E-003
 S6             20.0000000000000     
 Nvar               51

generating ANC from model Hessian ...
 Shifting diagonal of input Hessian by   5.422600639740636E-003
 Lowest  eigenvalues of input Hessian
    0.005000    0.005362   -0.000000   -0.000000   -0.000000    0.000000
    0.000000    0.000000    0.005645    0.005714    0.005777    0.006035
    0.006269    0.006937    0.007294    0.007629    0.010824    0.011542
 Highest eigenvalues
    1.455183    1.555478    1.556823    3.138942    3.211842    3.315842
 
cpu  time for ANC gen    0.01 s
wall time for ANC gen    0.01 s
................................................................................
.............................. CYCLE    1 ......................................
................................................................................
   1    -41.0932609 -0.410933E+02  0.814E-05    8.90       0.0  T
   2    -41.0932609 -0.871836E-11  0.645E-05    8.90     355.8  T
   3    -41.0932609 -0.123492E-10  0.263E-05    8.90     873.0  T
speedup  1.00
cpu  time for SCC    0.00 s
wall time for SCC    0.00 s
speedup  0.95
cpu  time for grad    0.01 s
wall time for grad    0.01 s
 E :    -40.87680828  G :  0.158415    pred/act E change:  0.000D+00  0.340D-07
Maxdispl :   0.2384   ||displ|| :   0.4227   Lambda : -0.203D-01
Largest |displ|/coords:  0.2384 (  21)  0.1349 (   1)  0.1256 (   5)
................................................................................
.............................. CYCLE    2 ......................................
................................................................................
   1    -41.1011389 -0.411011E+02  0.474E-01    9.04       0.0  T
   2    -41.1012362 -0.972830E-04  0.365E-01    9.03       1.0  T
   3    -41.1012833 -0.470458E-04  0.717E-02    9.00       1.0  T
   4    -41.1013008 -0.175142E-04  0.240E-02    9.01       1.0  T
   5    -41.1013018 -0.100236E-05  0.661E-03    9.01       3.5  T
   6    -41.1013018 -0.521792E-07  0.371E-03    9.01       6.2  T
   7    -41.1013019 -0.347434E-07  0.178E-03    9.01      12.9  T
speedup  1.14
cpu  time for SCC    0.00 s
wall time for SCC    0.00 s
speedup  1.05
cpu  time for grad    0.01 s
wall time for grad    0.01 s
 E :    -40.89352062  G :  0.100813    pred/act E change:  0.000D+00 -0.167D-01
Maxdispl :   0.2819   ||displ|| :   0.4223   Lambda : -0.123D-01
Largest |displ|/coords:  0.2819 (  21)  0.1774 (   1)  0.1030 (  22)
................................................................................
.............................. CYCLE    3 ......................................
................................................................................
   1    -41.1070783 -0.411071E+02  0.295E-01    8.89       0.0  T
   2    -41.1072397 -0.161455E-03  0.226E-01    8.85       1.0  T
   3    -41.1073116 -0.718831E-04  0.909E-02    8.78       1.0  T
   4    -41.1073225 -0.108988E-04  0.248E-02    8.78       1.0  T
   5    -41.1073233 -0.735023E-06  0.757E-03    8.78       3.0  T
   6    -41.1073233 -0.839111E-07  0.410E-03    8.78       5.6  T
   7    -41.1073234 -0.459721E-07  0.180E-03    8.78      12.7  T
speedup  0.91
cpu  time for SCC    0.00 s
wall time for SCC    0.00 s
speedup  0.95
cpu  time for grad    0.01 s
wall time for grad    0.01 s
 E :    -40.90300340  G :  0.060539    pred/act E change: -0.119D-01 -0.948D-02
Maxdispl :   0.2505   ||displ|| :   0.3832   Lambda : -0.482D-02
Largest |displ|/coords:  0.2505 (   1)  0.1314 (  21)  0.1155 (   5)
................................................................................
.............................. CYCLE    4 ......................................
................................................................................
   1    -41.1068333 -0.411068E+02  0.263E-01    8.64       0.0  T
   2    -41.1069166 -0.833511E-04  0.200E-01    8.59       1.0  T
   3    -41.1069537 -0.370355E-04  0.635E-02    8.49       1.0  T
   4    -41.1069628 -0.913585E-05  0.192E-02    8.50       1.2  T
   5    -41.1069632 -0.433850E-06  0.569E-03    8.50       4.0  T
   6    -41.1069633 -0.506586E-07  0.322E-03    8.50       7.1  T
speedup  1.08
cpu  time for SCC    0.00 s
wall time for SCC    0.00 s
speedup  1.01
cpu  time for grad    0.01 s
wall time for grad    0.01 s
 E :    -40.90632618  G :  0.037202    pred/act E change: -0.726D-02 -0.332D-02
Maxdispl :   0.1275   ||displ|| :   0.3489   Lambda : -0.251D-02
Largest |displ|/coords:  0.1275 (   7)  0.1220 (  10)  0.1168 (   2)
................................................................................
.............................. CYCLE    5 ......................................
................................................................................
   1    -41.1129441 -0.411129E+02  0.363E-01    8.49       0.0  T
   2    -41.1130239 -0.798322E-04  0.277E-01    8.45       1.0  T
   3    -41.1130640 -0.400995E-04  0.661E-02    8.37       1.0  T
   4    -41.1130760 -0.119689E-04  0.187E-02    8.39       1.2  T
   5    -41.1130766 -0.672218E-06  0.512E-03    8.40       4.5  T
   6    -41.1130767 -0.243696E-07  0.307E-03    8.41       7.5  T
speedup  0.81
cpu  time for SCC    0.00 s
wall time for SCC    0.00 s
speedup  0.91
cpu  time for grad    0.01 s
wall time for grad    0.01 s
 E :    -40.90685415  G :  0.030545    pred/act E change: -0.276D-02 -0.528D-03
Maxdispl :   0.2309   ||displ|| :   0.4127   Lambda : -0.288D-02
Largest |displ|/coords:  0.2309 (   8)  0.2163 (   5)  0.1070 (  11)
................................................................................
.............................. CYCLE    6 ......................................
................................................................................
   1    -41.1075011 -0.411075E+02  0.599E-01    8.22       0.0  T
   2    -41.1075547 -0.536171E-04  0.458E-01    8.23       1.0  T
   3    -41.1076120 -0.572823E-04  0.397E-02    8.27       1.0  T
   4    -41.1076163 -0.432916E-05  0.210E-02    8.26       1.1  T
   5    -41.1076166 -0.279970E-06  0.446E-03    8.26       5.1  T
   6    -41.1076166 -0.140289E-07  0.249E-03    8.26       9.2  T
speedup  1.08
cpu  time for SCC    0.00 s
wall time for SCC    0.00 s
speedup  1.01
cpu  time for grad    0.01 s
wall time for grad    0.01 s
 E :    -40.90656136  G :  0.046986    pred/act E change: -0.141D-02  0.293D-03
Maxdispl :   0.1445   ||displ|| :   0.2888   Lambda : -0.444D-02
Largest |displ|/coords:  0.1445 (   5)  0.1276 (   8)  0.1000 (   3)
................................................................................
.............................. CYCLE    7 ......................................
................................................................................
   1    -41.1096825 -0.411097E+02  0.464E-01    8.34       0.0  T
   2    -41.1097367 -0.541842E-04  0.353E-01    8.33       1.0  T
   3    -41.1097810 -0.442750E-04  0.454E-02    8.33       1.0  T
   4    -41.1097879 -0.693509E-05  0.163E-02    8.35       1.4  T
   5    -41.1097882 -0.348913E-06  0.521E-03    8.36       4.4  T
   6    -41.1097882 -0.134647E-07  0.282E-03    8.36       8.1  T
speedup  1.05
cpu  time for SCC    0.00 s
wall time for SCC    0.00 s
speedup  1.01
cpu  time for grad    0.01 s
wall time for grad    0.01 s
 E :    -40.90778154  G :  0.020964    pred/act E change: -0.168D-02 -0.122D-02
Maxdispl :   0.1301   ||displ|| :   0.2524   Lambda : -0.205D-02
Largest |displ|/coords:  0.1301 (  14)  0.1050 (  17)  0.0827 (   9)
................................................................................
.............................. CYCLE    8 ......................................
................................................................................
   1    -41.1140599 -0.411141E+02  0.470E-01    8.33       0.0  T
   2    -41.1141253 -0.654455E-04  0.356E-01    8.34       1.0  T
   3    -41.1141693 -0.439311E-04  0.537E-02    8.37       1.0  T
   4    -41.1141789 -0.966113E-05  0.154E-02    8.36       1.5  T
   5    -41.1141793 -0.386443E-06  0.455E-03    8.36       5.0  T
   6    -41.1141793 -0.357317E-08  0.243E-03    8.36       9.4  T
speedup  0.81
cpu  time for SCC    0.00 s
wall time for SCC    0.00 s
speedup  1.01
cpu  time for grad    0.01 s
wall time for grad    0.01 s
 E :    -40.90733076  G :  0.028264    pred/act E change: -0.241D-02  0.451D-03
Maxdispl :   0.0875   ||displ|| :   0.1852   Lambda : -0.155D-02
Largest |displ|/coords:  0.0875 (   2)  0.0721 (   3)  0.0703 (   6)
................................................................................
.............................. CYCLE    9 ......................................
................................................................................
   1    -41.1132853 -0.411133E+02  0.272E-01    8.35       0.0  T
   2    -41.1132987 -0.134042E-04  0.207E-01    8.34       1.0  T
   3    -41.1133104 -0.116765E-04  0.227E-02    8.33       1.0  T
   4    -41.1133119 -0.151693E-05  0.904E-03    8.34       2.5  T
   5    -41.1133120 -0.979709E-07  0.210E-03    8.34      10.9  T
   6    -41.1133120 -0.234956E-08  0.120E-03    8.34      19.1  T
speedup  1.08
cpu  time for SCC    0.00 s
wall time for SCC    0.00 s
speedup  1.01
cpu  time for grad    0.01 s
wall time for grad    0.01 s
 E :    -40.90836108  G :  0.009847    pred/act E change: -0.109D-02 -0.103D-02
Maxdispl :   0.1927   ||displ|| :   0.3875   Lambda : -0.106D-02
Largest |displ|/coords:  0.1927 (   2)  0.1544 (   3)  0.1382 (   5)
................................................................................
.............................. CYCLE   10 ......................................
................................................................................
   1    -41.1021309 -0.411021E+02  0.448E-01    8.20       0.0  T
   2    -41.1021733 -0.423744E-04  0.336E-01    8.20       1.0  T
   3    -41.1022016 -0.283143E-04  0.421E-02    8.19       1.0  T
   4    -41.1022080 -0.634690E-05  0.964E-03    8.19       2.4  T
   5    -41.1022080 -0.392529E-07  0.521E-03    8.19       4.4  T
   6    -41.1022080 -0.331866E-07  0.174E-03    8.19      13.2  T
   7    -41.1022081 -0.540724E-08  0.522E-04    8.19      44.0  T
speedup  0.89
cpu  time for SCC    0.00 s
wall time for SCC    0.00 s
speedup  0.94
cpu  time for grad    0.01 s
wall time for grad    0.01 s
 E :    -40.90791147  G :  0.035889    pred/act E change: -0.804D-03  0.450D-03
Maxdispl :   0.1244   ||displ|| :   0.2010   Lambda : -0.207D-02
Largest |displ|/coords:  0.1244 (   3)  0.0832 (   8)  0.0570 (   7)
................................................................................
.............................. CYCLE   11 ......................................
................................................................................
   1    -41.1105850 -0.411106E+02  0.276E-01    8.26       0.0  T
   2    -41.1106092 -0.242155E-04  0.207E-01    8.25       1.0  T
   3    -41.1106241 -0.148908E-04  0.323E-02    8.25       1.0  T
   4    -41.1106277 -0.358673E-05  0.658E-03    8.26       3.5  T
   5    -41.1106277 -0.255061E-07  0.359E-03    8.26       6.4  T
   6    -41.1106277 -0.725679E-08  0.126E-03    8.26      18.3  T
speedup  1.05
cpu  time for SCC    0.00 s
wall time for SCC    0.00 s
speedup  1.01
cpu  time for grad    0.01 s
wall time for grad    0.01 s
 E :    -40.90885298  G :  0.009942    pred/act E change: -0.609D-03 -0.942D-03
Maxdispl :   0.1697   ||displ|| :   0.2364   Lambda : -0.357D-03
Largest |displ|/coords:  0.1697 (   2)  0.1020 (   6)  0.0719 (   5)
................................................................................
.............................. CYCLE   12 ......................................
................................................................................
   1    -41.1104575 -0.411105E+02  0.150E-01    8.25       0.0  T
   2    -41.1104605 -0.297999E-05  0.113E-01    8.26       1.0  T
   3    -41.1104640 -0.356737E-05  0.126E-02    8.27       1.8  T
   4    -41.1104643 -0.243847E-06  0.501E-03    8.27       4.6  T
   5    -41.1104643 -0.222606E-07  0.150E-03    8.27      15.3  T
   6    -41.1104643 -0.192372E-08  0.847E-04    8.27      27.1  T
speedup  1.11
cpu  time for SCC    0.00 s
wall time for SCC    0.00 s
speedup  1.02
cpu  time for grad    0.01 s
wall time for grad    0.01 s
 E :    -40.90917006  G :  0.008801    pred/act E change: -0.108D-02 -0.317D-03
Maxdispl :   0.5777   ||displ|| :   0.7930   Lambda : -0.112D-02
Largest |displ|/coords:  0.5777 (   2)  0.3093 (   6)  0.2835 (   5)
................................................................................
.............................. CYCLE   13 ......................................
................................................................................
   1    -41.1055431 -0.411055E+02  0.436E-01    8.16       0.0  T
   2    -41.1055749 -0.318434E-04  0.330E-01    8.17       1.0  T
   3    -41.1056080 -0.330140E-04  0.389E-02    8.19       1.0  T
   4    -41.1056115 -0.357417E-05  0.175E-02    8.18       1.3  T
   5    -41.1056118 -0.320826E-06  0.529E-03    8.18       4.3  T
   6    -41.1056119 -0.291390E-07  0.323E-03    8.18       7.1  T
   7    -41.1056119 -0.221488E-07  0.875E-04    8.18      26.2  T
   8    -41.1056119 -0.261517E-08  0.419E-04    8.18      54.8  T
speedup  0.98
cpu  time for SCC    0.00 s
wall time for SCC    0.01 s
speedup  0.97
cpu  time for grad    0.01 s
wall time for grad    0.01 s
 E :    -40.90972607  G :  0.029398    pred/act E change: -0.189D-03 -0.556D-03
Maxdispl :   0.1944   ||displ|| :   0.3039   Lambda : -0.125D-02
Largest |displ|/coords:  0.1944 (   2)  0.1089 (   7)  0.0950 (   8)
................................................................................
.............................. CYCLE   14 ......................................
................................................................................
   1    -41.1129797 -0.411130E+02  0.199E-01    8.39       0.0  T
   2    -41.1130041 -0.244398E-04  0.147E-01    8.35       1.0  T
   3    -41.1130191 -0.149538E-04  0.333E-02    8.29       1.0  T
   4    -41.1130218 -0.276919E-05  0.857E-03    8.32       2.7  T
   5    -41.1130219 -0.800737E-07  0.349E-03    8.32       6.6  T
   6    -41.1130219 -0.102190E-07  0.198E-03    8.32      11.6  T
speedup  1.08
cpu  time for SCC    0.00 s
wall time for SCC    0.00 s
speedup  1.00
cpu  time for grad    0.01 s
wall time for grad    0.01 s
 E :    -40.90989959  G :  0.020592    pred/act E change: -0.911D-03 -0.174D-03
Maxdispl :   0.1078   ||displ|| :   0.1713   Lambda : -0.101D-02
Largest |displ|/coords:  0.1078 (  10)  0.0681 (  11)  0.0625 (   6)
................................................................................
.............................. CYCLE   15 ......................................
................................................................................
   1    -41.1145383 -0.411145E+02  0.192E-01    8.39       0.0  T
   2    -41.1145511 -0.127925E-04  0.144E-01    8.40       1.0  T
   3    -41.1145609 -0.974021E-05  0.248E-02    8.40       1.0  T
   4    -41.1145625 -0.162850E-05  0.664E-03    8.40       3.5  T
   5    -41.1145625 -0.534544E-07  0.308E-03    8.40       7.4  T
   6    -41.1145625 -0.633206E-08  0.149E-03    8.40      15.4  T
speedup  0.81
cpu  time for SCC    0.00 s
wall time for SCC    0.00 s
speedup  1.01
cpu  time for grad    0.01 s
wall time for grad    0.01 s
 E :    -40.91031453  G :  0.011276    pred/act E change: -0.682D-03 -0.415D-03
Maxdispl :   0.1780   ||displ|| :   0.2838   Lambda : -0.578D-03
Largest |displ|/coords:  0.1780 (   2)  0.1359 (   7)  0.0871 (   5)
................................................................................
.............................. CYCLE   16 ......................................
................................................................................
   1    -41.1102244 -0.411102E+02  0.212E-01    8.28       0.0  T
   2    -41.1102381 -0.136672E-04  0.160E-01    8.30       1.0  T
   3    -41.1102478 -0.973656E-05  0.242E-02    8.35       1.0  T
   4    -41.1102498 -0.201137E-05  0.694E-03    8.33       3.3  T
   5    -41.1102499 -0.619545E-07  0.322E-03    8.33       7.1  T
   6    -41.1102499 -0.962839E-08  0.167E-03    8.33      13.8  T
   7    -41.1102499 -0.421505E-08  0.350E-04    8.33      65.5  T
speedup  0.93
cpu  time for SCC    0.00 s
wall time for SCC    0.00 s
speedup  0.94
cpu  time for grad    0.01 s
wall time for grad    0.01 s
 E :    -40.91031420  G :  0.022446    pred/act E change: -0.522D-03  0.328D-06
Maxdispl :   0.0523   ||displ|| :   0.1211   Lambda : -0.640D-03
Largest |displ|/coords:  0.0523 (   9)  0.0490 (   3)  0.0462 (   5)
................................................................................
.............................. CYCLE   17 ......................................
................................................................................
   1    -41.1114881 -0.411115E+02  0.147E-01    8.40       0.0  T
   2    -41.1114977 -0.964838E-05  0.110E-01    8.39       1.0  T
   3    -41.1115040 -0.632392E-05  0.210E-02    8.36       1.1  T
   4    -41.1115053 -0.126543E-05  0.549E-03    8.37       4.2  T
   5    -41.1115053 -0.458726E-07  0.221E-03    8.37      10.4  T
speedup  0.97
cpu  time for SCC    0.00 s
wall time for SCC    0.00 s
speedup  0.95
cpu  time for grad    0.01 s
wall time for grad    0.01 s
 E :    -40.91054091  G :  0.014921    pred/act E change: -0.312D-03 -0.227D-03
Maxdispl :   0.0724   ||displ|| :   0.1905   Lambda : -0.542D-03
Largest |displ|/coords:  0.0724 (   1)  0.0714 (   2)  0.0689 (  10)
................................................................................
.............................. CYCLE   18 ......................................
................................................................................
   1    -41.1182550 -0.411183E+02  0.212E-01    8.47       0.0  T
   2    -41.1182719 -0.168817E-04  0.159E-01    8.45       1.0  T
   3    -41.1182840 -0.120801E-04  0.282E-02    8.42       1.0  T
   4    -41.1182861 -0.207834E-05  0.698E-03    8.43       3.3  T
   5    -41.1182861 -0.689869E-07  0.302E-03    8.43       7.6  T
   6    -41.1182861 -0.634036E-08  0.157E-03    8.43      14.6  T
   7    -41.1182861 -0.416765E-08  0.350E-04    8.43      65.6  T
speedup  1.16
cpu  time for SCC    0.00 s
wall time for SCC    0.00 s
speedup  1.04
cpu  time for grad    0.01 s
wall time for grad    0.01 s
 E :    -40.91034130  G :  0.021637    pred/act E change: -0.325D-03  0.200D-03
Maxdispl :   0.0686   ||displ|| :   0.1455   Lambda : -0.689D-03
Largest |displ|/coords:  0.0686 (   4)  0.0515 (   3)  0.0498 (   2)
................................................................................
.............................. CYCLE   19 ......................................
................................................................................
   1    -41.1138875 -0.411139E+02  0.161E-01    8.36       0.0  T
   2    -41.1138941 -0.666462E-05  0.121E-01    8.37       1.0  T
   3    -41.1138989 -0.479013E-05  0.170E-02    8.39       1.4  T
   4    -41.1138998 -0.855861E-06  0.513E-03    8.39       4.5  T
   5    -41.1138998 -0.357351E-07  0.183E-03    8.39      12.5  T
speedup  0.94
cpu  time for SCC    0.00 s
wall time for SCC    0.00 s
speedup  0.95
cpu  time for grad    0.01 s
wall time for grad    0.01 s
 E :    -40.91073052  G :  0.004931    pred/act E change: -0.281D-03 -0.389D-03
Maxdispl :   0.1496   ||displ|| :   0.2192   Lambda : -0.242D-03
Largest |displ|/coords:  0.1496 (   2)  0.0895 (   7)  0.0640 (   6)
................................................................................
.............................. CYCLE   20 ......................................
................................................................................
   1    -41.1118433 -0.411118E+02  0.163E-01    8.35       0.0  T
   2    -41.1118492 -0.587824E-05  0.123E-01    8.35       1.0  T
   3    -41.1118549 -0.577221E-05  0.167E-02    8.35       1.4  T
   4    -41.1118556 -0.661344E-06  0.621E-03    8.35       3.7  T
   5    -41.1118556 -0.517931E-07  0.204E-03    8.35      11.3  T
   6    -41.1118557 -0.352202E-08  0.114E-03    8.35      20.1  T
speedup  1.05
cpu  time for SCC    0.00 s
wall time for SCC    0.00 s
speedup  1.00
cpu  time for grad    0.01 s
wall time for grad    0.01 s
 E :    -40.91074584  G :  0.015869    pred/act E change: -0.352D-03 -0.153D-04
Maxdispl :   0.0642   ||displ|| :   0.1030   Lambda : -0.249D-03
Largest |displ|/coords:  0.0642 (   2)  0.0569 (   5)  0.0360 (   8)
................................................................................
.............................. CYCLE   21 ......................................
................................................................................
   1    -41.1135466 -0.411135E+02  0.498E-02    8.38       0.0  T
   2    -41.1135477 -0.108267E-05  0.370E-02    8.38       1.0  T
   3    -41.1135485 -0.726634E-06  0.793E-03    8.38       2.9  T
   4    -41.1135486 -0.124449E-06  0.328E-03    8.38       7.0  T
   5    -41.1135486 -0.125966E-07  0.803E-04    8.38      28.6  T
   6    -41.1135486 -0.823043E-09  0.482E-04    8.38      47.6  T
speedup  1.08
cpu  time for SCC    0.00 s
wall time for SCC    0.00 s
speedup  1.01
cpu  time for grad    0.01 s
wall time for grad    0.01 s
 E :    -40.91090388  G :  0.008081    pred/act E change: -0.127D-03 -0.158D-03
Maxdispl :   0.1255   ||displ|| :   0.1848   Lambda : -0.269D-03
Largest |displ|/coords:  0.1255 (   6)  0.0759 (   4)  0.0677 (   2)
................................................................................
.............................. CYCLE   22 ......................................
................................................................................
   1    -41.1123361 -0.411123E+02  0.145E-01    8.33       0.0  T
   2    -41.1123383 -0.221953E-05  0.109E-01    8.32       1.0  T
   3    -41.1123402 -0.183432E-05  0.123E-02    8.30       1.9  T
   4    -41.1123404 -0.256352E-06  0.327E-03    8.31       7.0  T
   5    -41.1123404 -0.120733E-07  0.146E-03    8.31      15.7  T
   6    -41.1123404 -0.215463E-08  0.852E-04    8.31      26.9  T
speedup  1.05
cpu  time for SCC    0.00 s
wall time for SCC    0.00 s
speedup  1.00
cpu  time for grad    0.01 s
wall time for grad    0.01 s
 E :    -40.91094974  G :  0.008570    pred/act E change: -0.126D-03 -0.459D-04
Maxdispl :   0.1300   ||displ|| :   0.1779   Lambda : -0.420D-03
Largest |displ|/coords:  0.1300 (   7)  0.0628 (   4)  0.0360 (  11)
................................................................................
.............................. CYCLE   23 ......................................
................................................................................
   1    -41.1145833 -0.411146E+02  0.155E-01    8.36       0.0  T
   2    -41.1145869 -0.354628E-05  0.117E-01    8.36       1.0  T
   3    -41.1145910 -0.418015E-05  0.117E-02    8.37       2.0  T
   4    -41.1145913 -0.303093E-06  0.560E-03    8.36       4.1  T
   5    -41.1145914 -0.296579E-07  0.175E-03    8.36      13.1  T
   6    -41.1145914 -0.292121E-08  0.103E-03    8.36      22.3  T
speedup  0.81
cpu  time for SCC    0.00 s
wall time for SCC    0.00 s
speedup  1.01
cpu  time for grad    0.01 s
wall time for grad    0.01 s
 E :    -40.91121768  G :  0.006494    pred/act E change: -0.139D-03 -0.268D-03
Maxdispl :   0.1267   ||displ|| :   0.2465   Lambda : -0.373D-03
Largest |displ|/coords:  0.1267 (   7)  0.1067 (   4)  0.0874 (   2)
................................................................................
.............................. CYCLE   24 ......................................
................................................................................
   1    -41.1129304 -0.411129E+02  0.241E-01    8.29       0.0  T
   2    -41.1129388 -0.836580E-05  0.182E-01    8.30       1.0  T
   3    -41.1129484 -0.964685E-05  0.243E-02    8.31       1.0  T
   4    -41.1129491 -0.678560E-06  0.820E-03    8.30       2.8  T
   5    -41.1129492 -0.609548E-07  0.270E-03    8.30       8.5  T
   6    -41.1129492 -0.480846E-08  0.160E-03    8.30      14.3  T
speedup  0.81
cpu  time for SCC    0.00 s
wall time for SCC    0.00 s
speedup  0.89
cpu  time for grad    0.01 s
wall time for grad    0.01 s
 E :    -40.91137598  G :  0.011994    pred/act E change: -0.217D-03 -0.158D-03
Maxdispl :   0.0642   ||displ|| :   0.1322   Lambda : -0.223D-03
Largest |displ|/coords:  0.0642 (   4)  0.0468 (   1)  0.0462 (   2)
................................................................................
.............................. CYCLE   25 ......................................
................................................................................
   1    -41.1143065 -0.411143E+02  0.871E-02    8.34       0.0  T
   2    -41.1143093 -0.275619E-05  0.647E-02    8.32       1.0  T
   3    -41.1143108 -0.151018E-05  0.126E-02    8.30       1.8  T
   4    -41.1143112 -0.342200E-06  0.256E-03    8.31       9.0  T
   5    -41.1143112 -0.140715E-07  0.107E-03    8.31      21.5  T
speedup  1.00
cpu  time for SCC    0.00 s
wall time for SCC    0.00 s
speedup  1.08
cpu  time for grad    0.01 s
wall time for grad    0.01 s
 E :    -40.91151063  G :  0.007402    pred/act E change: -0.198D-03 -0.135D-03
Maxdispl :   0.1431   ||displ|| :   0.2421   Lambda : -0.234D-03
Largest |displ|/coords:  0.1431 (   4)  0.1070 (   7)  0.0850 (  11)

generating ANC from model Hessian ...
 Shifting diagonal of input Hessian by   4.558042508768596E-003
 Lowest  eigenvalues of input Hessian
   -0.000000    0.000000    0.000000    0.000000    0.000000    0.000000
    0.005000    0.005140    0.005301    0.006600    0.006697    0.007398
    0.008053    0.009277    0.010877    0.012924    0.018094    0.021184
 Highest eigenvalues
    1.402386    1.408121    1.440967    2.750410    3.428661    3.653278
 
cpu  time for ANC gen    0.01 s
wall time for ANC gen    0.01 s
................................................................................
.............................. CYCLE   26 ......................................
................................................................................
   1    -41.1120188 -0.411120E+02  0.205E-01    8.32       0.0  T
   2    -41.1120234 -0.455583E-05  0.155E-01    8.32       1.0  T
   3    -41.1120294 -0.600269E-05  0.135E-02    8.32       1.7  T
   4    -41.1120297 -0.291820E-06  0.444E-03    8.32       5.2  T
   5    -41.1120297 -0.170643E-07  0.230E-03    8.32      10.0  T
   6    -41.1120297 -0.727483E-08  0.948E-04    8.32      24.2  T
   7    -41.1120297 -0.100606E-08  0.194E-04    8.32     118.0  T
speedup  0.93
cpu  time for SCC    0.00 s
wall time for SCC    0.00 s
speedup  1.01
cpu  time for grad    0.01 s
wall time for grad    0.01 s
 E :    -40.91152584  G :  0.014487    pred/act E change:  0.000D+00 -0.152D-04
Maxdispl :   0.0848   ||displ|| :   0.1213   Lambda : -0.358D-03
Largest |displ|/coords:  0.0848 (   6)  0.0347 (  10)  0.0329 (   7)
................................................................................
.............................. CYCLE   27 ......................................
................................................................................
   1    -41.1133290 -0.411133E+02  0.177E-01    8.31       0.0  T
   2    -41.1133325 -0.355669E-05  0.135E-01    8.31       1.0  T
   3    -41.1133372 -0.465306E-05  0.828E-03    8.32       2.8  T
   4    -41.1133373 -0.111936E-06  0.355E-03    8.32       6.5  T
   5    -41.1133373 -0.661252E-08  0.116E-03    8.32      19.8  T
   6    -41.1133373 -0.985189E-09  0.583E-04    8.32      39.4  T
speedup  1.05
cpu  time for SCC    0.00 s
wall time for SCC    0.00 s
speedup  1.00
cpu  time for grad    0.01 s
wall time for grad    0.01 s
 E :    -40.91170742  G :  0.007630    pred/act E change:  0.000D+00 -0.182D-03
Maxdispl :   0.0963   ||displ|| :   0.1791   Lambda : -0.410D-03
Largest |displ|/coords:  0.0963 (   4)  0.0874 (   6)  0.0631 (  10)
................................................................................
.............................. CYCLE   28 ......................................
................................................................................
   1    -41.1157945 -0.411158E+02  0.233E-01    8.33       0.0  T
   2    -41.1158025 -0.803031E-05  0.178E-01    8.33       1.0  T
   3    -41.1158100 -0.744500E-05  0.180E-02    8.33       1.3  T
   4    -41.1158109 -0.931376E-06  0.666E-03    8.34       3.4  T
   5    -41.1158110 -0.394466E-07  0.220E-03    8.34      10.4  T
   6    -41.1158110 -0.144470E-08  0.110E-03    8.34      20.8  T
speedup  1.08
cpu  time for SCC    0.00 s
wall time for SCC    0.00 s
speedup  1.00
cpu  time for grad    0.01 s
wall time for grad    0.01 s
 E :    -40.91172137  G :  0.010450    pred/act E change: -0.182D-03 -0.139D-04
Maxdispl :   0.0404   ||displ|| :   0.0876   Lambda : -0.238D-03
Largest |displ|/coords:  0.0404 (   5)  0.0356 (  10)  0.0352 (   8)
................................................................................
.............................. CYCLE   29 ......................................
................................................................................
   1    -41.1146192 -0.411146E+02  0.118E-01    8.32       0.0  T
   2    -41.1146211 -0.185455E-05  0.901E-02    8.32       1.0  T
   3    -41.1146236 -0.250012E-05  0.676E-03    8.32       3.4  T
   4    -41.1146236 -0.593854E-07  0.262E-03    8.31       8.8  T
   5    -41.1146236 -0.438586E-08  0.935E-04    8.31      24.5  T
speedup  0.94
cpu  time for SCC    0.00 s
wall time for SCC    0.00 s
speedup  0.95
cpu  time for grad    0.01 s
wall time for grad    0.01 s
 E :    -40.91187167  G :  0.003497    pred/act E change: -0.211D-03 -0.150D-03
Maxdispl :   0.0545   ||displ|| :   0.1030   Lambda : -0.101D-03
Largest |displ|/coords:  0.0545 (  10)  0.0408 (   2)  0.0394 (   3)
................................................................................
.............................. CYCLE   30 ......................................
................................................................................
   1    -41.1132422 -0.411132E+02  0.100E-01    8.29       0.0  T
   2    -41.1132437 -0.158749E-05  0.758E-02    8.29       1.0  T
   3    -41.1132457 -0.194932E-05  0.931E-03    8.29       2.5  T
   4    -41.1132458 -0.116988E-06  0.323E-03    8.29       7.1  T
   5    -41.1132458 -0.103672E-07  0.109E-03    8.29      21.0  T
   6    -41.1132458 -0.991093E-09  0.616E-04    8.29      37.3  T
   7    -41.1132458 -0.511413E-09  0.109E-04    8.29     210.3  T
speedup  1.16
cpu  time for SCC    0.00 s
wall time for SCC    0.00 s
speedup  1.01
cpu  time for grad    0.01 s
wall time for grad    0.01 s
 E :    -40.91191637  G :  0.004905    pred/act E change: -0.120D-03 -0.447D-04
Maxdispl :   0.0355   ||displ|| :   0.0710   Lambda : -0.507D-04
Largest |displ|/coords:  0.0355 (   5)  0.0318 (  10)  0.0298 (   2)
................................................................................
.............................. CYCLE   31 ......................................
................................................................................
   1    -41.1133352 -0.411133E+02  0.551E-02    8.29       0.0  T
   2    -41.1133355 -0.375138E-06  0.413E-02    8.29       1.0  T
   3    -41.1133359 -0.408055E-06  0.587E-03    8.29       3.9  T
   4    -41.1133360 -0.365386E-07  0.198E-03    8.29      11.6  T
   5    -41.1133360 -0.395460E-08  0.565E-04    8.29      40.6  T
speedup  0.94
cpu  time for SCC    0.00 s
wall time for SCC    0.00 s
speedup  0.87
cpu  time for grad    0.01 s
wall time for grad    0.01 s
 E :    -40.91195474  G :  0.004046    pred/act E change: -0.510D-04 -0.384D-04
Maxdispl :   0.0683   ||displ|| :   0.1301   Lambda : -0.749D-04
Largest |displ|/coords:  0.0683 (   3)  0.0532 (  14)  0.0520 (  10)
................................................................................
.............................. CYCLE   32 ......................................
................................................................................
   1    -41.1138715 -0.411139E+02  0.907E-02    8.29       0.0  T
   2    -41.1138729 -0.140102E-05  0.675E-02    8.29       1.0  T
   3    -41.1138745 -0.157624E-05  0.119E-02    8.29       1.9  T
   4    -41.1138746 -0.130707E-06  0.374E-03    8.29       6.1  T
   5    -41.1138746 -0.158519E-07  0.112E-03    8.29      20.5  T
   6    -41.1138746 -0.927741E-09  0.702E-04    8.29      32.7  T
speedup  1.05
cpu  time for SCC    0.00 s
wall time for SCC    0.00 s
speedup  0.99
cpu  time for grad    0.01 s
wall time for grad    0.01 s
 E :    -40.91200302  G :  0.001732    pred/act E change: -0.255D-04 -0.483D-04
Maxdispl :   0.0790   ||displ|| :   0.1439   Lambda : -0.349D-04
Largest |displ|/coords:  0.0790 (   3)  0.0687 (  10)  0.0538 (  14)
................................................................................
.............................. CYCLE   33 ......................................
................................................................................
   1    -41.1132409 -0.411132E+02  0.107E-01    8.28       0.0  T
   2    -41.1132429 -0.197914E-05  0.799E-02    8.28       1.0  T
   3    -41.1132451 -0.223354E-05  0.135E-02    8.28       1.7  T
   4    -41.1132453 -0.190607E-06  0.427E-03    8.28       5.4  T
   5    -41.1132453 -0.208387E-07  0.131E-03    8.28      17.5  T
   6    -41.1132453 -0.126584E-08  0.803E-04    8.28      28.6  T
   7    -41.1132453 -0.596273E-09  0.122E-04    8.28     187.8  T
speedup  1.14
cpu  time for SCC    0.00 s
wall time for SCC    0.00 s
speedup  1.01
cpu  time for grad    0.01 s
wall time for grad    0.01 s
 E :    -40.91201748  G :  0.004515    pred/act E change: -0.381D-04 -0.145D-04
Maxdispl :   0.0572   ||displ|| :   0.0754   Lambda : -0.361D-04
Largest |displ|/coords:  0.0572 (   3)  0.0275 (   2)  0.0205 (   4)
................................................................................
.............................. CYCLE   34 ......................................
................................................................................
   1    -41.1143553 -0.411144E+02  0.494E-02    8.31       0.0  T
   2    -41.1143557 -0.403884E-06  0.361E-02    8.30       1.0  T
   3    -41.1143560 -0.337988E-06  0.654E-03    8.30       3.5  T
   4    -41.1143560 -0.360042E-07  0.145E-03    8.30      15.8  T
   5    -41.1143560 -0.271752E-08  0.491E-04    8.30      46.8  T
speedup  0.97
cpu  time for SCC    0.00 s
wall time for SCC    0.00 s
speedup  1.07
cpu  time for grad    0.01 s
wall time for grad    0.01 s
 E :    -40.91203963  G :  0.002454    pred/act E change: -0.178D-04 -0.221D-04
Maxdispl :   0.0876   ||displ|| :   0.1138   Lambda : -0.199D-04
Largest |displ|/coords:  0.0876 (   3)  0.0413 (   2)  0.0320 (  10)
................................................................................
.............................. CYCLE   35 ......................................
................................................................................
   1    -41.1145834 -0.411146E+02  0.737E-02    8.31       0.0  T
   2    -41.1145841 -0.739418E-06  0.546E-02    8.31       1.0  T
   3    -41.1145848 -0.689706E-06  0.908E-03    8.31       2.5  T
   4    -41.1145849 -0.777327E-07  0.250E-03    8.31       9.2  T
   5    -41.1145849 -0.705011E-08  0.697E-04    8.31      32.9  T
   6    -41.1145849 -0.380652E-09  0.446E-04    8.31      51.4  T
speedup  0.79
cpu  time for SCC    0.00 s
wall time for SCC    0.00 s
speedup  0.96
cpu  time for grad    0.01 s
wall time for grad    0.01 s
 E :    -40.91205680  G :  0.002115    pred/act E change: -0.181D-04 -0.172D-04
Maxdispl :   0.2971   ||displ|| :   0.3821   Lambda : -0.622D-04
Largest |displ|/coords:  0.2971 (   3)  0.1385 (   2)  0.1156 (   4)
................................................................................
.............................. CYCLE   36 ......................................
................................................................................
   1    -41.1138783 -0.411139E+02  0.239E-01    8.30       0.0  T
   2    -41.1138859 -0.760363E-05  0.177E-01    8.30       1.0  T
   3    -41.1138931 -0.720248E-05  0.281E-02    8.31       1.0  T
   4    -41.1138939 -0.808951E-06  0.798E-03    8.30       2.9  T
   5    -41.1138940 -0.678669E-07  0.242E-03    8.30       9.5  T
   6    -41.1138940 -0.459607E-08  0.147E-03    8.30      15.6  T
   7    -41.1138940 -0.258304E-08  0.262E-04    8.30      87.6  T
   8    -41.1138940 -0.188763E-09  0.867E-05    8.30     264.5  T
speedup  1.02
cpu  time for SCC    0.01 s
wall time for SCC    0.00 s
speedup  1.05
cpu  time for grad    0.01 s
wall time for grad    0.01 s
 E :    -40.91210134  G :  0.003773    pred/act E change: -0.101D-04 -0.445D-04
Maxdispl :   0.3223   ||displ|| :   0.3962   Lambda : -0.864D-04
Largest |displ|/coords:  0.3223 (   3)  0.1447 (   2)  0.0932 (   4)
................................................................................
.............................. CYCLE   37 ......................................
................................................................................
   1    -41.1131882 -0.411132E+02  0.218E-01    8.29       0.0  T
   2    -41.1131945 -0.627728E-05  0.162E-01    8.29       1.0  T
   3    -41.1131999 -0.537278E-05  0.246E-02    8.29       1.0  T
   4    -41.1132006 -0.727963E-06  0.723E-03    8.29       3.2  T
   5    -41.1132007 -0.523150E-07  0.209E-03    8.29      11.0  T
   6    -41.1132007 -0.338321E-08  0.128E-03    8.29      17.9  T
   7    -41.1132007 -0.222357E-08  0.266E-04    8.29      86.2  T
   8    -41.1132007 -0.188088E-09  0.868E-05    8.29     264.4  T
speedup  1.00
cpu  time for SCC    0.00 s
wall time for SCC    0.01 s
speedup  0.95
cpu  time for grad    0.01 s
wall time for grad    0.01 s
 E :    -40.91216658  G :  0.004735    pred/act E change: -0.357D-04 -0.652D-04
Maxdispl :   0.3022   ||displ|| :   0.3917   Lambda : -0.150D-03
Largest |displ|/coords:  0.3022 (   3)  0.1490 (   2)  0.1192 (   7)
................................................................................
.............................. CYCLE   38 ......................................
................................................................................
   1    -41.1147040 -0.411147E+02  0.192E-01    8.33       0.0  T
   2    -41.1147092 -0.520433E-05  0.143E-01    8.32       1.0  T
   3    -41.1147133 -0.413875E-05  0.205E-02    8.31       1.1  T
   4    -41.1147139 -0.634690E-06  0.664E-03    8.31       3.5  T
   5    -41.1147140 -0.463559E-07  0.201E-03    8.31      11.4  T
   6    -41.1147140 -0.259031E-08  0.125E-03    8.31      18.4  T
speedup  1.03
cpu  time for SCC    0.00 s
wall time for SCC    0.00 s
speedup  0.98
cpu  time for grad    0.01 s
wall time for grad    0.01 s
 E :    -40.91226164  G :  0.006200    pred/act E change: -0.500D-04 -0.951D-04
Maxdispl :   0.5833   ||displ|| :   0.7592   Lambda : -0.217D-03
Largest |displ|/coords:  0.5833 (   3)  0.3286 (   2)  0.2075 (   4)
................................................................................
.............................. CYCLE   39 ......................................
................................................................................
   1    -41.1095467 -0.411095E+02  0.396E-01    8.20       0.0  T
   2    -41.1095673 -0.205535E-04  0.297E-01    8.21       1.0  T
   3    -41.1095877 -0.204091E-04  0.382E-02    8.23       1.0  T
   4    -41.1095897 -0.199577E-05  0.134E-02    8.22       1.7  T
   5    -41.1095899 -0.169960E-06  0.401E-03    8.22       5.7  T
   6    -41.1095899 -0.120166E-07  0.248E-03    8.22       9.3  T
   7    -41.1095899 -0.825867E-08  0.540E-04    8.22      42.5  T
speedup  1.14
cpu  time for SCC    0.00 s
wall time for SCC    0.00 s
speedup  1.04
cpu  time for grad    0.01 s
wall time for grad    0.01 s
 E :    -40.91224466  G :  0.019073    pred/act E change: -0.865D-04  0.170D-04
Maxdispl :   0.0543   ||displ|| :   0.1360   Lambda : -0.563D-03
Largest |displ|/coords:  0.0543 (   3)  0.0533 (   6)  0.0527 (   2)
................................................................................
.............................. CYCLE   40 ......................................
................................................................................
   1    -41.1135269 -0.411135E+02  0.130E-01    8.32       0.0  T
   2    -41.1135311 -0.411806E-05  0.966E-02    8.31       1.0  T
   3    -41.1135342 -0.316036E-05  0.159E-02    8.30       1.4  T
   4    -41.1135347 -0.471389E-06  0.616E-03    8.30       3.7  T
   5    -41.1135347 -0.422682E-07  0.167E-03    8.30      13.8  T
   6    -41.1135347 -0.263786E-08  0.105E-03    8.30      21.9  T
speedup  1.08
cpu  time for SCC    0.00 s
wall time for SCC    0.00 s
speedup  1.00
cpu  time for grad    0.01 s
wall time for grad    0.01 s
 E :    -40.91253232  G :  0.005708    pred/act E change: -0.171D-03 -0.288D-03
Maxdispl :   0.3321   ||displ|| :   0.4742   Lambda : -0.220D-03
Largest |displ|/coords:  0.3321 (   3)  0.2448 (   2)  0.1290 (   4)
................................................................................
.............................. CYCLE   41 ......................................
................................................................................
   1    -41.1130260 -0.411130E+02  0.187E-01    8.31       0.0  T
   2    -41.1130306 -0.454117E-05  0.139E-01    8.31       1.0  T
   3    -41.1130344 -0.383089E-05  0.198E-02    8.31       1.2  T
   4    -41.1130350 -0.558005E-06  0.632E-03    8.31       3.6  T
   5    -41.1130350 -0.403016E-07  0.192E-03    8.31      11.9  T
   6    -41.1130350 -0.306686E-08  0.121E-03    8.31      19.0  T
speedup  1.08
cpu  time for SCC    0.00 s
wall time for SCC    0.00 s
speedup  1.00
cpu  time for grad    0.01 s
wall time for grad    0.01 s
 E :    -40.91273780  G :  0.006550    pred/act E change: -0.287D-03 -0.205D-03
Maxdispl :   0.4547   ||displ|| :   0.7748   Lambda : -0.513D-03
Largest |displ|/coords:  0.4547 (   3)  0.4419 (   2)  0.2769 (   4)
................................................................................
.............................. CYCLE   42 ......................................
................................................................................
   1    -41.1142524 -0.411143E+02  0.342E-01    8.42       0.0  T
   2    -41.1142617 -0.928765E-05  0.255E-01    8.43       1.0  T
   3    -41.1142703 -0.860408E-05  0.311E-02    8.44       1.0  T
   4    -41.1142714 -0.104858E-05  0.768E-03    8.44       3.0  T
   5    -41.1142714 -0.641122E-07  0.346E-03    8.43       6.6  T
   6    -41.1142714 -0.118069E-07  0.176E-03    8.43      13.0  T
   7    -41.1142714 -0.407667E-08  0.434E-04    8.43      52.9  T
speedup  0.93
cpu  time for SCC    0.00 s
wall time for SCC    0.00 s
speedup  0.94
cpu  time for grad    0.01 s
wall time for grad    0.01 s
 E :    -40.91301574  G :  0.016134    pred/act E change: -0.135D-03 -0.278D-03
Maxdispl :   0.4022   ||displ|| :   0.5995   Lambda : -0.597D-03
Largest |displ|/coords:  0.4022 (   3)  0.3464 (   2)  0.1282 (   1)
................................................................................
.............................. CYCLE   43 ......................................
................................................................................
   1    -41.1091917 -0.411092E+02  0.270E-01    8.35       0.0  T
   2    -41.1092029 -0.112252E-04  0.201E-01    8.36       1.0  T
   3    -41.1092127 -0.981513E-05  0.298E-02    8.38       1.0  T
   4    -41.1092140 -0.125751E-05  0.924E-03    8.37       2.5  T
   5    -41.1092141 -0.941452E-07  0.279E-03    8.37       8.2  T
   6    -41.1092141 -0.564540E-08  0.172E-03    8.37      13.3  T
speedup  1.05
cpu  time for SCC    0.00 s
wall time for SCC    0.00 s
speedup  0.99
cpu  time for grad    0.01 s
wall time for grad    0.01 s
 E :    -40.91333136  G :  0.020236    pred/act E change: -0.411D-03 -0.316D-03
Maxdispl :   0.2131   ||displ|| :   0.3943   Lambda : -0.138D-02
Largest |displ|/coords:  0.2131 (   4)  0.1609 (   3)  0.1252 (   7)
................................................................................
.............................. CYCLE   44 ......................................
................................................................................
   1    -41.1188436 -0.411188E+02  0.346E-01    8.52       0.0  T
   2    -41.1188798 -0.362296E-04  0.258E-01    8.49       1.0  T
   3    -41.1189122 -0.323932E-04  0.496E-02    8.44       1.0  T
   4    -41.1189159 -0.374477E-05  0.152E-02    8.46       1.5  T
   5    -41.1189162 -0.286851E-06  0.551E-03    8.47       4.2  T
   6    -41.1189163 -0.225951E-07  0.284E-03    8.47       8.1  T
speedup  1.08
cpu  time for SCC    0.00 s
wall time for SCC    0.00 s
speedup  1.00
cpu  time for grad    0.01 s
wall time for grad    0.01 s
 E :    -40.91206596  G :  0.047993    pred/act E change: -0.406D-03  0.127D-02
Maxdispl :   0.1717   ||displ|| :   0.2614   Lambda : -0.323D-02
Largest |displ|/coords:  0.1717 (   4)  0.1139 (   3)  0.0853 (   7)
................................................................................
.............................. CYCLE   45 ......................................
................................................................................
   1    -41.1155535 -0.411156E+02  0.265E-01    8.53       0.0  T
   2    -41.1155657 -0.121614E-04  0.197E-01    8.54       1.0  T
   3    -41.1155766 -0.108808E-04  0.326E-02    8.56       1.0  T
   4    -41.1155778 -0.121031E-05  0.926E-03    8.55       2.5  T
   5    -41.1155779 -0.111352E-06  0.331E-03    8.54       6.9  T
   6    -41.1155779 -0.739681E-08  0.175E-03    8.55      13.1  T
speedup  1.08
cpu  time for SCC    0.00 s
wall time for SCC    0.00 s
speedup  1.00
cpu  time for grad    0.01 s
wall time for grad    0.01 s
 E :    -40.91388312  G :  0.008370    pred/act E change: -0.798D-03 -0.182D-02
Maxdispl :   0.4943   ||displ|| :   0.7498   Lambda : -0.906D-03
Largest |displ|/coords:  0.4943 (   3)  0.3882 (   2)  0.2296 (   7)
................................................................................
.............................. CYCLE   46 ......................................
................................................................................
   1    -41.1102077 -0.411102E+02  0.355E-01    8.41       0.0  T
   2    -41.1102302 -0.225067E-04  0.265E-01    8.44       1.0  T
   3    -41.1102464 -0.162801E-04  0.404E-02    8.50       1.0  T
   4    -41.1102492 -0.280107E-05  0.134E-02    8.48       1.7  T
   5    -41.1102494 -0.171967E-06  0.359E-03    8.48       6.4  T
   6    -41.1102494 -0.102860E-07  0.226E-03    8.48      10.2  T
   7    -41.1102494 -0.686976E-08  0.644E-04    8.48      35.6  T
speedup  0.91
cpu  time for SCC    0.00 s
wall time for SCC    0.00 s
speedup  0.93
cpu  time for grad    0.01 s
wall time for grad    0.01 s
 E :    -40.91410746  G :  0.029468    pred/act E change: -0.173D-02 -0.224D-03
Maxdispl :   0.1557   ||displ|| :   0.3069   Lambda : -0.121D-02
Largest |displ|/coords:  0.1557 (  10)  0.1370 (   3)  0.1182 (   1)
................................................................................
.............................. CYCLE   47 ......................................
................................................................................
   1    -41.1091229 -0.411091E+02  0.232E-01    8.66       0.0  T
   2    -41.1091382 -0.153280E-04  0.172E-01    8.64       1.0  T
   3    -41.1091482 -0.993542E-05  0.320E-02    8.60       1.0  T
   4    -41.1091503 -0.208666E-05  0.915E-03    8.61       2.5  T
   5    -41.1091504 -0.132471E-06  0.337E-03    8.61       6.8  T
   6    -41.1091504 -0.623930E-08  0.182E-03    8.61      12.6  T
speedup  1.05
cpu  time for SCC    0.00 s
wall time for SCC    0.00 s
speedup  0.98
cpu  time for grad    0.01 s
wall time for grad    0.01 s
 E :    -40.91453933  G :  0.029528    pred/act E change: -0.708D-03 -0.432D-03
Maxdispl :   0.1261   ||displ|| :   0.2164   Lambda : -0.137D-02
Largest |displ|/coords:  0.1261 (   4)  0.1018 (   3)  0.0641 (  11)
................................................................................
.............................. CYCLE   48 ......................................
................................................................................
   1    -41.1168694 -0.411169E+02  0.208E-01    8.78       0.0  T
   2    -41.1168805 -0.110795E-04  0.155E-01    8.77       1.0  T
   3    -41.1168920 -0.115181E-04  0.261E-02    8.76       1.0  T
   4    -41.1168930 -0.100520E-05  0.999E-03    8.77       2.3  T
   5    -41.1168931 -0.110459E-06  0.295E-03    8.77       7.8  T
   6    -41.1168931 -0.735558E-08  0.170E-03    8.77      13.5  T
speedup  1.08
cpu  time for SCC    0.00 s
wall time for SCC    0.00 s
speedup  1.00
cpu  time for grad    0.01 s
wall time for grad    0.01 s
 E :    -40.91495146  G :  0.016685    pred/act E change: -0.663D-03 -0.412D-03
Maxdispl :   0.1978   ||displ|| :   0.3677   Lambda : -0.110D-02
Largest |displ|/coords:  0.1978 (   3)  0.1919 (   2)  0.1172 (  10)
................................................................................
.............................. CYCLE   49 ......................................
................................................................................
   1    -41.1163650 -0.411164E+02  0.261E-01    8.73       0.0  T
   2    -41.1163725 -0.741882E-05  0.196E-01    8.75       1.0  T
   3    -41.1163786 -0.618144E-05  0.242E-02    8.78       1.0  T
   4    -41.1163795 -0.805780E-06  0.910E-03    8.77       2.5  T
   5    -41.1163795 -0.511068E-07  0.227E-03    8.77      10.1  T
   6    -41.1163795 -0.390057E-08  0.146E-03    8.77      15.8  T
speedup  1.05
cpu  time for SCC    0.00 s
wall time for SCC    0.00 s
speedup  0.99
cpu  time for grad    0.01 s
wall time for grad    0.01 s
 E :    -40.91568156  G :  0.017262    pred/act E change: -0.715D-03 -0.730D-03
Maxdispl :   0.3128   ||displ|| :   0.5051   Lambda : -0.826D-03
Largest |displ|/coords:  0.3128 (   3)  0.2777 (   2)  0.1064 (  12)
................................................................................
.............................. CYCLE   50 ......................................
................................................................................
   1    -41.1125481 -0.411125E+02  0.303E-01    8.70       0.0  T
   2    -41.1125602 -0.121165E-04  0.224E-01    8.72       1.0  T
   3    -41.1125719 -0.117046E-04  0.356E-02    8.78       1.0  T
   4    -41.1125729 -0.105199E-05  0.981E-03    8.77       2.3  T
   5    -41.1125730 -0.100500E-06  0.300E-03    8.77       7.6  T
   6    -41.1125730 -0.601417E-08  0.184E-03    8.77      12.5  T
   7    -41.1125730 -0.296317E-08  0.363E-04    8.77      63.2  T
speedup  1.14
cpu  time for SCC    0.01 s
wall time for SCC    0.00 s
speedup  1.02
cpu  time for grad    0.01 s
wall time for grad    0.01 s
 E :    -40.91604576  G :  0.022403    pred/act E change: -0.627D-03 -0.364D-03
Maxdispl :   0.1380   ||displ|| :   0.3418   Lambda : -0.122D-02
Largest |displ|/coords:  0.1380 (   9)  0.1344 (   2)  0.1051 (   7)
................................................................................
.............................. CYCLE   51 ......................................
................................................................................
   1    -41.1136394 -0.411136E+02  0.269E-01    8.76       0.0  T
   2    -41.1136754 -0.360195E-04  0.194E-01    8.73       1.0  T
   3    -41.1136931 -0.176261E-04  0.426E-02    8.68       1.0  T
   4    -41.1136962 -0.316801E-05  0.706E-03    8.70       3.2  T
   5    -41.1136963 -0.439318E-07  0.328E-03    8.70       7.0  T
   6    -41.1136963 -0.123707E-07  0.147E-03    8.70      15.7  T
speedup  1.08
cpu  time for SCC    0.00 s
wall time for SCC    0.00 s
speedup  1.00
cpu  time for grad    0.01 s
wall time for grad    0.01 s
 E :    -40.91589791  G :  0.033355    pred/act E change: -0.518D-03  0.148D-03
Maxdispl :   0.1997   ||displ|| :   0.2464   Lambda : -0.219D-02
Largest |displ|/coords:  0.1997 (   2)  0.0709 (  11)  0.0561 (   4)
................................................................................
.............................. CYCLE   52 ......................................
................................................................................
   1    -41.1143070 -0.411143E+02  0.196E-01    8.86       0.0  T
   2    -41.1143268 -0.198124E-04  0.143E-01    8.89       1.0  T
   3    -41.1143403 -0.135083E-04  0.358E-02    8.96       1.0  T
   4    -41.1143423 -0.197996E-05  0.934E-03    8.95       2.5  T
   5    -41.1143424 -0.170569E-06  0.351E-03    8.94       6.5  T
   6    -41.1143424 -0.876219E-08  0.198E-03    8.94      11.6  T
speedup  1.08
cpu  time for SCC    0.00 s
wall time for SCC    0.00 s
speedup  1.00
cpu  time for grad    0.01 s
wall time for grad    0.01 s
 E :    -40.91699115  G :  0.020279    pred/act E change: -0.681D-03 -0.109D-02
Maxdispl :   0.1604   ||displ|| :   0.2949   Lambda : -0.107D-02
Largest |displ|/coords:  0.1604 (   2)  0.1528 (   3)  0.1005 (   4)

generating ANC from model Hessian ...
 Shifting diagonal of input Hessian by   4.736665535403031E-003
 Lowest  eigenvalues of input Hessian
   -0.000000   -0.000000   -0.000000    0.000000    0.000000    0.000000
    0.005000    0.005265    0.005624    0.007050    0.007968    0.008927
    0.009380    0.010987    0.013954    0.015238    0.017567    0.019825
 Highest eigenvalues
    1.411327    1.416407    1.449056    2.689264    3.443046    3.612481
 
cpu  time for ANC gen    0.01 s
wall time for ANC gen    0.01 s
................................................................................
.............................. CYCLE   53 ......................................
................................................................................
   1    -41.1231660 -0.411232E+02  0.146E-01    9.08       0.0  T
   2    -41.1231856 -0.195878E-04  0.106E-01    9.08       1.0  T
   3    -41.1231970 -0.113384E-04  0.277E-02    9.08       1.0  T
   4    -41.1231985 -0.150618E-05  0.797E-03    9.10       2.9  T
   5    -41.1231986 -0.786937E-07  0.278E-03    9.10       8.2  T
   6    -41.1231986 -0.284215E-08  0.144E-03    9.10      15.9  T
   7    -41.1231986 -0.193256E-08  0.303E-04    9.10      75.8  T
   8    -41.1231986 -0.144624E-09  0.968E-05    9.10     236.9  T
speedup  1.02
cpu  time for SCC    0.01 s
wall time for SCC    0.00 s
speedup  1.04
cpu  time for grad    0.01 s
wall time for grad    0.01 s
 E :    -40.91673848  G :  0.027821    pred/act E change:  0.000D+00  0.253D-03
Maxdispl :   0.2282   ||displ|| :   0.4514   Lambda : -0.374D-02
Largest |displ|/coords:  0.2282 (   6)  0.1939 (   8)  0.1817 (   7)
................................................................................
.............................. CYCLE   54 ......................................
................................................................................
   1    -41.1102836 -0.411103E+02  0.761E-01    8.90       0.0  T
   2    -41.1103977 -0.114091E-03  0.574E-01    8.99       1.0  T
   3    -41.1104825 -0.847484E-04  0.652E-02    9.17       1.0  T
   4    -41.1104979 -0.154367E-04  0.140E-02    9.11       1.6  T
   5    -41.1104981 -0.213394E-06  0.620E-03    9.10       3.7  T
   6    -41.1104981 -0.263273E-07  0.318E-03    9.10       7.2  T
   7    -41.1104981 -0.129314E-07  0.579E-04    9.11      39.6  T
speedup  0.93
cpu  time for SCC    0.00 s
wall time for SCC    0.00 s
speedup  0.93
cpu  time for grad    0.01 s
wall time for grad    0.01 s
 E :    -40.91640314  G :  0.050668    pred/act E change:  0.000D+00  0.335D-03
Maxdispl :   0.2302   ||displ|| :   0.4822   Lambda : -0.109D-01
Largest |displ|/coords:  0.2302 (   8)  0.2120 (  12)  0.1849 (   6)
................................................................................
.............................. CYCLE   55 ......................................
................................................................................
   1    -41.1211395 -0.411211E+02  0.902E-01    9.19       0.0  T
   2    -41.1213751 -0.235593E-03  0.684E-01    9.11       1.0  T
   3    -41.1215301 -0.155014E-03  0.998E-02    8.94       1.0  T
   4    -41.1215688 -0.386791E-04  0.209E-02    9.04       1.1  T
   5    -41.1215694 -0.642257E-06  0.104E-02    9.05       2.2  T
   6    -41.1215695 -0.350528E-07  0.517E-03    9.05       4.4  T
   7    -41.1215695 -0.241271E-07  0.778E-04    9.05      29.5  T
speedup  0.93
cpu  time for SCC    0.00 s
wall time for SCC    0.00 s
speedup  1.03
cpu  time for grad    0.01 s
wall time for grad    0.01 s
 E :    -40.91637168  G :  0.030258    pred/act E change: -0.225D-02  0.315D-04
Maxdispl :   0.0791   ||displ|| :   0.1714   Lambda : -0.169D-02
Largest |displ|/coords:  0.0791 (   1)  0.0774 (   7)  0.0633 (  11)
................................................................................
.............................. CYCLE   56 ......................................
................................................................................
   1    -41.1208520 -0.411209E+02  0.276E-01    9.05       0.0  T
   2    -41.1208612 -0.927407E-05  0.211E-01    9.06       1.0  T
   3    -41.1208715 -0.102699E-04  0.151E-02    9.08       1.5  T
   4    -41.1208722 -0.647337E-06  0.537E-03    9.07       4.3  T
   5    -41.1208722 -0.367762E-07  0.188E-03    9.07      12.2  T
speedup  0.97
cpu  time for SCC    0.00 s
wall time for SCC    0.00 s
speedup  0.95
cpu  time for grad    0.01 s
wall time for grad    0.01 s
 E :    -40.91779070  G :  0.014922    pred/act E change: -0.672D-02 -0.142D-02
Maxdispl :   0.2094   ||displ|| :   0.4857   Lambda : -0.337D-02
Largest |displ|/coords:  0.2094 (   1)  0.2023 (   8)  0.1860 (  12)
................................................................................
.............................. CYCLE   57 ......................................
................................................................................
   1    -41.1027538 -0.411028E+02  0.730E-01    8.84       0.0  T
   2    -41.1029539 -0.200116E-03  0.545E-01    8.95       1.0  T
   3    -41.1030536 -0.996481E-04  0.944E-02    9.15       1.0  T
   4    -41.1030835 -0.299225E-04  0.188E-02    9.08       1.2  T
   5    -41.1030840 -0.562775E-06  0.743E-03    9.07       3.1  T
   6    -41.1030841 -0.581045E-07  0.433E-03    9.07       5.3  T
   7    -41.1030841 -0.142791E-07  0.769E-04    9.07      29.8  T
   8    -41.1030841 -0.119775E-08  0.303E-04    9.07      75.8  T
speedup  1.02
cpu  time for SCC    0.00 s
wall time for SCC    0.00 s
speedup  0.98
cpu  time for grad    0.01 s
wall time for grad    0.01 s
 E :    -40.91448204  G :  0.075620    pred/act E change: -0.871D-03  0.331D-02
Maxdispl :   0.2478   ||displ|| :   0.5540   Lambda : -0.197D-01
Largest |displ|/coords:  0.2478 (   8)  0.2292 (  12)  0.2133 (   6)
................................................................................
.............................. CYCLE   58 ......................................
................................................................................
   1    -41.1222500 -0.411223E+02  0.937E-01    9.27       0.0  T
   2    -41.1226169 -0.366926E-03  0.706E-01    9.16       1.0  T
   3    -41.1228272 -0.210253E-03  0.130E-01    8.94       1.0  T
   4    -41.1228817 -0.545061E-04  0.304E-02    9.06       1.0  T
   5    -41.1228836 -0.187304E-05  0.126E-02    9.07       1.8  T
   6    -41.1228836 -0.596322E-07  0.644E-03    9.08       3.6  T
   7    -41.1228837 -0.458500E-07  0.101E-03    9.07      22.7  T
   8    -41.1228837 -0.195374E-08  0.342E-04    9.07      67.0  T
speedup  0.82
cpu  time for SCC    0.00 s
wall time for SCC    0.00 s
speedup  0.98
cpu  time for grad    0.01 s
wall time for grad    0.01 s
 E :    -40.91638623  G :  0.038715    pred/act E change: -0.208D-02 -0.190D-02
Maxdispl :   0.0523   ||displ|| :   0.1226   Lambda : -0.174D-02
Largest |displ|/coords:  0.0523 (  12)  0.0484 (   8)  0.0471 (  13)
................................................................................
.............................. CYCLE   59 ......................................
................................................................................
   1    -41.1205358 -0.411205E+02  0.208E-01    9.04       0.0  T
   2    -41.1205434 -0.755606E-05  0.158E-01    9.05       1.0  T
   3    -41.1205498 -0.642679E-05  0.173E-02    9.08       1.3  T
   4    -41.1205507 -0.880064E-06  0.476E-03    9.07       4.8  T
   5    -41.1205507 -0.417946E-07  0.163E-03    9.07      14.1  T
speedup  0.97
cpu  time for SCC    0.00 s
wall time for SCC    0.00 s
speedup  0.95
cpu  time for grad    0.01 s
wall time for grad    0.01 s
 E :    -40.91785066  G :  0.015938    pred/act E change: -0.129D-01 -0.146D-02
Maxdispl :   0.1726   ||displ|| :   0.3720   Lambda : -0.318D-02
Largest |displ|/coords:  0.1726 (  12)  0.1529 (   8)  0.1312 (  13)
................................................................................
.............................. CYCLE   60 ......................................
................................................................................
   1    -41.1072706 -0.411073E+02  0.631E-01    8.89       0.0  T
   2    -41.1073970 -0.126490E-03  0.473E-01    8.97       1.0  T
   3    -41.1074689 -0.718933E-04  0.748E-02    9.13       1.0  T
   4    -41.1074878 -0.189013E-04  0.151E-02    9.07       1.5  T
   5    -41.1074882 -0.401254E-06  0.589E-03    9.06       3.9  T
   6    -41.1074883 -0.254855E-07  0.345E-03    9.07       6.6  T
   7    -41.1074883 -0.107507E-07  0.675E-04    9.07      34.0  T
   8    -41.1074883 -0.757282E-09  0.232E-04    9.07      98.7  T
speedup  1.02
cpu  time for SCC    0.00 s
wall time for SCC    0.00 s
speedup  0.98
cpu  time for grad    0.01 s
wall time for grad    0.01 s
 E :    -40.91652387  G :  0.059268    pred/act E change: -0.883D-03  0.133D-02
Maxdispl :   0.1957   ||displ|| :   0.4299   Lambda : -0.110D-01
Largest |displ|/coords:  0.1957 (  12)  0.1844 (   8)  0.1484 (  11)
................................................................................
.............................. CYCLE   61 ......................................
................................................................................
   1    -41.1216431 -0.411216E+02  0.772E-01    9.23       0.0  T
   2    -41.1218714 -0.228309E-03  0.582E-01    9.14       1.0  T
   3    -41.1220050 -0.133577E-03  0.102E-01    8.96       1.0  T
   4    -41.1220398 -0.347632E-04  0.219E-02    9.06       1.0  T
   5    -41.1220407 -0.947797E-06  0.962E-03    9.07       2.4  T
   6    -41.1220408 -0.287449E-07  0.499E-03    9.07       4.6  T
   7    -41.1220408 -0.236043E-07  0.799E-04    9.07      28.7  T
speedup  1.16
cpu  time for SCC    0.00 s
wall time for SCC    0.00 s
speedup  1.04
cpu  time for grad    0.01 s
wall time for grad    0.01 s
 E :    -40.91688636  G :  0.032756    pred/act E change: -0.181D-02 -0.362D-03
Maxdispl :   0.0597   ||displ|| :   0.1397   Lambda : -0.172D-02
Largest |displ|/coords:  0.0597 (  12)  0.0561 (   1)  0.0542 (   8)
................................................................................
.............................. CYCLE   62 ......................................
................................................................................
   1    -41.1197737 -0.411198E+02  0.252E-01    9.05       0.0  T
   2    -41.1197845 -0.108030E-04  0.191E-01    9.07       1.0  T
   3    -41.1197936 -0.912395E-05  0.201E-02    9.11       1.1  T
   4    -41.1197949 -0.130527E-05  0.504E-03    9.09       4.6  T
   5    -41.1197950 -0.459820E-07  0.194E-03    9.09      11.8  T
speedup  0.97
cpu  time for SCC    0.00 s
wall time for SCC    0.00 s
speedup  0.94
cpu  time for grad    0.01 s
wall time for grad    0.01 s
 E :    -40.91832692  G :  0.010456    pred/act E change: -0.652D-02 -0.144D-02
Maxdispl :   0.1322   ||displ|| :   0.3079   Lambda : -0.210D-02
Largest |displ|/coords:  0.1322 (  12)  0.1116 (   8)  0.0998 (  13)
................................................................................
.............................. CYCLE   63 ......................................
................................................................................
   1    -41.1097950 -0.411098E+02  0.505E-01    8.96       0.0  T
   2    -41.1098780 -0.829142E-04  0.379E-01    9.03       1.0  T
   3    -41.1099258 -0.478196E-04  0.606E-02    9.17       1.0  T
   4    -41.1099382 -0.123908E-04  0.116E-02    9.12       2.0  T
   5    -41.1099384 -0.219619E-06  0.497E-03    9.11       4.6  T
   6    -41.1099384 -0.150906E-07  0.282E-03    9.11       8.1  T
   7    -41.1099384 -0.758649E-08  0.579E-04    9.11      39.6  T
speedup  1.16
cpu  time for SCC    0.01 s
wall time for SCC    0.00 s
speedup  1.04
cpu  time for grad    0.01 s
wall time for grad    0.01 s
 E :    -40.91752002  G :  0.050049    pred/act E change: -0.877D-03  0.807D-03
Maxdispl :   0.1521   ||displ|| :   0.3559   Lambda : -0.675D-02
Largest |displ|/coords:  0.1521 (  12)  0.1378 (   8)  0.1282 (   6)
................................................................................
.............................. CYCLE   64 ......................................
................................................................................
   1    -41.1210527 -0.411211E+02  0.626E-01    9.24       0.0  T
   2    -41.1212042 -0.151491E-03  0.472E-01    9.16       1.0  T
   3    -41.1212934 -0.892749E-04  0.829E-02    9.00       1.0  T
   4    -41.1213163 -0.228894E-04  0.165E-02    9.08       1.4  T
   5    -41.1213168 -0.457175E-06  0.780E-03    9.09       2.9  T
   6    -41.1213168 -0.183280E-07  0.399E-03    9.09       5.7  T
   7    -41.1213168 -0.155709E-07  0.681E-04    9.09      33.7  T
speedup  0.93
cpu  time for SCC    0.00 s
wall time for SCC    0.00 s
speedup  1.03
cpu  time for grad    0.01 s
wall time for grad    0.01 s
 E :    -40.91765549  G :  0.025046    pred/act E change: -0.115D-02 -0.135D-03
Maxdispl :   0.0575   ||displ|| :   0.1352   Lambda : -0.135D-02
Largest |displ|/coords:  0.0575 (   1)  0.0533 (  12)  0.0470 (   8)
................................................................................
.............................. CYCLE   65 ......................................
................................................................................
   1    -41.1188631 -0.411189E+02  0.233E-01    9.07       0.0  T
   2    -41.1188737 -0.106844E-04  0.176E-01    9.09       1.0  T
   3    -41.1188818 -0.805010E-05  0.207E-02    9.14       1.1  T
   4    -41.1188832 -0.145100E-05  0.451E-03    9.12       5.1  T
   5    -41.1188833 -0.353924E-07  0.189E-03    9.12      12.2  T
speedup  0.94
cpu  time for SCC    0.00 s
wall time for SCC    0.00 s
speedup  0.93
cpu  time for grad    0.01 s
wall time for grad    0.01 s
 E :    -40.91873326  G :  0.005901    pred/act E change: -0.380D-02 -0.108D-02
Maxdispl :   0.0954   ||displ|| :   0.2169   Lambda : -0.101D-02
Largest |displ|/coords:  0.0954 (   3)  0.0787 (  12)  0.0719 (   5)
................................................................................
.............................. CYCLE   66 ......................................
[...]
   2    -41.1200415 -0.346252E-06  0.372E-02    9.42       1.0  T
   3    -41.1200418 -0.340029E-06  0.399E-03    9.42       5.7  T
   4    -41.1200419 -0.394458E-07  0.128E-03    9.42      18.0  T
   5    -41.1200419 -0.183512E-08  0.521E-04    9.42      44.0  T
   6    -41.1200419 -0.198483E-09  0.267E-04    9.42      86.0  T
speedup  0.79
cpu  time for SCC    0.00 s
wall time for SCC    0.00 s
speedup  0.95
cpu  time for grad    0.01 s
wall time for grad    0.01 s
 E :    -40.92341930  G :  0.002566    pred/act E change: -0.951D-05 -0.804D-05
Maxdispl :   0.0120   ||displ|| :   0.0237   Lambda : -0.102D-04
Largest |displ|/coords:  0.0120 (   8)  0.0104 (   1)  0.0094 (   4)
................................................................................
.............................. CYCLE   93 ......................................
................................................................................
   1    -41.1203581 -0.411204E+02  0.211E-02    9.42       0.0  T
   2    -41.1203582 -0.735183E-07  0.157E-02    9.42       1.5  T
   3    -41.1203582 -0.617615E-07  0.245E-03    9.42       9.4  T
   4    -41.1203582 -0.839660E-08  0.988E-04    9.42      23.2  T
   5    -41.1203582 -0.787267E-09  0.241E-04    9.42      95.4  T
speedup  0.97
cpu  time for SCC    0.00 s
wall time for SCC    0.00 s
speedup  1.02
cpu  time for grad    0.01 s
wall time for grad    0.01 s
 E :    -40.92342609  G :  0.001173    pred/act E change: -0.724D-05 -0.680D-05
Maxdispl :   0.0178   ||displ|| :   0.0327   Lambda : -0.556D-05
Largest |displ|/coords:  0.0178 (   1)  0.0174 (   2)  0.0139 (   8)
................................................................................
.............................. CYCLE   94 ......................................
................................................................................
   1    -41.1202624 -0.411203E+02  0.339E-02    9.42       0.0  T
   2    -41.1202624 -0.655712E-07  0.255E-02    9.42       1.0  T
   3    -41.1202625 -0.802800E-07  0.199E-03    9.42      11.6  T
   4    -41.1202625 -0.375809E-08  0.864E-04    9.42      26.6  T
   5    -41.1202625 -0.443542E-09  0.255E-04    9.42      89.9  T
speedup  0.97
cpu  time for SCC    0.00 s
wall time for SCC    0.00 s
speedup  1.02
cpu  time for grad    0.01 s
wall time for grad    0.01 s
 E :    -40.92342956  G :  0.000960    pred/act E change: -0.512D-05 -0.347D-05
Maxdispl :   0.0061   ||displ|| :   0.0117   Lambda : -0.261D-05
Largest |displ|/coords:  0.0061 (   8)  0.0050 (   9)  0.0036 (   7)
................................................................................
.............................. CYCLE   95 ......................................
................................................................................
   1    -41.1202570 -0.411203E+02  0.143E-02    9.42       0.0  T
   2    -41.1202570 -0.336811E-07  0.108E-02    9.42       2.1  T
   3    -41.1202571 -0.238842E-07  0.129E-03    9.42      17.7  T
   4    -41.1202571 -0.508823E-08  0.373E-04    9.42      61.5  T
   5    -41.1202571 -0.118575E-09  0.138E-04    9.42     166.6  T
speedup  0.97
cpu  time for SCC    0.00 s
wall time for SCC    0.00 s
speedup  1.02
cpu  time for grad    0.01 s
wall time for grad    0.01 s
 E :    -40.92343144  G :  0.000751    pred/act E change: -0.278D-05 -0.188D-05
Maxdispl :   0.0079   ||displ|| :   0.0172   Lambda : -0.247D-05
Largest |displ|/coords:  0.0079 (   1)  0.0076 (   9)  0.0057 (   8)
................................................................................
.............................. CYCLE   96 ......................................
................................................................................
   1    -41.1201520 -0.411202E+02  0.213E-02    9.42       0.0  T
   2    -41.1201520 -0.461385E-07  0.161E-02    9.42       1.4  T
   3    -41.1201521 -0.414638E-07  0.146E-03    9.42      15.7  T
   4    -41.1201521 -0.560345E-08  0.409E-04    9.42      56.1  T
   5    -41.1201521 -0.109630E-09  0.172E-04    9.42     133.4  T
speedup  0.97
cpu  time for SCC    0.00 s
wall time for SCC    0.00 s
speedup  1.02
cpu  time for grad    0.01 s
wall time for grad    0.01 s
 E :    -40.92343314  G :  0.000788    pred/act E change: -0.131D-05 -0.170D-05
Maxdispl :   0.0063   ||displ|| :   0.0119   Lambda : -0.162D-05
Largest |displ|/coords:  0.0063 (   9)  0.0051 (   4)  0.0045 (   7)
................................................................................
.............................. CYCLE   97 ......................................
................................................................................
   1    -41.1201114 -0.411201E+02  0.126E-02    9.41       0.0  T
   2    -41.1201114 -0.331095E-07  0.951E-03    9.41       2.4  T
   3    -41.1201114 -0.200611E-07  0.143E-03    9.42      16.1  T
   4    -41.1201114 -0.513192E-08  0.437E-04    9.41      52.4  T
   5    -41.1201114 -0.209873E-09  0.116E-04    9.41     197.0  T
speedup  0.97
cpu  time for SCC    0.00 s
wall time for SCC    0.00 s
speedup  0.92
cpu  time for grad    0.01 s
wall time for grad    0.01 s
 E :    -40.92343429  G :  0.000615    pred/act E change: -0.123D-05 -0.114D-05
Maxdispl :   0.0084   ||displ|| :   0.0126   Lambda : -0.116D-05
Largest |displ|/coords:  0.0084 (   1)  0.0044 (   9)  0.0041 (   2)
................................................................................
.............................. CYCLE   98 ......................................
................................................................................
   1    -41.1200943 -0.411201E+02  0.132E-02    9.41       0.0  T
   2    -41.1200944 -0.259146E-07  0.995E-03    9.41       2.3  T
   3    -41.1200944 -0.183703E-07  0.132E-03    9.41      17.4  T
   4    -41.1200944 -0.380872E-08  0.491E-04    9.41      46.8  T
   5    -41.1200944 -0.182446E-09  0.116E-04    9.41     197.0  T
speedup  0.94
cpu  time for SCC    0.00 s
wall time for SCC    0.00 s
speedup  0.91
cpu  time for grad    0.01 s
wall time for grad    0.01 s
 E :    -40.92343508  G :  0.000488    pred/act E change: -0.808D-06 -0.799D-06
Maxdispl :   0.0060   ||displ|| :   0.0080   Lambda : -0.637D-06
Largest |displ|/coords:  0.0060 (   1)  0.0022 (   2)  0.0017 (   9)
................................................................................
.............................. CYCLE   99 ......................................
................................................................................
   1    -41.1201355 -0.411201E+02  0.703E-03    9.42       0.0  T
   2    -41.1201355 -0.128205E-07  0.528E-03    9.42       4.3  T
   3    -41.1201355 -0.931659E-08  0.906E-04    9.42      25.3  T
   4    -41.1201355 -0.172709E-08  0.353E-04    9.42      65.1  T
speedup  1.20
cpu  time for SCC    0.00 s
wall time for SCC    0.00 s
speedup  1.10
cpu  time for grad    0.01 s
wall time for grad    0.01 s
 E :    -40.92343553  G :  0.000393    pred/act E change: -0.581D-06 -0.442D-06
Maxdispl :   0.0063   ||displ|| :   0.0079   Lambda : -0.344D-06
Largest |displ|/coords:  0.0063 (   1)  0.0031 (   2)  0.0014 (   5)
................................................................................
.............................. CYCLE  100 ......................................
................................................................................
   1    -41.1201618 -0.411202E+02  0.634E-03    9.42       0.0  T
   2    -41.1201618 -0.652786E-08  0.477E-03    9.42       4.8  T
   3    -41.1201618 -0.550894E-08  0.613E-04    9.42      37.4  T
   4    -41.1201618 -0.822872E-09  0.237E-04    9.42      96.8  T
speedup  0.77
cpu  time for SCC    0.00 s
wall time for SCC    0.00 s
speedup  0.98
cpu  time for grad    0.01 s
wall time for grad    0.01 s
 E :    -40.92343578  G :  0.000308    pred/act E change: -0.318D-06 -0.254D-06
Maxdispl :   0.0044   ||displ|| :   0.0059   Lambda : -0.265D-06
Largest |displ|/coords:  0.0044 (   1)  0.0018 (   7)  0.0017 (   2)
................................................................................
.............................. CYCLE  101 ......................................
................................................................................
   1    -41.1201895 -0.411202E+02  0.449E-03    9.42       0.0  T
   2    -41.1201895 -0.514168E-08  0.339E-03    9.42       6.8  T
   3    -41.1201895 -0.394408E-08  0.598E-04    9.42      38.3  T
   4    -41.1201895 -0.681510E-09  0.217E-04    9.42     105.6  T
speedup  0.80
cpu  time for SCC    0.00 s
wall time for SCC    0.00 s
speedup  0.99
cpu  time for grad    0.01 s
wall time for grad    0.01 s
 E :    -40.92343596  G :  0.000209    pred/act E change: -0.172D-06 -0.183D-06
Maxdispl :   0.0032   ||displ|| :   0.0048   Lambda : -0.149D-06
Largest |displ|/coords:  0.0032 (   1)  0.0018 (   7)  0.0018 (   2)
................................................................................
.............................. CYCLE  102 ......................................
................................................................................
   1    -41.1201785 -0.411202E+02  0.405E-03    9.42       0.0  T
   2    -41.1201785 -0.218066E-08  0.307E-03    9.42       7.5  T
   3    -41.1201785 -0.209113E-08  0.365E-04    9.42      62.9  T
   4    -41.1201785 -0.247120E-09  0.142E-04    9.42     161.2  T
speedup  1.20
cpu  time for SCC    0.00 s
wall time for SCC    0.00 s
speedup  1.08
cpu  time for grad    0.01 s
wall time for grad    0.01 s
 E :    -40.92343607  G :  0.000145    pred/act E change: -0.132D-06 -0.104D-06
Maxdispl :   0.0014   ||displ|| :   0.0026   Lambda : -0.107D-06
Largest |displ|/coords:  0.0014 (   7)  0.0009 (  18)  0.0007 (   4)
................................................................................
.............................. CYCLE  103 ......................................
................................................................................
   1    -41.1201656 -0.411202E+02  0.248E-03    9.42       0.0  T
   2    -41.1201656 -0.137611E-08  0.189E-03    9.42      12.2  T
   3    -41.1201656 -0.141055E-08  0.303E-04    9.42      75.8  T
   4    -41.1201656 -0.144219E-09  0.964E-05    9.42     238.1  T
speedup  0.80
cpu  time for SCC    0.00 s
wall time for SCC    0.00 s
speedup  0.98
cpu  time for grad    0.01 s
wall time for grad    0.01 s
 E :    -40.92343614  G :  0.000165    pred/act E change: -0.744D-07 -0.720D-07
Maxdispl :   0.0012   ||displ|| :   0.0022   Lambda : -0.641D-07
Largest |displ|/coords:  0.0012 (   7)  0.0007 (   6)  0.0006 (   4)

   *** GEOMETRY OPTIMIZATION CONVERGED AFTER 103 ITERATIONS ***

------------------------------------------------------------------------
 total energy gain (kcal):     -0.4587
------------------------------------------------------------------------
================
 final structure:
================
$coord
        1.56928104499986        0.12671445753855       -2.77205019261781      S 
       -0.99082721887690        0.02742356276178       -3.73035607730794      O 
        2.25903146186540        2.67086340450376       -1.93451237832268      O 
        2.03850365743089       -1.74771936693644       -0.81783277330043      O 
        3.40015369654620       -0.53812091784398       -5.02343849498467      O 
        3.01366391515475        0.73343457495234       -6.23629540784322      H 
       -3.78060496098244        1.12186436482553        0.20193602577525      O 
       -3.07284010736942        0.87357110009044       -1.50554980008786      H 
       -3.63259847761682       -0.54989292749074        0.98519847469399      H 
       -2.03649085253953       -3.44716768357314        1.56423591015224      O 
       -2.79200508593869       -4.91578088106350        0.82233905320075      H 
       -0.53828559146874       -3.05875095813322        0.53804462394786      H 
        1.87238156062790       -0.40407068212819        4.04079266198580      O 
        2.45273108360331       -0.99717284708440        2.38553744891138      H 
        0.58256670873389       -1.58790591146285        4.54148349555534      H 
       -0.13103085685210        3.47553703779108        2.02345517812243      O 
        0.96700444302598        3.42847705073575        0.38101981941887      H 
       -1.87181716175229        2.66911967278830        1.39114193544947      H 
        0.69118274142460        2.11957691192848        3.14485051614270      H 
$end
 
 Bond Distances (Angstroems)
 ---------------------------
S1-O2=1.4475         S1-O3=1.4636         S1-O4=1.4543         S1-O5=1.5754         O2-S1=1.4475         O3-S1=1.4636         
O4-S1=1.4543         O5-S1=1.5754         O5-H6=0.9521         H6-O5=0.9521         O7-H8=0.9869         O7-H9=0.9801         
H8-O7=0.9869         H9-O7=0.9801         O10-H11=0.9581       O10-H12=0.9827       H11-O10=0.9581       H12-O10=0.9827       
O13-H14=0.9798       O13-H15=0.9636       H14-O13=0.9798       H15-O13=0.9636       O16-H17=1.0458       O16-H18=1.0689       
O16-H19=1.0278       H17-O16=1.0458       H18-O16=1.0689       H19-O16=1.0278       
 O  H  Rav=0.9946 sigma=0.0374  Rmin=0.9521  Rmax=1.0689    10
 S  O  Rav=1.4852 sigma=0.0524  Rmin=1.4475  Rmax=1.5754     4
 
 selected bond angles (degree)
 --------------------
O3-S1-O2=111.89                O4-S1-O2=112.59                O4-S1-O3=111.68                O5-S1-O2=107.61                
O5-S1-O3=106.32                O5-S1-O4=106.29                H6-O5-S1=102.70                H9-O7-H8=103.69                
H12-O10-H11=106.25             
 
 selected dihedral angles (degree)
 ---------------------------------
H6-O5-S1-O2= 59.06            H6-O5-S1-O3=299.02            H6-O5-S1-O4=179.90            
 
 CMA Distance (Angstroems)
 ---------------------------
R(CMA):  2.8852

========================================================================
 FINAL SINGLEPOINT CALCULATION ON OPTIMIZED GEOMETRY
========================================================================

 Ncao       : 52
 Nao        : 51
 Nshell     : 29
 Nel        : 64
 T(el)      :   300.0
 intcut     :    25.0
 scfconv/Eh :  0.100E-05
   qconv/e  :  0.100E-03
 intneglect :  0.100E-07
 broydamp   :      0.250
 iter      E             dE          RMSdq      gap      omega  full diag
   1    -41.1201656 -0.411202E+02  0.407E-05    9.42       0.0  T
   2    -41.1201656 -0.909495E-12  0.260E-05    9.42     881.3  T
   3    -41.1201656 -0.461853E-12  0.524E-06    9.42    4378.5  T
speedup  1.11
cpu  time for SCC    0.00 s
wall time for SCC    0.00 s

   *** convergence criteria satisfied after 3 iterations ***

          eigenvalues
 #    :          20         21         22         23         24         25         26         27
 occ. :        2.000      2.000      2.000      2.000      2.000      2.000      2.000      2.000
 eps  :       -14.504    -14.457    -14.218    -13.734    -12.918    -12.786    -12.752    -12.706
 #    :          28         29         30         31         32         33         34         35
 occ. :        2.000      2.000      2.000      2.000      2.000      0.000      0.000      0.000
 eps  :       -12.635    -12.560    -12.427    -12.275    -12.112     -2.695     -0.809     -0.390
 #    :          36         37         38         39         40         41         42         43
 occ. :        0.000      0.000      0.000      0.000      0.000      0.000      0.000      0.000
 eps  :         0.430      0.883      2.068      2.320      3.604      4.831      6.171      6.647


   #   Z            q   n(s)   n(p)   n(d)      C6AA      α(0)
   1  16 S      1.671  1.580  1.792  0.958    89.435    15.917
   2   8 O     -0.735  1.771  4.963  0.000    29.667     7.303
   3   8 O     -0.736  1.774  4.962  0.000    29.679     7.305
   4   8 O     -0.733  1.762  4.970  0.000    29.611     7.296
   5   8 O     -0.574  1.747  4.827  0.000    24.538     6.687
   6   1 H      0.349  0.651  0.000  0.000     0.582     1.194
   7   8 O     -0.607  1.756  4.851  0.000    25.326     6.794
   8   1 H      0.335  0.665  0.000  0.000     0.625     1.242
   9   1 H      0.333  0.667  0.000  0.000     0.630     1.247
  10   8 O     -0.621  1.743  4.878  0.000    25.691     6.841
  11   1 H      0.289  0.711  0.000  0.000     0.753     1.363
  12   1 H      0.327  0.673  0.000  0.000     0.645     1.262
  13   8 O     -0.593  1.745  4.847  0.000    25.006     6.749
  14   1 H      0.335  0.665  0.000  0.000     0.625     1.242
  15   1 H      0.318  0.682  0.000  0.000     0.670     1.286
  16   8 O     -0.509  1.731  4.778  0.000    23.024     6.480
  17   1 H      0.385  0.615  0.000  0.000     0.511     1.121
  18   1 H      0.384  0.616  0.000  0.000     0.512     1.122
  19   1 H      0.381  0.619  0.000  0.000     0.523     1.136

 Mol. C6AA /au·bohr⁶  :       3380.110691
 Mol. C8AA /au·bohr⁸  :      76574.453314
 Mol. α(0) /au        :         83.588094

 
 Wiberg/Mayer (AO) data. WBOs > 0.1 written file <wbo>
 largest (>0.05) Wiberg bond orders for each atom
           total WBO             WBO to atom ...
     1  S   4.872    O    2 1.337    O    4 1.314    O    3 1.263    O    5 0.915
     2  O   1.728    S    1 1.337    O    4 0.111    O    3 0.111    O    5 0.077    H    8 0.063
     3  O   1.755    S    1 1.263    H   17 0.153    O    2 0.111    O    4 0.107    O    5 0.069
     4  O   1.744    S    1 1.314    O    2 0.111    O    3 0.107    O    5 0.060    H   12 0.059
     5  O   1.991    S    1 0.915    H    6 0.861    O    2 0.077    O    3 0.069    O    4 0.060
     6  H   0.878    O    5 0.861
     7  O   1.990    H    9 0.835    H    8 0.820    H   18 0.203    O   16 0.070
     8  H   0.888    O    7 0.820    O    2 0.063
     9  H   0.889    O    7 0.835    O   10 0.052
    10  O   1.857    H   11 0.912    H   12 0.829    H    9 0.052
    11  H   0.916    O   10 0.912
    12  H   0.893    O   10 0.829    O    4 0.059
    13  O   1.947    H   15 0.890    H   14 0.838    H   19 0.134    O   16 0.051
    14  H   0.888    O   13 0.838
    15  H   0.899    O   13 0.890
    16  O   2.240    H   19 0.718    H   17 0.689    H   18 0.646    O    7 0.070    O   13 0.051
    17  H   0.852    O   16 0.689    O    3 0.153
    18  H   0.852    O   16 0.646    O    7 0.203
    19  H   0.855    O   16 0.718    O   13 0.134
 MOs/occ written to file <molden.input>
 
molecular dipole:
                 x           y           z       tot (Debye)
 q only:       -0.491      -0.000       0.676
   full:       -0.199      -0.623      -0.186       1.728
molecular quadrupole (traceless):
                xx          xy          yy          xz          yz          zz
 q only:       -5.412       3.474       2.054      -2.766      -1.883       3.358
  q+dip:       -6.466       5.234       1.836      -4.312      -4.051       4.630
   full:       -6.695       5.410       1.659      -4.904      -4.117       5.036

SCC energy    :     -41.1201656
rep           :       0.1966387
ES            :       0.1988895
AES           :      -0.0545059
AXC           :      -0.0103466
disp          :      -0.0142340
XB            :       0.0000000
fix           :       0.0000000
total E       :     -40.9234361
atomizationE  :       3.7176233     2332.84
(atE without considering molecular charge,
 total energy contains solvation terms)
H-L gap (eV)  :          9.4166
optimized geometry written to: xtbopt.xyz


------------------------------------------------------------------------
 * finished run on 2019/09/03 at 12:45:20.847     
------------------------------------------------------------------------
 total:
 * wall-time:     0 d,  0 h,  0 min,  2.550 sec
 *  cpu-time:     0 d,  0 h,  0 min,  1.687 sec
 * ratio c/w:     0.661 speedup
 SCF:
 * wall-time:     0 d,  0 h,  0 min,  0.112 sec
 *  cpu-time:     0 d,  0 h,  0 min,  0.091 sec
 * ratio c/w:     0.809 speedup
 ANC optimizer:
 * wall-time:     0 d,  0 h,  0 min,  2.414 sec
 *  cpu-time:     0 d,  0 h,  0 min,  1.576 sec
 * ratio c/w:     0.653 speedup

