      -----------------------------------------------------------      
     |                   =====================                   |     
     |                           x T B                           |     
     |                   =====================                   |     
     |                         S. Grimme                         |     
     |          Mulliken Center for Theoretical Chemistry        |     
     |                    University of Bonn                     |     
     |                 Version 6.0.1 (SAW181210)                 |     
      -----------------------------------------------------------      

   This program is distributed in the hope that it will be useful,
   but WITHOUT ANY WARRANTY; without even the implied warranty of
   MERCHANTABILITY or FITNESS FOR A PARTICULAR PURPOSE.
   
   FOR NON-COMMERCIAL, ACADEMIA USE ONLY.
   
   Cite this work as:
   S. Grimme, C. Bannwarth, P. Shushkov, J. Comput. Theory Chem., 2017,
   13, 1989-2009.
   C. Bannwarth, S. Ehlert and S. Grimme., ChemRxiv, 2018, preprint.
   http://doi.org/10.26434/chemrxiv.7246238.v1
   
   for sTDA-xTB:
   S. Grimme and C. Bannwarth, J. Chem. Phys., 2016, 145, 054103.
   
   in the mass-spec context:
   V. Asgeirsson, C. Bauer and S. Grimme, Chem. Sci., 2017, 8, 4879.
   
   if GBSA is used:
   P. Shushkov, F. März and S. Grimme, unpublished.
   
   for ANC optimizer:
   S. Grimme, unpublished.
   Rational Function algorithm used in ANCopt:
   F. Eckert, P. Pulay, H.-J. Werner, J. Comput. Chem., 1997, 18, 1473.
   
   with help from (in alphabetical order)
   C. Bannwarth, F. Bohle, G. Brandenburg, E. Caldeweyher, M. Checinski,
   S. Dohm, S. Ehlert, S. Ehrlich, F. März, H. Neugebauer, J. Pisarek,
   P. Pracht, P. Shushkov, and S. Spicher.
   
 * started run on 2019/09/03 at 12:49:51.879     
========================================================================
 # omp threads = 1
========================================================================
number of atoms            : 19
number of electrons        : 64
charge                     : 0
spin                       : .0
first test random number   : .0153

########################################################################
# WARNING! Please study the warnings concerning your input carefully
#  - XTBPATH is not set, using XTBHOME instead
#  - the use of '-opt' is discouraged, please use '--opt' next time
#  - the use of '-chrg' is discouraged, please use '--chrg' next time
#  - the use of '-uhf' is discouraged, please use '--uhf' next time
########################################################################

           ------------------------------------------------- 
          |                 G F N 2 - x T B                 |
          | Geometry, Frequencies, Noncovalent interactions |
          |            JCTC 2018 parametrisation            |
           ------------------------------------------------- 
      method parameters     
 k(s)        :  1.8500
 k(p)        :  2.2300
 k(d)        :  2.2300
 k(f)        :  2.0000
 kEN (H0ij)  : -2.0000
 D4 a1       :  0.5200
 D4 a2       :  5.0000
 D4 s6       :  1.0000
 D4 s8       :  2.7000
 D4 s9       :  5.0000
 alphaj      :  2.0000


            Z     q(EN)     CN     RAES       Cart. coordinates
     1  S   6.0    0.64    4.26    4.16    -1.75848    -3.29299    -2.32537
     2  O   6.0   -0.28    1.12    1.80    -3.73278    -1.46190    -1.50234
     3  O   6.0   -0.29    1.13    1.80     0.39754    -1.89444    -3.47592
     4  O   6.0   -0.28    1.16    1.80    -0.84733    -4.75492    -0.09811
     5  O   6.0   -0.24    2.08    1.84    -2.83638    -5.03649    -4.19910
     6  H   1.0    0.15    1.21    1.47    -3.42370    -4.09535    -5.63451
     7  O   6.0   -0.26    1.93    1.82    -4.59929     2.83517     4.92028
     8  H   1.0    0.15    0.97    1.43    -6.12510     3.75488     4.54524
     9  H   1.0    0.14    0.97    1.43    -3.39552     4.09467     5.44869
    10  O   6.0   -0.28    2.05    1.83     2.08866     2.23754     0.10735
    11  H   1.0    0.15    0.97    1.43     2.42606     3.80266    -0.75934
    12  H   1.0    0.16    0.99    1.43     1.79127     1.01363    -1.20727
    13  O   6.0   -0.25    1.92    1.82     7.36764     1.91187    -1.57610
    14  H   1.0    0.14    0.97    1.43     7.68034     3.33087    -2.67303
    15  H   1.0    0.15    0.97    1.43     7.05397     0.50426    -2.68735
    16  O   6.0   -0.21    2.88    2.49    -0.36986    -0.72417     3.15501
    17  H   1.0    0.14    1.07    1.44     0.67627     0.41743     2.10992
    18  H   1.0    0.14    0.97    1.43    -2.14183    -0.14327     3.26775
    19  H   1.0    0.15    1.02    1.43    -0.25146    -2.49946     2.58420

  Z AO/shell   Hii/eV     exponent
  1     Wed Apr 25 08:07:45 CEST 2018   EN: 2.200 GM2: 0.406  GM3: 0.0800  RAES: 1.40
     1s    -10.707211    1.230000
  8     Wed Apr 25 08:07:45 CEST 2018   EN: 3.440 GM2: 0.452  GM3:-0.0517  RAES: 1.80
     2s    -20.229985    2.439742
     2p    -15.503117    2.137023
 16     Tue Apr 24 11:44:34 CEST 2018   EN: 2.580 GM2: 0.340  GM3:-0.0502  RAES: 3.10
     3s    -20.029654    1.981333
     3p    -11.377694    2.025643
     3d     -0.420282    1.702555
 no old-style atom pair restraining (fixing) potential

molecular fragmentation (1/2 indicates fragments):
1111112222222222222
# atoms in fragment 1/2:     6    13
 fragment masses (1/2) :       97.07       73.07
CMA distance (Bohr)    :   6.889
constraining FC (au)   :  0.0500
           ------------------------------------------------- 
          |        Self-Consistent Charge Iterations        |
           ------------------------------------------------- 

 Ncao       : 52
 Nao        : 51
 Nshell     : 29
 Nel        : 64
 T(el)      :   300.0
 intcut     :    25.0
 scfconv/Eh :  0.100E-05
   qconv/e  :  0.100E-03
 intneglect :  0.100E-07
 broydamp   :      0.250
 iter      E             dE          RMSdq      gap      omega  full diag
   1    -40.9625062 -0.409625E+02  0.771E+00   10.70       0.0  T
   2    -41.0082325 -0.457262E-01  0.555E+00   10.11       1.0  T
   3    -41.0411061 -0.328737E-01  0.153E+00    8.18       1.0  T
   4    -41.0457910 -0.468489E-02  0.589E-01    8.03       1.0  T
   5    -41.0462886 -0.497585E-03  0.330E-01    7.91       1.0  T
   6    -41.0466101 -0.321523E-03  0.142E-01    7.92       1.0  T
   7    -41.0466823 -0.722170E-04  0.552E-02    7.99       1.0  T
   8    -41.0466928 -0.104368E-04  0.317E-02    7.99       1.0  T
   9    -41.0466969 -0.408529E-05  0.141E-02    7.99       1.6  T
  10    -41.0466978 -0.940365E-06  0.288E-03    7.99       8.0  T
  11    -41.0466978 -0.222388E-07  0.117E-03    7.99      19.6  T
  12    -41.0466978 -0.513219E-08  0.498E-04    7.99      46.1  T
  13    -41.0466978 -0.928814E-09  0.117E-04    7.99     196.9  T
speedup  1.05
cpu  time for SCC    0.01 s
wall time for SCC    0.01 s

   *** convergence criteria satisfied after 13 iterations ***

          eigenvalues
 #    :          20         21         22         23         24         25         26         27
 occ. :        2.000      2.000      2.000      2.000      2.000      2.000      2.000      2.000
 eps  :       -13.966    -13.837    -12.901    -12.596    -12.370    -12.088    -12.019    -11.263
 #    :          28         29         30         31         32         33         34         35
 occ. :        2.000      2.000      2.000      2.000      2.000      0.000      0.000      0.000
 eps  :       -10.870    -10.769    -10.314    -10.245     -9.980     -1.994     -0.546      0.575
 #    :          36         37         38         39         40         41         42         43
 occ. :        0.000      0.000      0.000      0.000      0.000      0.000      0.000      0.000
 eps  :         1.294      1.776      2.099      2.285      2.687      4.453      5.403      5.899


   #   Z            q   n(s)   n(p)   n(d)      C6AA      α(0)
   1  16 S      1.502  1.588  1.898  1.011    93.400    16.266
   2   8 O     -0.758  1.777  4.981  0.000    30.345     7.386
   3   8 O     -0.765  1.777  4.988  0.000    30.532     7.408
   4   8 O     -0.737  1.768  4.969  0.000    29.735     7.311
   5   8 O     -0.531  1.713  4.818  0.000    23.575     6.555
   6   1 H      0.353  0.647  0.000  0.000     0.574     1.185
   7   8 O     -0.576  1.735  4.840  0.000    24.617     6.696
   8   1 H      0.296  0.704  0.000  0.000     0.732     1.344
   9   1 H      0.289  0.711  0.000  0.000     0.754     1.364
  10   8 O     -0.596  1.721  4.875  0.000    25.089     6.760
  11   1 H      0.308  0.692  0.000  0.000     0.696     1.310
  12   1 H      0.331  0.669  0.000  0.000     0.634     1.251
  13   8 O     -0.567  1.742  4.825  0.000    24.410     6.668
  14   1 H      0.276  0.724  0.000  0.000     0.796     1.402
  15   1 H      0.291  0.709  0.000  0.000     0.747     1.358
  16   8 O     -0.387  1.630  4.757  0.000    20.545     6.122
  17   1 H      0.429  0.571  0.000  0.000     0.434     1.035
  18   1 H      0.419  0.581  0.000  0.000     0.451     1.056
  19   1 H      0.421  0.579  0.000  0.000     0.448     1.052

 Mol. C6AA /au·bohr⁶  :       3367.241242
 Mol. C8AA /au·bohr⁸  :      76535.743682
 Mol. α(0) /au        :         83.529103

 
 Wiberg/Mayer (AO) data. WBOs > 0.1 written file <wbo>
 largest (>0.05) Wiberg bond orders for each atom
           total WBO             WBO to atom ...
     1  S   5.008    O    2 1.340    O    4 1.329    O    3 1.319    O    5 1.000
     2  O   1.656    S    1 1.340    O    3 0.119    O    4 0.116    O    5 0.076
     3  O   1.657    S    1 1.319    O    2 0.119    O    4 0.114    O    5 0.074
     4  O   1.704    S    1 1.329    O    2 0.116    O    3 0.114    H   19 0.057    O    5 0.052
     5  O   2.055    S    1 1.000    H    6 0.851    O    2 0.076    O    3 0.074    O    4 0.052
     6  H   0.876    O    5 0.851
     7  O   1.845    H    9 0.916    H    8 0.910
     8  H   0.912    O    7 0.910
     9  H   0.916    O    7 0.916
    10  O   1.882    H   11 0.889    H   12 0.867    H   17 0.085
    11  H   0.905    O   10 0.889
    12  H   0.890    O   10 0.867
    13  O   1.840    H   14 0.923    H   15 0.915
    14  H   0.924    O   13 0.923
    15  H   0.915    O   13 0.915
    16  O   2.356    H   18 0.805    H   19 0.760    H   17 0.723
    17  H   0.816    O   16 0.723    O   10 0.085
    18  H   0.824    O   16 0.805
    19  H   0.823    O   16 0.760    O    4 0.057
 MOs/occ written to file <molden.input>
 
molecular dipole:
                 x           y           z       tot (Debye)
 q only:        0.189       2.518       1.525
   full:       -0.175       2.525       0.399       6.513
molecular quadrupole (traceless):
                xx          xy          yy          xz          yz          zz
 q only:       -4.999      -3.921      -5.701      -8.082       0.893      10.700
  q+dip:       -6.912      -3.621      -3.491     -10.178       4.776      10.403
   full:       -7.330      -3.323      -3.145      -9.820       4.900      10.474

SCC energy    :     -41.0466978
rep           :       0.2163671
ES            :       0.2637720
AES           :      -0.0421674
AXC           :      -0.0109148
disp          :      -0.0102999
XB            :       0.0000000
fix           :       0.0000000
total E       :     -40.8302656
atomizationE  :       3.6244528     2274.38
(atE without considering molecular charge,
 total energy contains solvation terms)
H-L gap (eV)  :          7.9864
           ------------------------------------------------- 
          |                 ===============                 |
          |                   A N C O P T                   |
          |                 ===============                 |
          |          Approximate Normal Coordinate          |
          |           Rational Function Optimizer           |
           ------------------------------------------------- 
dumping coords to <xtbopt.coord> and <xtbopt.log>
 optlevel               2
 Maxcycle             380
 Maxmicro              25
 Econv         1.000000000000000E-007
 Gconv         2.000000000000000E-004
 Maxdispl       1.00000000000000     
 Hlow          5.000000000000000E-003
 S6             20.0000000000000     
 Nvar               51

generating ANC from model Hessian ...
 Shifting diagonal of input Hessian by   5.349112247948810E-003
 Lowest  eigenvalues of input Hessian
    0.005000    0.005223    0.005301   -0.000000   -0.000000    0.000000
    0.000000    0.000000    0.000000    0.005350    0.005399    0.005711
    0.005789    0.005836    0.005961    0.006119    0.006260    0.006495
 Highest eigenvalues
    1.450910    1.542417    1.556906    3.129535    3.201240    3.305806
 
cpu  time for ANC gen    0.00 s
wall time for ANC gen    0.00 s
................................................................................
.............................. CYCLE    1 ......................................
................................................................................
   1    -41.0466978 -0.410467E+02  0.918E-05    7.99       0.0  T
   2    -41.0466978 -0.116742E-10  0.712E-05    7.99     322.1  T
   3    -41.0466978 -0.137845E-10  0.309E-05    7.99     742.8  T
speedup  1.00
cpu  time for SCC    0.00 s
wall time for SCC    0.00 s
speedup  1.01
cpu  time for grad    0.01 s
wall time for grad    0.01 s
 E :    -40.83026560  G :  0.155248    pred/act E change:  0.000D+00  0.334D-07
Maxdispl :   0.4258   ||displ|| :   0.5871   Lambda : -0.247D-01
Largest |displ|/coords:  0.4258 (  22)  0.2140 (  18)  0.1760 (   1)
................................................................................
.............................. CYCLE    2 ......................................
................................................................................
   1    -41.0643450 -0.410643E+02  0.423E-01    8.41       0.0  T
   2    -41.0644943 -0.149237E-03  0.319E-01    8.49       1.0  T
   3    -41.0645618 -0.674896E-04  0.114E-01    8.64       1.0  T
   4    -41.0645764 -0.146921E-04  0.228E-02    8.65       1.0  T
   5    -41.0645773 -0.844701E-06  0.734E-03    8.64       3.1  T
   6    -41.0645773 -0.578586E-07  0.454E-03    8.64       5.1  T
   7    -41.0645774 -0.566624E-07  0.178E-03    8.64      12.9  T
speedup  0.91
cpu  time for SCC    0.00 s
wall time for SCC    0.00 s
speedup  1.00
cpu  time for grad    0.01 s
wall time for grad    0.01 s
 E :    -40.85298858  G :  0.108392    pred/act E change:  0.000D+00 -0.227D-01
Maxdispl :   0.5110   ||displ|| :   0.6598   Lambda : -0.224D-01
Largest |displ|/coords:  0.5110 (  22)  0.2127 (  18)  0.2058 (  21)
................................................................................
.............................. CYCLE    3 ......................................
................................................................................
   1    -41.0752489 -0.410752E+02  0.529E-01    8.84       0.0  T
   2    -41.0757630 -0.514102E-03  0.395E-01    8.89       1.0  T
   3    -41.0760013 -0.238322E-03  0.160E-01    8.98       1.0  T
   4    -41.0760302 -0.288973E-04  0.455E-02    8.99       1.0  T
   5    -41.0760324 -0.215380E-05  0.138E-02    8.99       1.7  T
   6    -41.0760326 -0.241126E-06  0.726E-03    8.99       3.2  T
   7    -41.0760327 -0.127530E-06  0.288E-03    8.99       8.0  T
   8    -41.0760328 -0.323451E-07  0.140E-03    8.99      16.4  T
speedup  1.04
cpu  time for SCC    0.01 s
wall time for SCC    0.00 s
speedup  1.05
cpu  time for grad    0.01 s
wall time for grad    0.01 s
 E :    -40.87031788  G :  0.071057    pred/act E change: -0.166D-01 -0.173D-01
Maxdispl :   0.2659   ||displ|| :   0.5312   Lambda : -0.841D-02
Largest |displ|/coords:  0.2659 (   1)  0.1819 (  22)  0.1687 (  14)
................................................................................
.............................. CYCLE    4 ......................................
................................................................................
   1    -41.0803988 -0.410804E+02  0.342E-01    9.04       0.0  T
   2    -41.0806513 -0.252506E-03  0.253E-01    9.06       1.0  T
   3    -41.0807672 -0.115886E-03  0.110E-01    9.11       1.0  T
   4    -41.0807776 -0.103278E-04  0.266E-02    9.11       1.0  T
   5    -41.0807785 -0.985871E-06  0.791E-03    9.11       2.9  T
   6    -41.0807786 -0.815088E-07  0.455E-03    9.11       5.0  T
   7    -41.0807787 -0.505222E-07  0.192E-03    9.11      12.0  T
speedup  0.91
cpu  time for SCC    0.00 s
wall time for SCC    0.00 s
speedup  0.99
cpu  time for grad    0.01 s
wall time for grad    0.01 s
 E :    -40.87588473  G :  0.046982    pred/act E change: -0.161D-01 -0.557D-02
Maxdispl :   0.2986   ||displ|| :   0.5617   Lambda : -0.647D-02
Largest |displ|/coords:  0.2986 (   1)  0.2583 (  14)  0.1680 (  10)
................................................................................
.............................. CYCLE    5 ......................................
................................................................................
   1    -41.0870014 -0.410870E+02  0.356E-01    9.12       0.0  T
   2    -41.0870963 -0.948370E-04  0.272E-01    9.16       1.0  T
   3    -41.0871270 -0.307760E-04  0.787E-02    9.22       1.0  T
   4    -41.0871391 -0.121205E-04  0.263E-02    9.21       1.0  T
   5    -41.0871397 -0.588035E-06  0.511E-03    9.20       4.5  T
   6    -41.0871398 -0.275143E-07  0.233E-03    9.20       9.8  T
speedup  0.79
cpu  time for SCC    0.00 s
wall time for SCC    0.00 s
speedup  0.94
cpu  time for grad    0.01 s
wall time for grad    0.01 s
 E :    -40.87949227  G :  0.024382    pred/act E change: -0.539D-02 -0.361D-02
Maxdispl :   0.2310   ||displ|| :   0.5772   Lambda : -0.442D-02
Largest |displ|/coords:  0.2310 (  20)  0.2137 (   1)  0.2106 (  19)
................................................................................
.............................. CYCLE    6 ......................................
................................................................................
   1    -41.0877068 -0.410877E+02  0.494E-01    8.89       0.0  T
   2    -41.0878720 -0.165195E-03  0.362E-01    8.93       1.0  T
   3    -41.0879359 -0.639090E-04  0.104E-01    8.99       1.0  T
   4    -41.0879511 -0.151642E-04  0.298E-02    8.98       1.0  T
   5    -41.0879525 -0.142075E-05  0.693E-03    8.97       3.3  T
   6    -41.0879525 -0.370247E-07  0.330E-03    8.97       7.0  T
   7    -41.0879525 -0.194434E-07  0.135E-03    8.97      17.0  T
speedup  0.91
cpu  time for SCC    0.00 s
wall time for SCC    0.00 s
speedup  0.99
cpu  time for grad    0.01 s
wall time for grad    0.01 s
 E :    -40.88103369  G :  0.034547    pred/act E change: -0.426D-02 -0.154D-02
Maxdispl :   0.1629   ||displ|| :   0.3827   Lambda : -0.270D-02
Largest |displ|/coords:  0.1629 (   4)  0.1344 (   8)  0.1202 (  15)
................................................................................
.............................. CYCLE    7 ......................................
................................................................................
   1    -41.0859635 -0.410860E+02  0.314E-01    8.97       0.0  T
   2    -41.0860169 -0.533962E-04  0.236E-01    8.96       1.0  T
   3    -41.0860407 -0.238150E-04  0.566E-02    8.95       1.0  T
   4    -41.0860481 -0.740684E-05  0.172E-02    8.96       1.3  T
   5    -41.0860487 -0.548273E-06  0.426E-03    8.96       5.4  T
   6    -41.0860487 -0.159004E-07  0.260E-03    8.96       8.8  T
speedup  0.79
cpu  time for SCC    0.00 s
wall time for SCC    0.00 s
speedup  0.93
cpu  time for grad    0.01 s
wall time for grad    0.01 s
 E :    -40.88293295  G :  0.029391    pred/act E change: -0.295D-02 -0.190D-02
Maxdispl :   0.2417   ||displ|| :   0.5109   Lambda : -0.269D-02
Largest |displ|/coords:  0.2417 (   2)  0.2084 (   8)  0.1735 (   4)
................................................................................
.............................. CYCLE    8 ......................................
................................................................................
   1    -41.0854359 -0.410854E+02  0.450E-01    8.96       0.0  T
   2    -41.0855476 -0.111786E-03  0.340E-01    8.94       1.0  T
   3    -41.0855991 -0.514121E-04  0.786E-02    8.93       1.0  T
   4    -41.0856145 -0.153907E-04  0.244E-02    8.94       1.0  T
   5    -41.0856157 -0.129542E-05  0.628E-03    8.94       3.7  T
   6    -41.0856158 -0.334503E-07  0.377E-03    8.94       6.1  T
   7    -41.0856158 -0.198721E-07  0.110E-03    8.94      20.9  T
speedup  0.91
cpu  time for SCC    0.00 s
wall time for SCC    0.00 s
speedup  0.98
cpu  time for grad    0.01 s
wall time for grad    0.01 s
 E :    -40.88319041  G :  0.048555    pred/act E change: -0.155D-02 -0.257D-03
Maxdispl :   0.1823   ||displ|| :   0.3857   Lambda : -0.384D-02
Largest |displ|/coords:  0.1823 (   6)  0.1592 (   2)  0.1400 (  11)
................................................................................
.............................. CYCLE    9 ......................................
................................................................................
   1    -41.0858089 -0.410858E+02  0.388E-01    8.96       0.0  T
   2    -41.0858546 -0.457007E-04  0.293E-01    8.96       1.0  T
   3    -41.0858886 -0.339822E-04  0.473E-02    8.95       1.0  T
   4    -41.0858948 -0.618144E-05  0.135E-02    8.96       1.7  T
   5    -41.0858951 -0.331355E-06  0.523E-03    8.96       4.4  T
   6    -41.0858952 -0.125153E-07  0.282E-03    8.96       8.1  T
speedup  0.83
cpu  time for SCC    0.00 s
wall time for SCC    0.00 s
speedup  0.95
cpu  time for grad    0.01 s
wall time for grad    0.01 s
 E :    -40.88546737  G :  0.034151    pred/act E change: -0.169D-02 -0.228D-02
Maxdispl :   0.3407   ||displ|| :   0.5661   Lambda : -0.471D-02
Largest |displ|/coords:  0.3407 (  16)  0.2242 (  10)  0.2012 (   2)
................................................................................
.............................. CYCLE   10 ......................................
................................................................................
   1    -41.0943012 -0.410943E+02  0.833E-01    9.04       0.0  T
   2    -41.0945847 -0.283478E-03  0.628E-01    9.06       1.0  T
   3    -41.0947838 -0.199085E-03  0.115E-01    9.07       1.0  T
   4    -41.0948215 -0.376769E-04  0.263E-02    9.07       1.0  T
   5    -41.0948225 -0.104706E-05  0.116E-02    9.07       2.0  T
   6    -41.0948226 -0.807853E-07  0.577E-03    9.07       4.0  T
   7    -41.0948227 -0.475460E-07  0.139E-03    9.07      16.5  T
speedup  0.93
cpu  time for SCC    0.00 s
wall time for SCC    0.00 s
speedup  0.99
cpu  time for grad    0.01 s
wall time for grad    0.01 s
 E :    -40.87866096  G :  0.120892    pred/act E change: -0.221D-02  0.681D-02
Maxdispl :   0.2455   ||displ|| :   0.5916   Lambda : -0.322D-01
Largest |displ|/coords:  0.2455 (  16)  0.2400 (  10)  0.2216 (  13)
................................................................................
.............................. CYCLE   11 ......................................
................................................................................
   1    -41.0837210 -0.410837E+02  0.101E+00    9.00       0.0  T
   2    -41.0843889 -0.667869E-03  0.756E-01    9.00       1.0  T
   3    -41.0848103 -0.421416E-03  0.174E-01    9.01       1.0  T
   4    -41.0848924 -0.821044E-04  0.349E-02    9.01       1.0  T
   5    -41.0848938 -0.144116E-05  0.181E-02    9.01       1.3  T
   6    -41.0848940 -0.145132E-06  0.778E-03    9.01       2.9  T
   7    -41.0848941 -0.750460E-07  0.184E-03    9.01      12.5  T
   8    -41.0848941 -0.673938E-08  0.640E-04    9.01      35.8  T
speedup  0.80
cpu  time for SCC    0.00 s
wall time for SCC    0.00 s
speedup  0.92
cpu  time for grad    0.01 s
wall time for grad    0.01 s
 E :    -40.88277894  G :  0.088843    pred/act E change: -0.311D-02 -0.412D-02
Maxdispl :   0.2380   ||displ|| :   0.4385   Lambda : -0.153D-01
Largest |displ|/coords:  0.2380 (  13)  0.1938 (  10)  0.1504 (   6)
................................................................................
.............................. CYCLE   12 ......................................
................................................................................
   1    -41.1076567 -0.411077E+02  0.656E-01    9.13       0.0  T
   2    -41.1079505 -0.293793E-03  0.490E-01    9.13       1.0  T
   3    -41.1081385 -0.188045E-03  0.112E-01    9.12       1.0  T
   4    -41.1081712 -0.326399E-04  0.254E-02    9.13       1.0  T
   5    -41.1081720 -0.829043E-06  0.116E-02    9.13       2.0  T
   6    -41.1081721 -0.651253E-07  0.525E-03    9.13       4.4  T
   7    -41.1081721 -0.371278E-07  0.134E-03    9.13      17.1  T
speedup  0.91
cpu  time for SCC    0.00 s
wall time for SCC    0.00 s
speedup  0.98
cpu  time for grad    0.01 s
wall time for grad    0.01 s
 E :    -40.88424900  G :  0.072471    pred/act E change: -0.217D-01 -0.147D-02
Maxdispl :   0.1904   ||displ|| :   0.4682   Lambda : -0.128D-01
Largest |displ|/coords:  0.1904 (  14)  0.1462 (   8)  0.1394 (  13)
................................................................................
.............................. CYCLE   13 ......................................
................................................................................
   1    -41.0711477 -0.410711E+02  0.708E-01    9.06       0.0  T
   2    -41.0714078 -0.260103E-03  0.531E-01    9.06       1.0  T
   3    -41.0715719 -0.164164E-03  0.109E-01    9.07       1.0  T
   4    -41.0716043 -0.323195E-04  0.288E-02    9.07       1.0  T
   5    -41.0716057 -0.142188E-05  0.111E-02    9.07       2.1  T
   6    -41.0716058 -0.128424E-06  0.614E-03    9.07       3.7  T
   7    -41.0716059 -0.446353E-07  0.153E-03    9.07      15.0  T
   8    -41.0716059 -0.483864E-08  0.595E-04    9.07      38.6  T
speedup  1.02
cpu  time for SCC    0.00 s
wall time for SCC    0.00 s
speedup  0.93
cpu  time for grad    0.01 s
wall time for grad    0.01 s
 E :    -40.88228474  G :  0.094414    pred/act E change: -0.911D-02  0.196D-02
Maxdispl :   0.2073   ||displ|| :   0.5063   Lambda : -0.236D-01
Largest |displ|/coords:  0.2073 (   6)  0.1768 (  11)  0.1626 (   8)
................................................................................
.............................. CYCLE   14 ......................................
................................................................................
   1    -41.1205011 -0.411205E+02  0.708E-01    9.13       0.0  T
   2    -41.1209292 -0.428120E-03  0.524E-01    9.13       1.0  T
   3    -41.1212286 -0.299438E-03  0.137E-01    9.12       1.0  T
   4    -41.1212645 -0.358622E-04  0.420E-02    9.13       1.0  T
   5    -41.1212679 -0.337725E-05  0.156E-02    9.13       1.5  T
   6    -41.1212679 -0.699609E-07  0.741E-03    9.13       3.1  T
   7    -41.1212680 -0.941920E-07  0.143E-03    9.13      16.1  T
   8    -41.1212680 -0.423277E-08  0.482E-04    9.13      47.6  T
speedup  1.00
cpu  time for SCC    0.00 s
wall time for SCC    0.01 s
speedup  1.00
cpu  time for grad    0.01 s
wall time for grad    0.01 s
 E :    -40.88100394  G :  0.121379    pred/act E change: -0.780D-02  0.128D-02
Maxdispl :   0.2172   ||displ|| :   0.4383   Lambda : -0.264D-01
Largest |displ|/coords:  0.2172 (   6)  0.1876 (  11)  0.1249 (  23)
................................................................................
.............................. CYCLE   15 ......................................
................................................................................
   1    -41.0795275 -0.410795E+02  0.597E-01    9.08       0.0  T
   2    -41.0799063 -0.378816E-03  0.436E-01    9.11       1.0  T
   3    -41.0801257 -0.219453E-03  0.128E-01    9.11       1.0  T
   4    -41.0801572 -0.314415E-04  0.322E-02    9.10       1.0  T
   5    -41.0801592 -0.199500E-05  0.131E-02    9.11       1.8  T
   6    -41.0801594 -0.176543E-06  0.739E-03    9.11       3.1  T
   7    -41.0801594 -0.416712E-07  0.118E-03    9.11      19.4  T
   8    -41.0801594 -0.271783E-08  0.300E-04    9.11      76.4  T
speedup  1.02
cpu  time for SCC    0.00 s
wall time for SCC    0.00 s
speedup  0.93
cpu  time for grad    0.01 s
wall time for grad    0.01 s
 E :    -40.88488675  G :  0.076605    pred/act E change: -0.148D-01 -0.388D-02
Maxdispl :   0.1482   ||displ|| :   0.3583   Lambda : -0.119D-01
Largest |displ|/coords:  0.1482 (   6)  0.1255 (   9)  0.1252 (  11)
................................................................................
.............................. CYCLE   16 ......................................
................................................................................
   1    -41.1039700 -0.411040E+02  0.446E-01    9.11       0.0  T
   2    -41.1041311 -0.161097E-03  0.330E-01    9.11       1.0  T
   3    -41.1042363 -0.105184E-03  0.852E-02    9.11       1.0  T
   4    -41.1042514 -0.151157E-04  0.252E-02    9.12       1.0  T
   5    -41.1042527 -0.131382E-05  0.907E-03    9.12       2.5  T
   6    -41.1042528 -0.347412E-07  0.457E-03    9.12       5.0  T
   7    -41.1042528 -0.258143E-07  0.952E-04    9.12      24.1  T
speedup  0.93
cpu  time for SCC    0.00 s
wall time for SCC    0.00 s
speedup  0.98
cpu  time for grad    0.01 s
wall time for grad    0.01 s
 E :    -40.88824711  G :  0.043448    pred/act E change: -0.157D-01 -0.336D-02
Maxdispl :   0.1804   ||displ|| :   0.2493   Lambda : -0.289D-02
Largest |displ|/coords:  0.1804 (   2)  0.0766 (   7)  0.0743 (   6)
................................................................................
.............................. CYCLE   17 ......................................
................................................................................
   1    -41.1036351 -0.411036E+02  0.183E-01    9.10       0.0  T
   2    -41.1036643 -0.291772E-04  0.134E-01    9.10       1.0  T
   3    -41.1036797 -0.154524E-04  0.345E-02    9.10       1.0  T
   4    -41.1036824 -0.272660E-05  0.651E-03    9.10       3.5  T
   5    -41.1036825 -0.811968E-07  0.312E-03    9.10       7.3  T
   6    -41.1036825 -0.556096E-08  0.173E-03    9.10      13.3  T
speedup  1.05
cpu  time for SCC    0.00 s
wall time for SCC    0.00 s
speedup  1.05
cpu  time for grad    0.01 s
wall time for grad    0.01 s
 E :    -40.89001085  G :  0.013113    pred/act E change: -0.671D-02 -0.176D-02
Maxdispl :   0.3437   ||displ|| :   0.4438   Lambda : -0.200D-02
Largest |displ|/coords:  0.3437 (   2)  0.1637 (   4)  0.0896 (  11)
................................................................................
.............................. CYCLE   18 ......................................
................................................................................
   1    -41.0953157 -0.410953E+02  0.333E-01    9.06       0.0  T
   2    -41.0953522 -0.364724E-04  0.250E-01    9.05       1.0  T
   3    -41.0953742 -0.219878E-04  0.417E-02    9.02       1.0  T
   4    -41.0953796 -0.545105E-05  0.106E-02    9.02       2.2  T
   5    -41.0953798 -0.197379E-06  0.439E-03    9.02       5.2  T
   6    -41.0953799 -0.140795E-07  0.258E-03    9.02       8.9  T
   7    -41.0953799 -0.844248E-08  0.697E-04    9.02      32.9  T
speedup  1.16
cpu  time for SCC    0.00 s
wall time for SCC    0.00 s
speedup  0.99
cpu  time for grad    0.01 s
wall time for grad    0.01 s
 E :    -40.89095120  G :  0.039417    pred/act E change: -0.153D-02 -0.940D-03
Maxdispl :   0.3174   ||displ|| :   0.3798   Lambda : -0.187D-02
Largest |displ|/coords:  0.3174 (   2)  0.0882 (   4)  0.0788 (   1)
................................................................................
.............................. CYCLE   19 ......................................
................................................................................
   1    -41.1030857 -0.411031E+02  0.183E-01    8.97       0.0  T
   2    -41.1031203 -0.345499E-04  0.133E-01    8.95       1.0  T
   3    -41.1031379 -0.176039E-04  0.361E-02    8.91       1.0  T
   4    -41.1031409 -0.307837E-05  0.765E-03    8.91       3.0  T
   5    -41.1031411 -0.114507E-06  0.358E-03    8.91       6.4  T
   6    -41.1031411 -0.127508E-07  0.211E-03    8.91      10.9  T
speedup  1.11
cpu  time for SCC    0.00 s
wall time for SCC    0.00 s
speedup  1.06
cpu  time for grad    0.01 s
wall time for grad    0.01 s
 E :    -40.89239626  G :  0.028046    pred/act E change: -0.119D-02 -0.145D-02
Maxdispl :   0.3943   ||displ|| :   0.5022   Lambda : -0.251D-02
Largest |displ|/coords:  0.3943 (   2)  0.1564 (  16)  0.1425 (   4)
................................................................................
.............................. CYCLE   20 ......................................
................................................................................
   1    -41.1133040 -0.411133E+02  0.325E-01    8.86       0.0  T
   2    -41.1133415 -0.375785E-04  0.241E-01    8.82       1.0  T
   3    -41.1133656 -0.240179E-04  0.447E-02    8.74       1.0  T
   4    -41.1133700 -0.440544E-05  0.958E-03    8.76       2.4  T
   5    -41.1133701 -0.148209E-06  0.463E-03    8.76       5.0  T
   6    -41.1133701 -0.195364E-07  0.256E-03    8.76       9.0  T
speedup  1.05
cpu  time for SCC    0.00 s
wall time for SCC    0.00 s
speedup  1.03
cpu  time for grad    0.01 s
wall time for grad    0.01 s
 E :    -40.89407567  G :  0.016486    pred/act E change: -0.107D-02 -0.168D-02
Maxdispl :   0.4448   ||displ|| :   0.5819   Lambda : -0.176D-02
Largest |displ|/coords:  0.4448 (   2)  0.1795 (   4)  0.1169 (  11)
................................................................................
.............................. CYCLE   21 ......................................
................................................................................
   1    -41.1119601 -0.411120E+02  0.390E-01    8.61       0.0  T
   2    -41.1120086 -0.485264E-04  0.291E-01    8.59       1.0  T
   3    -41.1120393 -0.306501E-04  0.516E-02    8.54       1.0  T
   4    -41.1120458 -0.653557E-05  0.130E-02    8.54       1.8  T
   5    -41.1120460 -0.260150E-06  0.535E-03    8.54       4.3  T
   6    -41.1120461 -0.241602E-07  0.322E-03    8.54       7.1  T
   7    -41.1120461 -0.132468E-07  0.856E-04    8.54      26.8  T
   8    -41.1120461 -0.108122E-08  0.201E-04    8.54     113.9  T
speedup  1.02
cpu  time for SCC    0.00 s
wall time for SCC    0.00 s
speedup  1.02
cpu  time for grad    0.01 s
wall time for grad    0.01 s
 E :    -40.89492349  G :  0.031140    pred/act E change: -0.157D-02 -0.848D-03
Maxdispl :   0.2335   ||displ|| :   0.3428   Lambda : -0.124D-02
Largest |displ|/coords:  0.2335 (   2)  0.1208 (   4)  0.1178 (   1)
................................................................................
.............................. CYCLE   22 ......................................
................................................................................
   1    -41.1113930 -0.411114E+02  0.212E-01    8.52       0.0  T
   2    -41.1114032 -0.102479E-04  0.155E-01    8.53       1.0  T
   3    -41.1114096 -0.632075E-05  0.267E-02    8.54       1.0  T
   4    -41.1114106 -0.105622E-05  0.467E-03    8.54       4.9  T
   5    -41.1114106 -0.267011E-07  0.250E-03    8.54       9.2  T
speedup  1.29
cpu  time for SCC    0.00 s
wall time for SCC    0.00 s
speedup  1.00
cpu  time for grad    0.01 s
wall time for grad    0.01 s
 E :    -40.89563657  G :  0.023565    pred/act E change: -0.118D-02 -0.713D-03
Maxdispl :   0.1511   ||displ|| :   0.3219   Lambda : -0.143D-02
Largest |displ|/coords:  0.1511 (   2)  0.1426 (   4)  0.1418 (   5)
................................................................................
.............................. CYCLE   23 ......................................
................................................................................
   1    -41.1184384 -0.411184E+02  0.217E-01    8.62       0.0  T
   2    -41.1184519 -0.135691E-04  0.161E-01    8.62       1.0  T
   3    -41.1184621 -0.101729E-04  0.309E-02    8.61       1.0  T
   4    -41.1184635 -0.139786E-05  0.817E-03    8.61       2.8  T
   5    -41.1184636 -0.756974E-07  0.285E-03    8.61       8.0  T
   6    -41.1184636 -0.628224E-08  0.164E-03    8.61      14.0  T
speedup  1.05
cpu  time for SCC    0.00 s
wall time for SCC    0.00 s
speedup  1.03
cpu  time for grad    0.01 s
wall time for grad    0.01 s
 E :    -40.89648776  G :  0.021797    pred/act E change: -0.695D-03 -0.851D-03
Maxdispl :   0.2912   ||displ|| :   0.5449   Lambda : -0.196D-02
Largest |displ|/coords:  0.2912 (   2)  0.2164 (   5)  0.2141 (   4)
................................................................................
.............................. CYCLE   24 ......................................
................................................................................
   1    -41.1197416 -0.411197E+02  0.437E-01    8.57       0.0  T
   2    -41.1197652 -0.235842E-04  0.327E-01    8.59       1.0  T
   3    -41.1197872 -0.219701E-04  0.437E-02    8.62       1.0  T
   4    -41.1197895 -0.229848E-05  0.101E-02    8.61       2.3  T
   5    -41.1197896 -0.927175E-07  0.415E-03    8.60       5.5  T
   6    -41.1197896 -0.104289E-07  0.203E-03    8.60      11.3  T
speedup  1.08
cpu  time for SCC    0.00 s
wall time for SCC    0.00 s
speedup  1.02
cpu  time for grad    0.01 s
wall time for grad    0.01 s
 E :    -40.89803529  G :  0.022970    pred/act E change: -0.792D-03 -0.155D-02
Maxdispl :   0.3339   ||displ|| :   0.7016   Lambda : -0.269D-02
Largest |displ|/coords:  0.3339 (   5)  0.2394 (   2)  0.2384 (   3)
................................................................................
.............................. CYCLE   25 ......................................
................................................................................
   1    -41.1092982 -0.411093E+02  0.521E-01    8.38       0.0  T
   2    -41.1093587 -0.604842E-04  0.390E-01    8.41       1.0  T
   3    -41.1094051 -0.464038E-04  0.593E-02    8.47       1.0  T
   4    -41.1094130 -0.787375E-05  0.167E-02    8.45       1.4  T
   5    -41.1094133 -0.290850E-06  0.645E-03    8.44       3.6  T
   6    -41.1094133 -0.288993E-07  0.345E-03    8.44       6.6  T
   7    -41.1094133 -0.200066E-07  0.908E-04    8.44      25.3  T
speedup  0.91
cpu  time for SCC    0.00 s
wall time for SCC    0.00 s
speedup  0.96
cpu  time for grad    0.01 s
wall time for grad    0.01 s
 E :    -40.89938997  G :  0.043224    pred/act E change: -0.127D-02 -0.135D-02
Maxdispl :   0.2324   ||displ|| :   0.4393   Lambda : -0.317D-02
Largest |displ|/coords:  0.2324 (   1)  0.2166 (   5)  0.1783 (   3)

generating ANC from model Hessian ...
 Shifting diagonal of input Hessian by   5.293853874929200E-003
 Lowest  eigenvalues of input Hessian
    0.005000    0.005273   -0.000000   -0.000000    0.000000    0.000000
    0.000000    0.000000    0.005504    0.005620    0.005789    0.006194
    0.006338    0.007576    0.007904    0.008661    0.009990    0.010768
 Highest eigenvalues
    1.406122    1.419169    1.454403    2.473742    3.354106    3.628585
 
cpu  time for ANC gen    0.00 s
wall time for ANC gen    0.01 s
................................................................................
.............................. CYCLE   26 ......................................
................................................................................
   1    -41.1104567 -0.411105E+02  0.230E-01    8.30       0.0  T
   2    -41.1104852 -0.284483E-04  0.168E-01    8.32       1.0  T
   3    -41.1105023 -0.170618E-04  0.398E-02    8.35       1.0  T
   4    -41.1105050 -0.276214E-05  0.129E-02    8.35       1.8  T
   5    -41.1105052 -0.166391E-06  0.378E-03    8.35       6.1  T
   6    -41.1105052 -0.143742E-07  0.218E-03    8.35      10.5  T
   7    -41.1105052 -0.743688E-08  0.703E-04    8.35      32.6  T
   8    -41.1105052 -0.101202E-08  0.245E-04    8.35      93.5  T
speedup  1.00
cpu  time for SCC    0.01 s
wall time for SCC    0.01 s
speedup  0.97
cpu  time for grad    0.01 s
wall time for grad    0.01 s
 E :    -40.90062442  G :  0.042297    pred/act E change:  0.000D+00 -0.123D-02
Maxdispl :   0.2018   ||displ|| :   0.4238   Lambda : -0.432D-02
Largest |displ|/coords:  0.2018 (   6)  0.1598 (   5)  0.1496 (   4)
................................................................................
.............................. CYCLE   27 ......................................
................................................................................
   1    -41.1128319 -0.411128E+02  0.488E-01    8.46       0.0  T
   2    -41.1128725 -0.406198E-04  0.370E-01    8.46       1.0  T
   3    -41.1129025 -0.299839E-04  0.434E-02    8.46       1.0  T
   4    -41.1129085 -0.605756E-05  0.130E-02    8.46       1.8  T
   5    -41.1129088 -0.228449E-06  0.505E-03    8.46       4.5  T
   6    -41.1129088 -0.709862E-08  0.270E-03    8.46       8.5  T
speedup  1.08
cpu  time for SCC    0.00 s
wall time for SCC    0.00 s
speedup  1.03
cpu  time for grad    0.01 s
wall time for grad    0.01 s
 E :    -40.90361096  G :  0.029469    pred/act E change:  0.000D+00 -0.299D-02
Maxdispl :   0.2572   ||displ|| :   0.4771   Lambda : -0.295D-02
Largest |displ|/coords:  0.2572 (   4)  0.1979 (   6)  0.1605 (   5)
................................................................................
.............................. CYCLE   28 ......................................
................................................................................
   1    -41.1180488 -0.411180E+02  0.291E-01    8.57       0.0  T
   2    -41.1180779 -0.291482E-04  0.216E-01    8.57       1.0  T
   3    -41.1180922 -0.143036E-04  0.404E-02    8.57       1.0  T
   4    -41.1180965 -0.430454E-05  0.914E-03    8.58       2.5  T
   5    -41.1180967 -0.118965E-06  0.357E-03    8.58       6.4  T
   6    -41.1180967 -0.811139E-08  0.203E-03    8.58      11.3  T
speedup  0.79
cpu  time for SCC    0.00 s
wall time for SCC    0.00 s
speedup  0.91
cpu  time for grad    0.01 s
wall time for grad    0.01 s
 E :    -40.90587808  G :  0.014415    pred/act E change: -0.255D-02 -0.227D-02
Maxdispl :   0.3587   ||displ|| :   0.6833   Lambda : -0.276D-02
Largest |displ|/coords:  0.3587 (   6)  0.2902 (   5)  0.2555 (   4)
................................................................................
.............................. CYCLE   29 ......................................
................................................................................
   1    -41.1145443 -0.411145E+02  0.527E-01    8.50       0.0  T
   2    -41.1145854 -0.410540E-04  0.395E-01    8.51       1.0  T
   3    -41.1146128 -0.274542E-04  0.518E-02    8.52       1.0  T
   4    -41.1146192 -0.636459E-05  0.139E-02    8.51       1.6  T
   5    -41.1146194 -0.171206E-06  0.579E-03    8.51       4.0  T
   6    -41.1146194 -0.152442E-07  0.281E-03    8.51       8.2  T
   7    -41.1146194 -0.134800E-07  0.842E-04    8.51      27.3  T
speedup  1.16
cpu  time for SCC    0.00 s
wall time for SCC    0.00 s
speedup  1.05
cpu  time for grad    0.01 s
wall time for grad    0.01 s
 E :    -40.90744557  G :  0.033461    pred/act E change: -0.181D-02 -0.157D-02
Maxdispl :   0.2448   ||displ|| :   0.4775   Lambda : -0.283D-02
Largest |displ|/coords:  0.2448 (   4)  0.1905 (   3)  0.1530 (   1)
................................................................................
.............................. CYCLE   30 ......................................
................................................................................
   1    -41.1217318 -0.411217E+02  0.399E-01    8.58       0.0  T
   2    -41.1217906 -0.587945E-04  0.299E-01    8.56       1.0  T
   3    -41.1218244 -0.338453E-04  0.560E-02    8.49       1.0  T
   4    -41.1218328 -0.837598E-05  0.129E-02    8.52       1.8  T
   5    -41.1218331 -0.296557E-06  0.463E-03    8.53       5.0  T
   6    -41.1218331 -0.613457E-08  0.265E-03    8.53       8.7  T
speedup  1.08
cpu  time for SCC    0.00 s
wall time for SCC    0.00 s
speedup  1.02
cpu  time for grad    0.01 s
wall time for grad    0.01 s
 E :    -40.90848436  G :  0.022553    pred/act E change: -0.202D-02 -0.104D-02
Maxdispl :   0.1804   ||displ|| :   0.3665   Lambda : -0.222D-02
Largest |displ|/coords:  0.1804 (   3)  0.1777 (   5)  0.1254 (   6)
................................................................................
.............................. CYCLE   31 ......................................
................................................................................
   1    -41.1267196 -0.411267E+02  0.421E-01    8.49       0.0  T
   2    -41.1267691 -0.494271E-04  0.318E-01    8.50       1.0  T
   3    -41.1268139 -0.448732E-04  0.500E-02    8.52       1.0  T
   4    -41.1268194 -0.546614E-05  0.191E-02    8.52       1.2  T
   5    -41.1268198 -0.389473E-06  0.588E-03    8.52       3.9  T
   6    -41.1268198 -0.207080E-07  0.311E-03    8.52       7.4  T
speedup  1.08
cpu  time for SCC    0.00 s
wall time for SCC    0.00 s
speedup  1.01
cpu  time for grad    0.01 s
wall time for grad    0.01 s
 E :    -40.90628811  G :  0.082206    pred/act E change: -0.174D-02  0.220D-02
Maxdispl :   0.1512   ||displ|| :   0.3825   Lambda : -0.158D-01
Largest |displ|/coords:  0.1512 (   6)  0.1461 (  16)  0.1165 (  20)
................................................................................
.............................. CYCLE   32 ......................................
................................................................................
   1    -41.1064448 -0.411064E+02  0.565E-01    8.28       0.0  T
   2    -41.1066438 -0.198988E-03  0.423E-01    8.31       1.0  T
   3    -41.1068028 -0.159005E-03  0.947E-02    8.30       1.0  T
   4    -41.1068252 -0.223948E-04  0.322E-02    8.26       1.0  T
   5    -41.1068264 -0.121036E-05  0.113E-02    8.25       2.0  T
   6    -41.1068266 -0.214881E-06  0.593E-03    8.25       3.9  T
   7    -41.1068267 -0.481524E-07  0.161E-03    8.26      14.3  T
speedup  0.91
cpu  time for SCC    0.00 s
wall time for SCC    0.00 s
speedup  0.95
cpu  time for grad    0.01 s
wall time for grad    0.01 s
 E :    -40.90343392  G :  0.077151    pred/act E change: -0.126D-02  0.285D-02
Maxdispl :   0.1269   ||displ|| :   0.3653   Lambda : -0.168D-01
Largest |displ|/coords:  0.1269 (  16)  0.1101 (  12)  0.1080 (  15)
................................................................................
.............................. CYCLE   33 ......................................
................................................................................
   1    -41.1250176 -0.411250E+02  0.569E-01    8.49       0.0  T
   2    -41.1251768 -0.159277E-03  0.429E-01    8.52       1.0  T
   3    -41.1253165 -0.139690E-03  0.827E-02    8.59       1.0  T
   4    -41.1253325 -0.160307E-04  0.312E-02    8.58       1.0  T
   5    -41.1253338 -0.126457E-05  0.106E-02    8.57       2.2  T
   6    -41.1253339 -0.545396E-07  0.494E-03    8.57       4.6  T
   7    -41.1253339 -0.450709E-07  0.124E-03    8.57      18.5  T
speedup  1.16
cpu  time for SCC    0.00 s
wall time for SCC    0.00 s
speedup  1.04
cpu  time for grad    0.01 s
wall time for grad    0.01 s
 E :    -40.90803592  G :  0.051868    pred/act E change: -0.907D-02 -0.460D-02
Maxdispl :   0.0814   ||displ|| :   0.2204   Lambda : -0.498D-02
Largest |displ|/coords:  0.0814 (  14)  0.0813 (  17)  0.0666 (  22)
................................................................................
.............................. CYCLE   34 ......................................
................................................................................
   1    -41.1168868 -0.411169E+02  0.331E-01    8.53       0.0  T
   2    -41.1169331 -0.462962E-04  0.251E-01    8.51       1.0  T
   3    -41.1169754 -0.422974E-04  0.435E-02    8.47       1.0  T
   4    -41.1169803 -0.491574E-05  0.145E-02    8.49       1.6  T
   5    -41.1169806 -0.244826E-06  0.535E-03    8.49       4.3  T
   6    -41.1169806 -0.273274E-07  0.271E-03    8.49       8.5  T
speedup  1.05
cpu  time for SCC    0.00 s
wall time for SCC    0.00 s
speedup  1.00
cpu  time for grad    0.01 s
wall time for grad    0.01 s
 E :    -40.90898273  G :  0.030284    pred/act E change: -0.950D-02 -0.947D-03
Maxdispl :   0.0771   ||displ|| :   0.1606   Lambda : -0.144D-02
Largest |displ|/coords:  0.0771 (   5)  0.0610 (  17)  0.0589 (   1)
................................................................................
.............................. CYCLE   35 ......................................
................................................................................
   1    -41.1201465 -0.411201E+02  0.189E-01    8.48       0.0  T
   2    -41.1201564 -0.987785E-05  0.144E-01    8.49       1.0  T
   3    -41.1201651 -0.872330E-05  0.199E-02    8.51       1.2  T
   4    -41.1201662 -0.115057E-05  0.547E-03    8.51       4.2  T
   5    -41.1201663 -0.271417E-07  0.233E-03    8.51       9.9  T
speedup  0.94
cpu  time for SCC    0.00 s
wall time for SCC    0.00 s
speedup  0.96
cpu  time for grad    0.01 s
wall time for grad    0.01 s
 E :    -40.90972565  G :  0.011093    pred/act E change: -0.261D-02 -0.743D-03
Maxdispl :   0.0884   ||displ|| :   0.2053   Lambda : -0.494D-03
Largest |displ|/coords:  0.0884 (   3)  0.0792 (   9)  0.0768 (   5)
................................................................................
.............................. CYCLE   36 ......................................
................................................................................
   1    -41.1196596 -0.411197E+02  0.165E-01    8.51       0.0  T
   2    -41.1196699 -0.102226E-04  0.124E-01    8.51       1.0  T
   3    -41.1196772 -0.737314E-05  0.238E-02    8.51       1.0  T
   4    -41.1196787 -0.142987E-05  0.737E-03    8.51       3.1  T
   5    -41.1196787 -0.773672E-07  0.263E-03    8.51       8.7  T
   6    -41.1196787 -0.463641E-08  0.145E-03    8.51      15.9  T
speedup  1.08
cpu  time for SCC    0.00 s
wall time for SCC    0.00 s
speedup  1.11
cpu  time for grad    0.01 s
wall time for grad    0.01 s
 E :    -40.90988648  G :  0.017059    pred/act E change: -0.739D-03 -0.161D-03
Maxdispl :   0.1023   ||displ|| :   0.1505   Lambda : -0.367D-03
Largest |displ|/coords:  0.1023 (   1)  0.0553 (   9)  0.0456 (   6)
................................................................................
.............................. CYCLE   37 ......................................
................................................................................
   1    -41.1201621 -0.411202E+02  0.735E-02    8.56       0.0  T
   2    -41.1201647 -0.265653E-05  0.543E-02    8.56       1.0  T
   3    -41.1201661 -0.136088E-05  0.116E-02    8.56       2.0  T
   4    -41.1201664 -0.349884E-06  0.309E-03    8.56       7.4  T
   5    -41.1201665 -0.158173E-07  0.121E-03    8.56      19.0  T
   6    -41.1201665 -0.140432E-08  0.655E-04    8.56      35.0  T
speedup  1.08
cpu  time for SCC    0.00 s
wall time for SCC    0.00 s
speedup  1.01
cpu  time for grad    0.01 s
wall time for grad    0.01 s
 E :    -40.91018058  G :  0.009410    pred/act E change: -0.258D-03 -0.294D-03
Maxdispl :   0.2545   ||displ|| :   0.4305   Lambda : -0.630D-03
Largest |displ|/coords:  0.2545 (   1)  0.1702 (   9)  0.1518 (   5)
................................................................................
.............................. CYCLE   38 ......................................
................................................................................
   1    -41.1175572 -0.411176E+02  0.237E-01    8.62       0.0  T
   2    -41.1175820 -0.247877E-04  0.177E-01    8.63       1.0  T
   3    -41.1175954 -0.133371E-04  0.359E-02    8.66       1.0  T
   4    -41.1175992 -0.385244E-05  0.976E-03    8.65       2.3  T
   5    -41.1175994 -0.145750E-06  0.396E-03    8.65       5.8  T
   6    -41.1175994 -0.134310E-07  0.229E-03    8.65      10.0  T
   7    -41.1175994 -0.722084E-08  0.615E-04    8.65      37.3  T
speedup  0.91
cpu  time for SCC    0.00 s
wall time for SCC    0.00 s
speedup  0.94
cpu  time for grad    0.01 s
wall time for grad    0.01 s
 E :    -40.91058589  G :  0.010401    pred/act E change: -0.188D-03 -0.405D-03
Maxdispl :   0.2095   ||displ|| :   0.3572   Lambda : -0.411D-03
Largest |displ|/coords:  0.2095 (   1)  0.1254 (   9)  0.1170 (   5)
................................................................................
.............................. CYCLE   39 ......................................
................................................................................
   1    -41.1189241 -0.411189E+02  0.189E-01    8.77       0.0  T
   2    -41.1189445 -0.204267E-04  0.139E-01    8.78       1.0  T
   3    -41.1189553 -0.108660E-04  0.330E-02    8.81       1.0  T
   4    -41.1189580 -0.266992E-05  0.916E-03    8.81       2.5  T
   5    -41.1189582 -0.152376E-06  0.338E-03    8.81       6.8  T
   6    -41.1189582 -0.120646E-07  0.197E-03    8.81      11.6  T
   7    -41.1189582 -0.570390E-08  0.640E-04    8.81      35.8  T
speedup  0.93
cpu  time for SCC    0.00 s
wall time for SCC    0.00 s
speedup  0.95
cpu  time for grad    0.01 s
wall time for grad    0.01 s
 E :    -40.91089422  G :  0.012964    pred/act E change: -0.373D-03 -0.308D-03
Maxdispl :   0.2290   ||displ|| :   0.5268   Lambda : -0.649D-03
Largest |displ|/coords:  0.2290 (   1)  0.1940 (   9)  0.1893 (   5)
................................................................................
.............................. CYCLE   40 ......................................
................................................................................
   1    -41.1148376 -0.411148E+02  0.319E-01    8.82       0.0  T
   2    -41.1148895 -0.518777E-04  0.240E-01    8.85       1.0  T
   3    -41.1149223 -0.328367E-04  0.488E-02    8.93       1.0  T
   4    -41.1149302 -0.791100E-05  0.142E-02    8.91       1.6  T
   5    -41.1149306 -0.324621E-06  0.586E-03    8.91       3.9  T
   6    -41.1149306 -0.333948E-07  0.335E-03    8.91       6.9  T
   7    -41.1149306 -0.150371E-07  0.873E-04    8.91      26.3  T
   8    -41.1149306 -0.102868E-08  0.212E-04    8.91     108.1  T
speedup  1.04
cpu  time for SCC    0.01 s
wall time for SCC    0.00 s
speedup  1.00
cpu  time for grad    0.01 s
wall time for grad    0.01 s
 E :    -40.91134211  G :  0.017672    pred/act E change: -0.232D-03 -0.448D-03
Maxdispl :   0.1630   ||displ|| :   0.3975   Lambda : -0.783D-03
Largest |displ|/coords:  0.1630 (   1)  0.1468 (   4)  0.1398 (   8)
................................................................................
.............................. CYCLE   41 ......................................
................................................................................
   1    -41.1161990 -0.411162E+02  0.265E-01    8.93       0.0  T
   2    -41.1162306 -0.316316E-04  0.198E-01    8.94       1.0  T
   3    -41.1162499 -0.193080E-04  0.393E-02    8.98       1.0  T
   4    -41.1162545 -0.460233E-05  0.121E-02    8.98       1.9  T
   5    -41.1162548 -0.261261E-06  0.431E-03    8.98       5.3  T
   6    -41.1162548 -0.203416E-07  0.258E-03    8.98       8.9  T
   7    -41.1162548 -0.104719E-07  0.791E-04    8.97      29.0  T
speedup  1.16
cpu  time for SCC    0.00 s
wall time for SCC    0.00 s
speedup  1.04
cpu  time for grad    0.01 s
wall time for grad    0.01 s
 E :    -40.91191881  G :  0.020168    pred/act E change: -0.415D-03 -0.577D-03
Maxdispl :   0.1858   ||displ|| :   0.5175   Lambda : -0.134D-02
Largest |displ|/coords:  0.1858 (   1)  0.1753 (   2)  0.1564 (   8)
................................................................................
.............................. CYCLE   42 ......................................
................................................................................
   1    -41.1150068 -0.411150E+02  0.350E-01    8.95       0.0  T
   2    -41.1150738 -0.670206E-04  0.262E-01    8.97       1.0  T
   3    -41.1151141 -0.403494E-04  0.569E-02    9.04       1.0  T
   4    -41.1151235 -0.930537E-05  0.187E-02    9.04       1.2  T
   5    -41.1151241 -0.659737E-06  0.613E-03    9.04       3.7  T
   6    -41.1151242 -0.388457E-07  0.365E-03    9.04       6.3  T
   7    -41.1151242 -0.188334E-07  0.109E-03    9.04      21.1  T
speedup  0.91
cpu  time for SCC    0.00 s
wall time for SCC    0.00 s
speedup  1.03
cpu  time for grad    0.01 s
wall time for grad    0.01 s
 E :    -40.91298730  G :  0.026998    pred/act E change: -0.453D-03 -0.107D-02
Maxdispl :   0.2187   ||displ|| :   0.5774   Lambda : -0.262D-02
Largest |displ|/coords:  0.2187 (   8)  0.1884 (   2)  0.1647 (  17)
................................................................................
.............................. CYCLE   43 ......................................
................................................................................
   1    -41.1186536 -0.411187E+02  0.445E-01    8.78       0.0  T
   2    -41.1187789 -0.125266E-03  0.332E-01    8.79       1.0  T
   3    -41.1188550 -0.760955E-04  0.898E-02    8.82       1.0  T
   4    -41.1188703 -0.153892E-04  0.301E-02    8.82       1.0  T
   5    -41.1188715 -0.116896E-05  0.784E-03    8.83       2.9  T
   6    -41.1188716 -0.629466E-07  0.479E-03    8.83       4.8  T
   7    -41.1188716 -0.262130E-07  0.134E-03    8.83      17.1  T
speedup  0.91
cpu  time for SCC    0.00 s
wall time for SCC    0.00 s
speedup  1.03
cpu  time for grad    0.01 s
wall time for grad    0.01 s
 E :    -40.91327621  G :  0.043415    pred/act E change: -0.847D-03 -0.289D-03
Maxdispl :   0.1640   ||displ|| :   0.3941   Lambda : -0.353D-02
Largest |displ|/coords:  0.1640 (   2)  0.1257 (  13)  0.1252 (   1)
................................................................................
.............................. CYCLE   44 ......................................
................................................................................
   1    -41.1045795 -0.411046E+02  0.305E-01    8.81       0.0  T
   2    -41.1046329 -0.534409E-04  0.229E-01    8.84       1.0  T
   3    -41.1046682 -0.352607E-04  0.478E-02    8.90       1.0  T
   4    -41.1046756 -0.740255E-05  0.131E-02    8.88       1.8  T
   5    -41.1046758 -0.192899E-06  0.578E-03    8.88       4.0  T
   6    -41.1046758 -0.261667E-07  0.296E-03    8.88       7.8  T
speedup  1.05
cpu  time for SCC    0.00 s
wall time for SCC    0.00 s
speedup  1.11
cpu  time for grad    0.01 s
wall time for grad    0.01 s
 E :    -40.91463346  G :  0.041291    pred/act E change: -0.175D-02 -0.136D-02
Maxdispl :   0.2276   ||displ|| :   0.4703   Lambda : -0.324D-02
Largest |displ|/coords:  0.2276 (   4)  0.2036 (   7)  0.1675 (   3)
................................................................................
.............................. CYCLE   45 ......................................
................................................................................
   1    -41.1128314 -0.411128E+02  0.392E-01    9.17       0.0  T
   2    -41.1129230 -0.915501E-04  0.283E-01    9.19       1.0  T
   3    -41.1129722 -0.491890E-04  0.765E-02    9.20       1.0  T
   4    -41.1129801 -0.789643E-05  0.201E-02    9.21       1.1  T
   5    -41.1129808 -0.767550E-06  0.639E-03    9.21       3.6  T
   6    -41.1129809 -0.317101E-07  0.360E-03    9.21       6.4  T
   7    -41.1129809 -0.226708E-07  0.119E-03    9.21      19.3  T
speedup  1.16
cpu  time for SCC    0.00 s
wall time for SCC    0.00 s
speedup  1.04
cpu  time for grad    0.01 s
wall time for grad    0.01 s
 E :    -40.91445297  G :  0.036075    pred/act E change: -0.204D-02  0.180D-03
Maxdispl :   0.1404   ||displ|| :   0.3096   Lambda : -0.386D-02
Largest |displ|/coords:  0.1404 (   8)  0.1293 (   7)  0.1034 (   9)
................................................................................
.............................. CYCLE   46 ......................................
................................................................................
   1    -41.1160402 -0.411160E+02  0.251E-01    9.30       0.0  T
   2    -41.1160778 -0.376120E-04  0.184E-01    9.30       1.0  T
   3    -41.1161006 -0.227888E-04  0.464E-02    9.27       1.0  T
   4    -41.1161043 -0.373548E-05  0.131E-02    9.26       1.7  T
   5    -41.1161045 -0.210465E-06  0.450E-03    9.27       5.1  T
   6    -41.1161045 -0.141303E-07  0.238E-03    9.27       9.7  T
speedup  1.08
cpu  time for SCC    0.00 s
wall time for SCC    0.00 s
speedup  1.00
cpu  time for grad    0.01 s
wall time for grad    0.01 s
 E :    -40.91511110  G :  0.033160    pred/act E change: -0.198D-02 -0.658D-03
Maxdispl :   0.1950   ||displ|| :   0.4930   Lambda : -0.383D-02
Largest |displ|/coords:  0.1950 (  14)  0.1901 (   8)  0.1476 (   3)
................................................................................
.............................. CYCLE   47 ......................................
................................................................................
   1    -41.1153775 -0.411154E+02  0.412E-01    9.11       0.0  T
   2    -41.1154553 -0.778273E-04  0.307E-01    9.11       1.0  T
   3    -41.1155093 -0.540245E-04  0.747E-02    9.11       1.0  T
   4    -41.1155191 -0.980992E-05  0.261E-02    9.11       1.0  T
   5    -41.1155198 -0.702256E-06  0.681E-03    9.11       3.4  T
   6    -41.1155199 -0.340994E-07  0.407E-03    9.11       5.6  T
   7    -41.1155199 -0.177681E-07  0.979E-04    9.11      23.4  T
speedup  1.09
cpu  time for SCC    0.01 s
wall time for SCC    0.00 s
speedup  1.01
cpu  time for grad    0.01 s
wall time for grad    0.01 s
 E :    -40.91669699  G :  0.025747    pred/act E change: -0.211D-02 -0.159D-02
Maxdispl :   0.0855   ||displ|| :   0.1897   Lambda : -0.163D-02
Largest |displ|/coords:  0.0855 (  19)  0.0812 (   7)  0.0502 (   4)
................................................................................
.............................. CYCLE   48 ......................................
................................................................................
   1    -41.1142509 -0.411143E+02  0.173E-01    9.18       0.0  T
   2    -41.1142755 -0.245833E-04  0.126E-01    9.19       1.0  T
   3    -41.1142883 -0.127267E-04  0.332E-02    9.19       1.0  T
   4    -41.1142904 -0.214208E-05  0.642E-03    9.20       3.6  T
   5    -41.1142905 -0.642366E-07  0.279E-03    9.20       8.2  T
   6    -41.1142905 -0.990361E-08  0.161E-03    9.20      14.2  T
speedup  1.05
cpu  time for SCC    0.00 s
wall time for SCC    0.00 s
speedup  0.99
cpu  time for grad    0.01 s
wall time for grad    0.01 s
 E :    -40.91734451  G :  0.021879    pred/act E change: -0.238D-02 -0.648D-03
Maxdispl :   0.1376   ||displ|| :   0.3318   Lambda : -0.115D-02
Largest |displ|/coords:  0.1376 (   8)  0.1232 (   2)  0.1208 (   1)
................................................................................
.............................. CYCLE   49 ......................................
................................................................................
   1    -41.1095817 -0.411096E+02  0.236E-01    9.18       0.0  T
   2    -41.1096029 -0.211698E-04  0.173E-01    9.18       1.0  T
   3    -41.1096182 -0.153204E-04  0.369E-02    9.18       1.0  T
   4    -41.1096204 -0.221151E-05  0.901E-03    9.18       2.5  T
   5    -41.1096206 -0.105763E-06  0.345E-03    9.18       6.6  T
   6    -41.1096206 -0.117595E-07  0.193E-03    9.18      11.9  T
speedup  1.05
cpu  time for SCC    0.00 s
wall time for SCC    0.00 s
speedup  0.98
cpu  time for grad    0.01 s
wall time for grad    0.01 s
 E :    -40.91777952  G :  0.015496    pred/act E change: -0.842D-03 -0.435D-03
Maxdispl :   0.1920   ||displ|| :   0.3306   Lambda : -0.124D-02
Largest |displ|/coords:  0.1920 (   1)  0.1177 (  11)  0.1146 (   4)
................................................................................
.............................. CYCLE   50 ......................................
................................................................................
   1    -41.1155953 -0.411156E+02  0.227E-01    9.49       0.0  T
   2    -41.1156236 -0.283051E-04  0.170E-01    9.48       1.0  T
   3    -41.1156384 -0.147680E-04  0.382E-02    9.45       1.0  T
   4    -41.1156420 -0.357089E-05  0.132E-02    9.46       1.7  T
   5    -41.1156422 -0.258220E-06  0.346E-03    9.47       6.6  T
   6    -41.1156422 -0.792819E-08  0.197E-03    9.47      11.6  T
   7    -41.1156422 -0.509808E-08  0.621E-04    9.47      36.9  T
speedup  0.93
cpu  time for SCC    0.00 s
wall time for SCC    0.00 s
speedup  0.94
cpu  time for grad    0.01 s
wall time for grad    0.01 s
 E :    -40.91773308  G :  0.019226    pred/act E change: -0.636D-03  0.464D-04
Maxdispl :   0.1584   ||displ|| :   0.3609   Lambda : -0.178D-02
Largest |displ|/coords:  0.1584 (   8)  0.1518 (   1)  0.1232 (   6)
................................................................................
.............................. CYCLE   51 ......................................
................................................................................
   1    -41.1188690 -0.411189E+02  0.273E-01    9.30       0.0  T
   2    -41.1188888 -0.198069E-04  0.203E-01    9.31       1.0  T
   3    -41.1189095 -0.207023E-04  0.355E-02    9.31       1.0  T
   4    -41.1189109 -0.139862E-05  0.112E-02    9.31       2.0  T
   5    -41.1189110 -0.133883E-06  0.381E-03    9.31       6.0  T
   6    -41.1189111 -0.995466E-08  0.214E-03    9.31      10.7  T
   7    -41.1189111 -0.386362E-08  0.511E-04    9.31      44.9  T
speedup  1.16
cpu  time for SCC    0.01 s
wall time for SCC    0.00 s
speedup  1.03
cpu  time for grad    0.01 s
wall time for grad    0.01 s
 E :    -40.91807192  G :  0.025208    pred/act E change: -0.686D-03 -0.339D-03
Maxdispl :   0.0851   ||displ|| :   0.2036   Lambda : -0.127D-02
Largest |displ|/coords:  0.0851 (   3)  0.0687 (   8)  0.0679 (   1)
................................................................................
.............................. CYCLE   52 ......................................
................................................................................
   1    -41.1149654 -0.411150E+02  0.134E-01    9.28       0.0  T
   2    -41.1149777 -0.123327E-04  0.986E-02    9.28       1.0  T
   3    -41.1149862 -0.846995E-05  0.242E-02    9.28       1.0  T
   4    -41.1149872 -0.103440E-05  0.750E-03    9.28       3.1  T
   5    -41.1149873 -0.671406E-07  0.253E-03    9.28       9.1  T
   6    -41.1149873 -0.635596E-08  0.143E-03    9.28      16.1  T
speedup  1.00
cpu  time for SCC    0.00 s
wall time for SCC    0.00 s
speedup  0.97
cpu  time for grad    0.01 s
wall time for grad    0.01 s
 E :    -40.91839764  G :  0.013723    pred/act E change: -0.101D-02 -0.326D-03
Maxdispl :   0.0970   ||displ|| :   0.1663   Lambda : -0.496D-03
Largest |displ|/coords:  0.0970 (   2)  0.0606 (   3)  0.0443 (   5)

generating ANC from model Hessian ...
 Shifting diagonal of input Hessian by   4.706075972269821E-003
 Lowest  eigenvalues of input Hessian
   -0.000000   -0.000000   -0.000000   -0.000000   -0.000000    0.000000
    0.005000    0.005623    0.006477    0.007868    0.008736    0.010061
    0.013429    0.013959    0.015676    0.017716    0.020513    0.025825
 Highest eigenvalues
    1.386222    1.409538    1.413992    2.602216    3.433274    3.640994
 
cpu  time for ANC gen    0.01 s
wall time for ANC gen    0.01 s
................................................................................
.............................. CYCLE   53 ......................................
................................................................................
   1    -41.1138028 -0.411138E+02  0.927E-02    9.33       0.0  T
   2    -41.1138064 -0.356123E-05  0.686E-02    9.33       1.0  T
   3    -41.1138093 -0.296959E-05  0.150E-02    9.33       1.5  T
   4    -41.1138096 -0.321530E-06  0.404E-03    9.33       5.7  T
   5    -41.1138097 -0.199655E-07  0.157E-03    9.33      14.6  T
   6    -41.1138097 -0.212618E-08  0.840E-04    9.33      27.3  T
   7    -41.1138097 -0.597851E-09  0.238E-04    9.33      96.2  T
speedup  0.91
cpu  time for SCC    0.00 s
wall time for SCC    0.00 s
speedup  1.00
cpu  time for grad    0.01 s
wall time for grad    0.01 s
 E :    -40.91861059  G :  0.007629    pred/act E change:  0.000D+00 -0.213D-03
Maxdispl :   0.1582   ||displ|| :   0.2186   Lambda : -0.528D-03
Largest |displ|/coords:  0.1582 (   2)  0.0792 (   3)  0.0596 (   4)
................................................................................
.............................. CYCLE   54 ......................................
................................................................................
   1    -41.1141260 -0.411141E+02  0.176E-01    9.34       0.0  T
   2    -41.1141299 -0.391141E-05  0.133E-01    9.34       1.0  T
   3    -41.1141352 -0.527665E-05  0.129E-02    9.34       1.8  T
   4    -41.1141354 -0.229635E-06  0.510E-03    9.34       4.5  T
   5    -41.1141354 -0.259810E-07  0.192E-03    9.34      12.0  T
   6    -41.1141354 -0.461322E-08  0.101E-03    9.34      22.8  T
speedup  1.05
cpu  time for SCC    0.00 s
wall time for SCC    0.00 s
speedup  0.99
cpu  time for grad    0.01 s
wall time for grad    0.01 s
 E :    -40.91895956  G :  0.005972    pred/act E change:  0.000D+00 -0.349D-03
Maxdispl :   0.1737   ||displ|| :   0.2539   Lambda : -0.421D-03
Largest |displ|/coords:  0.1737 (   2)  0.1274 (   6)  0.0729 (  13)
................................................................................
.............................. CYCLE   55 ......................................
................................................................................
   1    -41.1140259 -0.411140E+02  0.199E-01    9.33       0.0  T
   2    -41.1140300 -0.405267E-05  0.149E-01    9.33       1.0  T
   3    -41.1140348 -0.484716E-05  0.158E-02    9.33       1.5  T
   4    -41.1140351 -0.288538E-06  0.408E-03    9.33       5.6  T
   5    -41.1140351 -0.143468E-07  0.212E-03    9.33      10.8  T
   6    -41.1140351 -0.452319E-08  0.787E-04    9.33      29.1  T
speedup  1.05
cpu  time for SCC    0.00 s
wall time for SCC    0.00 s
speedup  0.99
cpu  time for grad    0.01 s
wall time for grad    0.01 s
 E :    -40.91923300  G :  0.007369    pred/act E change: -0.277D-03 -0.273D-03
Maxdispl :   0.1932   ||displ|| :   0.2788   Lambda : -0.337D-03
Largest |displ|/coords:  0.1932 (   6)  0.1477 (   2)  0.0566 (   5)
................................................................................
.............................. CYCLE   56 ......................................
................................................................................
   1    -41.1140003 -0.411140E+02  0.194E-01    9.31       0.0  T
   2    -41.1140056 -0.529850E-05  0.145E-01    9.31       1.0  T
   3    -41.1140102 -0.459537E-05  0.177E-02    9.31       1.3  T
   4    -41.1140108 -0.603694E-06  0.483E-03    9.31       4.8  T
   5    -41.1140108 -0.231544E-07  0.174E-03    9.31      13.2  T
   6    -41.1140108 -0.171997E-08  0.906E-04    9.31      25.3  T
speedup  1.08
cpu  time for SCC    0.00 s
wall time for SCC    0.00 s
speedup  1.11
cpu  time for grad    0.01 s
wall time for grad    0.01 s
 E :    -40.91946176  G :  0.008470    pred/act E change: -0.224D-03 -0.229D-03
Maxdispl :   0.1900   ||displ|| :   0.2979   Lambda : -0.325D-03
Largest |displ|/coords:  0.1900 (   6)  0.1438 (   2)  0.1221 (   5)
................................................................................
.............................. CYCLE   57 ......................................
................................................................................
   1    -41.1152657 -0.411153E+02  0.169E-01    9.28       0.0  T
   2    -41.1152731 -0.736105E-05  0.126E-01    9.28       1.0  T
   3    -41.1152777 -0.460796E-05  0.209E-02    9.29       1.1  T
   4    -41.1152787 -0.979237E-06  0.563E-03    9.28       4.1  T
   5    -41.1152787 -0.487724E-07  0.164E-03    9.28      14.0  T
   6    -41.1152787 -0.120652E-08  0.919E-04    9.28      25.0  T
speedup  1.05
cpu  time for SCC    0.00 s
wall time for SCC    0.00 s
speedup  0.98
cpu  time for grad    0.01 s
wall time for grad    0.01 s
 E :    -40.91963738  G :  0.007559    pred/act E change: -0.181D-03 -0.176D-03
Maxdispl :   0.1644   ||displ|| :   0.2428   Lambda : -0.179D-03
Largest |displ|/coords:  0.1644 (   2)  0.1597 (   6)  0.0326 (   5)
................................................................................
.............................. CYCLE   58 ......................................
................................................................................
   1    -41.1141083 -0.411141E+02  0.167E-01    9.27       0.0  T
   2    -41.1141120 -0.369096E-05  0.126E-01    9.27       1.0  T
   3    -41.1141156 -0.357952E-05  0.143E-02    9.27       1.6  T
   4    -41.1141159 -0.374916E-06  0.551E-03    9.27       4.2  T
   5    -41.1141160 -0.223471E-07  0.151E-03    9.27      15.2  T
   6    -41.1141160 -0.151808E-08  0.895E-04    9.27      25.6  T
speedup  1.05
cpu  time for SCC    0.00 s
wall time for SCC    0.00 s
speedup  0.99
cpu  time for grad    0.01 s
wall time for grad    0.01 s
 E :    -40.91969525  G :  0.010395    pred/act E change: -0.177D-03 -0.579D-04
Maxdispl :   0.0250   ||displ|| :   0.0625   Lambda : -0.174D-03
Largest |displ|/coords:  0.0250 (  12)  0.0236 (   7)  0.0190 (   4)
................................................................................
.............................. CYCLE   59 ......................................
................................................................................
   1    -41.1167586 -0.411168E+02  0.590E-02    9.34       0.0  T
   2    -41.1167599 -0.131767E-05  0.429E-02    9.34       1.0  T
   3    -41.1167606 -0.668863E-06  0.104E-02    9.34       2.2  T
   4    -41.1167608 -0.144026E-06  0.315E-03    9.34       7.3  T
   5    -41.1167608 -0.100487E-07  0.650E-04    9.34      35.3  T
   6    -41.1167608 -0.319226E-09  0.419E-04    9.34      54.8  T
speedup  1.08
cpu  time for SCC    0.00 s
wall time for SCC    0.00 s
speedup  1.00
cpu  time for grad    0.01 s
wall time for grad    0.01 s
 E :    -40.91978276  G :  0.004037    pred/act E change: -0.948D-04 -0.875D-04
Maxdispl :   0.0713   ||displ|| :   0.1171   Lambda : -0.888D-04
Largest |displ|/coords:  0.0713 (   2)  0.0566 (   5)  0.0445 (   6)
................................................................................
.............................. CYCLE   60 ......................................
................................................................................
   1    -41.1167671 -0.411168E+02  0.886E-02    9.35       0.0  T
   2    -41.1167680 -0.929851E-06  0.654E-02    9.35       1.0  T
   3    -41.1167688 -0.777730E-06  0.106E-02    9.35       2.2  T
   4    -41.1167689 -0.917778E-07  0.316E-03    9.35       7.3  T
   5    -41.1167689 -0.946420E-08  0.611E-04    9.35      37.5  T
   6    -41.1167689 -0.229690E-09  0.405E-04    9.35      56.7  T
speedup  1.08
cpu  time for SCC    0.00 s
wall time for SCC    0.00 s
speedup  0.99
cpu  time for grad    0.01 s
wall time for grad    0.01 s
 E :    -40.91984312  G :  0.003170    pred/act E change: -0.872D-04 -0.604D-04
Maxdispl :   0.1103   ||displ|| :   0.1962   Lambda : -0.882D-04
Largest |displ|/coords:  0.1103 (   6)  0.1037 (   2)  0.0647 (   5)
................................................................................
.............................. CYCLE   61 ......................................
................................................................................
   1    -41.1168725 -0.411169E+02  0.160E-01    9.35       0.0  T
   2    -41.1168754 -0.282516E-05  0.118E-01    9.35       1.0  T
   3    -41.1168784 -0.300788E-05  0.184E-02    9.35       1.2  T
   4    -41.1168786 -0.190395E-06  0.385E-03    9.35       6.0  T
   5    -41.1168786 -0.237307E-07  0.130E-03    9.35      17.7  T
   6    -41.1168786 -0.160896E-08  0.770E-04    9.35      29.8  T
   7    -41.1168786 -0.588422E-09  0.149E-04    9.35     154.2  T
speedup  0.91
cpu  time for SCC    0.00 s
wall time for SCC    0.00 s
speedup  1.00
cpu  time for grad    0.01 s
wall time for grad    0.01 s
 E :    -40.91990044  G :  0.002904    pred/act E change: -0.450D-04 -0.573D-04
Maxdispl :   0.0727   ||displ|| :   0.1246   Lambda : -0.402D-04
Largest |displ|/coords:  0.0727 (   6)  0.0503 (   5)  0.0474 (   2)
................................................................................
.............................. CYCLE   62 ......................................
................................................................................
   1    -41.1168824 -0.411169E+02  0.103E-01    9.35       0.0  T
   2    -41.1168837 -0.123044E-05  0.756E-02    9.35       1.0  T
   3    -41.1168850 -0.130070E-05  0.124E-02    9.35       1.9  T
   4    -41.1168850 -0.809406E-07  0.259E-03    9.35       8.9  T
   5    -41.1168851 -0.109805E-07  0.807E-04    9.35      28.4  T
   6    -41.1168851 -0.523428E-09  0.495E-04    9.35      46.3  T
speedup  0.81
cpu  time for SCC    0.00 s
wall time for SCC    0.00 s
speedup  0.97
cpu  time for grad    0.01 s
wall time for grad    0.01 s
 E :    -40.91992907  G :  0.003041    pred/act E change: -0.458D-04 -0.286D-04
Maxdispl :   0.0498   ||displ|| :   0.1050   Lambda : -0.377D-04
Largest |displ|/coords:  0.0498 (   6)  0.0453 (   5)  0.0417 (   1)
................................................................................
.............................. CYCLE   63 ......................................
................................................................................
   1    -41.1174945 -0.411175E+02  0.862E-02    9.37       0.0  T
   2    -41.1174955 -0.993114E-06  0.631E-02    9.37       1.0  T
   3    -41.1174965 -0.977543E-06  0.109E-02    9.37       2.1  T
   4    -41.1174965 -0.726773E-07  0.243E-03    9.37       9.4  T
   5    -41.1174966 -0.939166E-08  0.711E-04    9.37      32.3  T
   6    -41.1174966 -0.450704E-09  0.458E-04    9.37      50.1  T
speedup  1.05
cpu  time for SCC    0.00 s
wall time for SCC    0.00 s
speedup  1.06
cpu  time for grad    0.01 s
wall time for grad    0.01 s
 E :    -40.91995497  G :  0.002683    pred/act E change: -0.204D-04 -0.259D-04
Maxdispl :   0.0736   ||displ|| :   0.1338   Lambda : -0.318D-04
Largest |displ|/coords:  0.0736 (   6)  0.0596 (   5)  0.0447 (   1)
................................................................................
.............................. CYCLE   64 ......................................
................................................................................
   1    -41.1169941 -0.411170E+02  0.105E-01    9.36       0.0  T
   2    -41.1169955 -0.133040E-05  0.775E-02    9.36       1.0  T
   3    -41.1169969 -0.138288E-05  0.120E-02    9.36       1.9  T
   4    -41.1169970 -0.962656E-07  0.231E-03    9.36       9.9  T
   5    -41.1169970 -0.890090E-08  0.908E-04    9.36      25.3  T
   6    -41.1169970 -0.804199E-09  0.515E-04    9.36      44.5  T
speedup  0.81
cpu  time for SCC    0.00 s
wall time for SCC    0.00 s
speedup  0.97
cpu  time for grad    0.01 s
wall time for grad    0.01 s
 E :    -40.91997290  G :  0.002302    pred/act E change: -0.191D-04 -0.179D-04
Maxdispl :   0.0400   ||displ|| :   0.0755   Lambda : -0.280D-04
Largest |displ|/coords:  0.0400 (   1)  0.0308 (   2)  0.0272 (   8)
................................................................................
.............................. CYCLE   65 ......................................
[...]
speedup  0.97
cpu  time for grad    0.01 s
wall time for grad    0.01 s
 E :    -40.92078462  G :  0.001201    pred/act E change: -0.245D-05 -0.255D-05
Maxdispl :   0.0169   ||displ|| :   0.0313   Lambda : -0.396D-05
Largest |displ|/coords:  0.0169 (   8)  0.0134 (   6)  0.0096 (   1)

generating ANC from model Hessian ...
 Shifting diagonal of input Hessian by   4.739565460611445E-003
 Lowest  eigenvalues of input Hessian
   -0.000000   -0.000000   -0.000000    0.000000    0.000000    0.000000
    0.005000    0.005341    0.006574    0.008192    0.008704    0.009394
    0.013135    0.014523    0.014610    0.017637    0.022959    0.025777
 Highest eigenvalues
    1.405004    1.405238    1.412560    2.599350    3.461560    3.658975
 
cpu  time for ANC gen    0.01 s
wall time for ANC gen    0.01 s
................................................................................
.............................. CYCLE  147 ......................................
................................................................................
   1    -41.1187640 -0.411188E+02  0.297E-02    9.38       0.0  T
   2    -41.1187641 -0.126980E-06  0.221E-02    9.38       1.0  T
   3    -41.1187642 -0.960493E-07  0.320E-03    9.38       7.2  T
   4    -41.1187643 -0.153298E-07  0.864E-04    9.38      26.5  T
   5    -41.1187643 -0.627999E-09  0.252E-04    9.38      91.0  T
speedup  1.29
cpu  time for SCC    0.00 s
wall time for SCC    0.00 s
speedup  1.02
cpu  time for grad    0.01 s
wall time for grad    0.01 s
 E :    -40.92078689  G :  0.000736    pred/act E change:  0.000D+00 -0.227D-05
Maxdispl :   0.0036   ||displ|| :   0.0059   Lambda : -0.102D-05
Largest |displ|/coords:  0.0036 (   5)  0.0023 (   9)  0.0021 (  11)
................................................................................
.............................. CYCLE  148 ......................................
................................................................................
   1    -41.1188373 -0.411188E+02  0.476E-03    9.38       0.0  T
   2    -41.1188373 -0.585940E-08  0.349E-03    9.38       6.6  T
   3    -41.1188373 -0.417349E-08  0.680E-04    9.38      33.7  T
   4    -41.1188373 -0.611820E-09  0.221E-04    9.38     103.9  T
speedup  1.15
cpu  time for SCC    0.00 s
wall time for SCC    0.00 s
speedup  1.10
cpu  time for grad    0.01 s
wall time for grad    0.01 s
 E :    -40.92078772  G :  0.000455    pred/act E change:  0.000D+00 -0.823D-06
Maxdispl :   0.0073   ||displ|| :   0.0155   Lambda : -0.178D-05
Largest |displ|/coords:  0.0073 (   9)  0.0061 (   6)  0.0059 (   5)
................................................................................
.............................. CYCLE  149 ......................................
................................................................................
   1    -41.1189472 -0.411189E+02  0.130E-02    9.38       0.0  T
   2    -41.1189472 -0.324396E-07  0.948E-03    9.38       2.4  T
   3    -41.1189472 -0.212625E-07  0.168E-03    9.38      13.6  T
   4    -41.1189472 -0.305782E-08  0.455E-04    9.38      50.4  T
   5    -41.1189472 -0.228866E-09  0.100E-04    9.38     228.5  T
speedup  0.97
cpu  time for SCC    0.00 s
wall time for SCC    0.00 s
speedup  0.92
cpu  time for grad    0.01 s
wall time for grad    0.01 s
 E :    -40.92078877  G :  0.000381    pred/act E change: -0.511D-06 -0.105D-05
Maxdispl :   0.0039   ||displ|| :   0.0078   Lambda : -0.402D-06
Largest |displ|/coords:  0.0039 (   5)  0.0032 (   9)  0.0031 (  11)
................................................................................
.............................. CYCLE  150 ......................................
................................................................................
   1    -41.1189232 -0.411189E+02  0.640E-03    9.38       0.0  T
   2    -41.1189232 -0.789902E-08  0.466E-03    9.38       4.9  T
   3    -41.1189232 -0.543826E-08  0.823E-04    9.38      27.9  T
   4    -41.1189232 -0.725564E-09  0.197E-04    9.38     116.5  T
speedup  1.15
cpu  time for SCC    0.00 s
wall time for SCC    0.00 s
speedup  1.10
cpu  time for grad    0.01 s
wall time for grad    0.01 s
 E :    -40.92078908  G :  0.000316    pred/act E change: -0.891D-06 -0.311D-06
Maxdispl :   0.0059   ||displ|| :   0.0131   Lambda : -0.534D-06
Largest |displ|/coords:  0.0059 (   5)  0.0052 (   6)  0.0050 (   2)
................................................................................
.............................. CYCLE  151 ......................................
................................................................................
   1    -41.1188534 -0.411189E+02  0.104E-02    9.38       0.0  T
   2    -41.1188534 -0.175860E-07  0.756E-03    9.38       3.0  T
   3    -41.1188534 -0.136923E-07  0.129E-03    9.38      17.7  T
   4    -41.1188534 -0.154656E-08  0.269E-04    9.38      85.4  T
   5    -41.1188534 -0.114234E-09  0.798E-05    9.38     287.5  T
speedup  0.97
cpu  time for SCC    0.00 s
wall time for SCC    0.00 s
speedup  1.03
cpu  time for grad    0.01 s
wall time for grad    0.01 s
 E :    -40.92078944  G :  0.000244    pred/act E change: -0.201D-06 -0.365D-06
Maxdispl :   0.0050   ||displ|| :   0.0107   Lambda : -0.322D-06
Largest |displ|/coords:  0.0050 (   2)  0.0049 (   6)  0.0044 (   5)
................................................................................
.............................. CYCLE  152 ......................................
................................................................................
   1    -41.1188013 -0.411188E+02  0.810E-03    9.38       0.0  T
   2    -41.1188013 -0.976355E-08  0.593E-03    9.38       3.9  T
   3    -41.1188013 -0.832765E-08  0.100E-03    9.38      22.8  T
   4    -41.1188013 -0.850953E-09  0.257E-04    9.38      89.2  T
   5    -41.1188013 -0.837943E-10  0.622E-05    9.38     368.8  T
speedup  0.97
cpu  time for SCC    0.00 s
wall time for SCC    0.00 s
speedup  0.92
cpu  time for grad    0.01 s
wall time for grad    0.01 s
 E :    -40.92078967  G :  0.000264    pred/act E change: -0.267D-06 -0.230D-06
Maxdispl :   0.0072   ||displ|| :   0.0146   Lambda : -0.385D-06
Largest |displ|/coords:  0.0072 (   2)  0.0064 (   5)  0.0064 (   6)
................................................................................
.............................. CYCLE  153 ......................................
................................................................................
   1    -41.1187575 -0.411188E+02  0.106E-02    9.38       0.0  T
   2    -41.1187575 -0.162868E-07  0.779E-03    9.38       2.9  T
   3    -41.1187575 -0.141298E-07  0.129E-03    9.38      17.8  T
   4    -41.1187575 -0.149559E-08  0.405E-04    9.38      56.7  T
   5    -41.1187575 -0.164029E-09  0.802E-05    9.38     286.1  T
speedup  1.29
cpu  time for SCC    0.00 s
wall time for SCC    0.00 s
speedup  1.02
cpu  time for grad    0.01 s
wall time for grad    0.01 s
 E :    -40.92078990  G :  0.000286    pred/act E change: -0.161D-06 -0.232D-06
Maxdispl :   0.0054   ||displ|| :   0.0104   Lambda : -0.309D-06
Largest |displ|/coords:  0.0054 (   6)  0.0050 (   2)  0.0039 (   1)
................................................................................
.............................. CYCLE  154 ......................................
................................................................................
   1    -41.1187590 -0.411188E+02  0.764E-03    9.38       0.0  T
   2    -41.1187591 -0.102106E-07  0.568E-03    9.38       4.0  T
   3    -41.1187591 -0.771418E-08  0.897E-04    9.38      25.6  T
   4    -41.1187591 -0.124655E-08  0.355E-04    9.38      64.6  T
speedup  1.20
cpu  time for SCC    0.00 s
wall time for SCC    0.00 s
speedup  0.99
cpu  time for grad    0.01 s
wall time for grad    0.01 s
 E :    -40.92079010  G :  0.000227    pred/act E change: -0.192D-06 -0.196D-06
Maxdispl :   0.0027   ||displ|| :   0.0055   Lambda : -0.207D-06
Largest |displ|/coords:  0.0027 (   6)  0.0021 (   5)  0.0020 (   2)
................................................................................
.............................. CYCLE  155 ......................................
................................................................................
   1    -41.1187905 -0.411188E+02  0.467E-03    9.38       0.0  T
   2    -41.1187905 -0.433139E-08  0.351E-03    9.38       6.5  T
   3    -41.1187905 -0.311637E-08  0.486E-04    9.38      47.2  T
   4    -41.1187905 -0.623913E-09  0.242E-04    9.38      94.8  T
speedup  0.83
cpu  time for SCC    0.00 s
wall time for SCC    0.00 s
speedup  0.99
cpu  time for grad    0.01 s
wall time for grad    0.01 s
 E :    -40.92079027  G :  0.000152    pred/act E change: -0.155D-06 -0.166D-06
Maxdispl :   0.0043   ||displ|| :   0.0083   Lambda : -0.230D-06
Largest |displ|/coords:  0.0043 (   6)  0.0034 (   5)  0.0029 (   8)
................................................................................
.............................. CYCLE  156 ......................................
................................................................................
   1    -41.1188205 -0.411188E+02  0.740E-03    9.38       0.0  T
   2    -41.1188205 -0.794682E-08  0.557E-03    9.38       4.1  T
   3    -41.1188205 -0.715062E-08  0.674E-04    9.38      34.0  T
   4    -41.1188205 -0.936275E-09  0.342E-04    9.38      67.1  T
speedup  1.07
cpu  time for SCC    0.00 s
wall time for SCC    0.00 s
speedup  0.95
cpu  time for grad    0.01 s
wall time for grad    0.01 s
 E :    -40.92079043  G :  0.000171    pred/act E change: -0.104D-06 -0.161D-06
Maxdispl :   0.0024   ||displ|| :   0.0049   Lambda : -0.115D-06
Largest |displ|/coords:  0.0024 (   6)  0.0020 (   5)  0.0019 (   8)
................................................................................
.............................. CYCLE  157 ......................................
................................................................................
   1    -41.1188212 -0.411188E+02  0.488E-03    9.38       0.0  T
   2    -41.1188212 -0.302297E-08  0.367E-03    9.38       6.3  T
   3    -41.1188212 -0.296031E-08  0.455E-04    9.38      50.5  T
   4    -41.1188212 -0.294214E-09  0.203E-04    9.38     113.1  T
speedup  1.15
cpu  time for SCC    0.00 s
wall time for SCC    0.00 s
speedup  0.98
cpu  time for grad    0.01 s
wall time for grad    0.01 s
 E :    -40.92079052  G :  0.000168    pred/act E change: -0.115D-06 -0.927D-07
Maxdispl :   0.0035   ||displ|| :   0.0075   Lambda : -0.146D-06
Largest |displ|/coords:  0.0035 (   6)  0.0029 (   5)  0.0026 (   8)

   *** GEOMETRY OPTIMIZATION CONVERGED AFTER 157 ITERATIONS ***

------------------------------------------------------------------------
 total energy gain (kcal):     -0.0023
------------------------------------------------------------------------
================
 final structure:
================
$coord
       -0.92052404033492       -1.44289317548574       -2.22588206619457      S 
       -1.84511638529519        0.98476433257059       -1.31677505016006      O 
        0.91747780757084       -1.26276083860034       -4.22504470537846      O 
       -0.05592575075800       -3.02553087621870       -0.12768078891572      O 
       -3.32453745289104       -2.81580985664590       -3.35754359063669      O 
       -2.63055617630334       -4.25236907701208       -4.18934311674182      H 
       -4.22063450300450        0.87302482881620        3.03175253138501      O 
       -3.68851817169272        0.88722987744741        1.24539240729296      H 
       -4.76572637941017        2.55734489213404        3.42162694517362      H 
        1.95373548376266        2.91461281726258        1.37205265811200      O 
        3.39179633719898        2.22587876837227        0.40835977199760      H 
        0.52468684212911        2.74922146433800        0.20989300831779      H 
        4.92274455885181        0.49749807282493       -1.81545017785912      O 
        6.03445151686523        1.23044667548716       -3.04484909915958      H 
        3.55045748185017       -0.30386011927446       -2.77282834388867      H 
        0.27434841253155       -0.68293278397463        3.90720745952111      O 
        1.20355302367907        0.91938113449834        3.11447195164899      H 
       -1.56241564861524       -0.14295235279846        4.02628096992267      H 
        0.24070302511850       -1.91029376445234        2.33835923565034      H 
$end
 
 Bond Distances (Angstroems)
 ---------------------------
S1-O2=1.4564         S1-O3=1.4402         S1-O4=1.4641         S1-O5=1.5827         O2-S1=1.4564         O3-S1=1.4402         
O4-S1=1.4641         O5-S1=1.5827         O5-H6=0.9521         H6-O5=0.9521         O7-H8=0.9864         O7-H9=0.9593         
H8-O7=0.9864         H9-O7=0.9593         O10-H11=0.9859       O10-H12=0.9786       H11-O10=0.9859       H12-O10=0.9786       
O13-H14=0.9590       O13-H15=0.9818       H14-O13=0.9590       H15-O13=0.9818       O16-H17=1.0662       O16-H18=1.0151       
O16-H19=1.0542       H17-O16=1.0662       H18-O16=1.0151       H19-O16=1.0542       
 O  H  Rav=0.9939 sigma=0.0374  Rmin=0.9521  Rmax=1.0662    10
 S  O  Rav=1.4859 sigma=0.0566  Rmin=1.4402  Rmax=1.5827     4
 
 selected bond angles (degree)
 --------------------
O3-S1-O2=114.28                O4-S1-O2=111.04                O4-S1-O3=112.57                O5-S1-O2=105.06                
O5-S1-O3=107.17                O5-S1-O4=106.00                H6-O5-S1=103.38                H9-O7-H8=106.55                
H12-O10-H11=103.79             
 
 selected dihedral angles (degree)
 ---------------------------------
H6-O5-S1-O2=170.45            H6-O5-S1-O3= 48.53            H6-O5-S1-O4=288.09            
 
 CMA Distance (Angstroems)
 ---------------------------
R(CMA):  2.5659

========================================================================
 FINAL SINGLEPOINT CALCULATION ON OPTIMIZED GEOMETRY
========================================================================

 Ncao       : 52
 Nao        : 51
 Nshell     : 29
 Nel        : 64
 T(el)      :   300.0
 intcut     :    25.0
 scfconv/Eh :  0.100E-05
   qconv/e  :  0.100E-03
 intneglect :  0.100E-07
 broydamp   :      0.250
 iter      E             dE          RMSdq      gap      omega  full diag
   1    -41.1188212 -0.411188E+02  0.867E-05    9.38       0.0  T
   2    -41.1188212 -0.263611E-11  0.529E-05    9.38     433.4  T
   3    -41.1188212 -0.121503E-11  0.741E-06    9.38    3096.6  T
speedup  0.56
cpu  time for SCC    0.00 s
wall time for SCC    0.00 s

   *** convergence criteria satisfied after 3 iterations ***

          eigenvalues
 #    :          20         21         22         23         24         25         26         27
 occ. :        2.000      2.000      2.000      2.000      2.000      2.000      2.000      2.000
 eps  :       -14.477    -14.159    -13.916    -13.667    -12.884    -12.764    -12.690    -12.639
 #    :          28         29         30         31         32         33         34         35
 occ. :        2.000      2.000      2.000      2.000      2.000      0.000      0.000      0.000
 eps  :       -12.545    -12.388    -12.247    -12.123    -12.064     -2.681     -0.749     -0.193
 #    :          36         37         38         39         40         41         42         43
 occ. :        0.000      0.000      0.000      0.000      0.000      0.000      0.000      0.000
 eps  :         0.446      1.099      1.623      3.074      3.805      4.591      5.912      6.662


   #   Z            q   n(s)   n(p)   n(d)      C6AA      α(0)
   1  16 S      1.679  1.581  1.787  0.954    89.256    15.901
   2   8 O     -0.736  1.763  4.973  0.000    29.716     7.309
   3   8 O     -0.721  1.770  4.951  0.000    29.280     7.255
   4   8 O     -0.733  1.771  4.963  0.000    29.589     7.295
   5   8 O     -0.582  1.748  4.834  0.000    24.731     6.713
   6   1 H      0.348  0.652  0.000  0.000     0.586     1.198
   7   8 O     -0.604  1.744  4.860  0.000    25.283     6.786
   8   1 H      0.334  0.666  0.000  0.000     0.629     1.246
   9   1 H      0.298  0.702  0.000  0.000     0.726     1.338
  10   8 O     -0.606  1.754  4.852  0.000    25.314     6.792
  11   1 H      0.341  0.659  0.000  0.000     0.611     1.228
  12   1 H      0.325  0.675  0.000  0.000     0.651     1.268
  13   8 O     -0.616  1.742  4.873  0.000    25.566     6.824
  14   1 H      0.292  0.708  0.000  0.000     0.745     1.356
  15   1 H      0.322  0.678  0.000  0.000     0.659     1.275
  16   8 O     -0.499  1.730  4.769  0.000    22.812     6.451
  17   1 H      0.387  0.613  0.000  0.000     0.508     1.119
  18   1 H      0.381  0.619  0.000  0.000     0.523     1.136
  19   1 H      0.393  0.607  0.000  0.000     0.495     1.103

 Mol. C6AA /au·bohr⁶  :       3380.031153
 Mol. C8AA /au·bohr⁸  :      76541.957551
 Mol. α(0) /au        :         83.592017

 
 Wiberg/Mayer (AO) data. WBOs > 0.1 written file <wbo>
 largest (>0.05) Wiberg bond orders for each atom
           total WBO             WBO to atom ...
     1  S   4.863    O    3 1.357    O    2 1.302    O    4 1.261    O    5 0.902
     2  O   1.741    S    1 1.302    O    4 0.109    O    3 0.108    H    8 0.065    O    5 0.060
     3  O   1.747    S    1 1.357    O    2 0.108    O    4 0.107    O    5 0.079    H   15 0.062
     4  O   1.761    S    1 1.261    H   19 0.162    O    2 0.109    O    3 0.107    O    5 0.071
     5  O   1.980    S    1 0.902    H    6 0.862    O    3 0.079    O    4 0.071    O    2 0.060
     6  H   0.879    O    5 0.862
     7  O   1.911    H    9 0.906    H    8 0.821    H   18 0.107
     8  H   0.889    O    7 0.821    O    2 0.065
     9  H   0.911    O    7 0.906
    10  O   1.985    H   12 0.844    H   11 0.816    H   17 0.196    O   16 0.069
    11  H   0.884    O   10 0.816    O   13 0.065
    12  H   0.894    O   10 0.844
    13  O   1.866    H   14 0.910    H   15 0.830    H   11 0.065
    14  H   0.915    O   13 0.910
    15  H   0.896    O   13 0.830    O    3 0.062
    16  O   2.248    H   18 0.744    H   19 0.673    H   17 0.651    O   10 0.069
    17  H   0.850    O   16 0.651    O   10 0.196
    18  H   0.855    O   16 0.744    O    7 0.107
    19  H   0.846    O   16 0.673    O    4 0.162
 MOs/occ written to file <molden.input>
 
molecular dipole:
                 x           y           z       tot (Debye)
 q only:       -0.047       0.406       0.892
   full:       -0.308       0.307      -0.089       1.128
molecular quadrupole (traceless):
                xx          xy          yy          xz          yz          zz
 q only:       -1.167       0.812       0.957      -3.457       3.841       0.210
  q+dip:       -1.327       0.201       2.096      -4.994       5.678      -0.769
   full:       -1.237       0.435       1.997      -4.955       6.115      -0.760

SCC energy    :     -41.1188212
rep           :       0.1979488
ES            :       0.1984530
AES           :      -0.0539704
AXC           :      -0.0102647
disp          :      -0.0138927
XB            :       0.0000000
fix           :       0.0000000
total E       :     -40.9207905
atomizationE  :       3.7149777     2331.18
(atE without considering molecular charge,
 total energy contains solvation terms)
H-L gap (eV)  :          9.3831
optimized geometry written to: xtbopt.xyz


------------------------------------------------------------------------
 * finished run on 2019/09/03 at 12:49:54.871     
------------------------------------------------------------------------
 total:
 * wall-time:     0 d,  0 h,  0 min,  2.990 sec
 *  cpu-time:     0 d,  0 h,  0 min,  2.305 sec
 * ratio c/w:     0.771 speedup
 SCF:
 * wall-time:     0 d,  0 h,  0 min,  0.678 sec
 *  cpu-time:     0 d,  0 h,  0 min,  0.092 sec
 * ratio c/w:     0.136 speedup
 ANC optimizer:
 * wall-time:     0 d,  0 h,  0 min,  2.289 sec
 *  cpu-time:     0 d,  0 h,  0 min,  2.194 sec
 * ratio c/w:     0.958 speedup

