      -----------------------------------------------------------      
     |                   =====================                   |     
     |                           x T B                           |     
     |                   =====================                   |     
     |                         S. Grimme                         |     
     |          Mulliken Center for Theoretical Chemistry        |     
     |                    University of Bonn                     |     
     |                 Version 6.0.1 (SAW181210)                 |     
      -----------------------------------------------------------      

   This program is distributed in the hope that it will be useful,
   but WITHOUT ANY WARRANTY; without even the implied warranty of
   MERCHANTABILITY or FITNESS FOR A PARTICULAR PURPOSE.
   
   FOR NON-COMMERCIAL, ACADEMIA USE ONLY.
   
   Cite this work as:
   S. Grimme, C. Bannwarth, P. Shushkov, J. Comput. Theory Chem., 2017,
   13, 1989-2009.
   C. Bannwarth, S. Ehlert and S. Grimme., ChemRxiv, 2018, preprint.
   http://doi.org/10.26434/chemrxiv.7246238.v1
   
   for sTDA-xTB:
   S. Grimme and C. Bannwarth, J. Chem. Phys., 2016, 145, 054103.
   
   in the mass-spec context:
   V. Asgeirsson, C. Bauer and S. Grimme, Chem. Sci., 2017, 8, 4879.
   
   if GBSA is used:
   P. Shushkov, F. März and S. Grimme, unpublished.
   
   for ANC optimizer:
   S. Grimme, unpublished.
   Rational Function algorithm used in ANCopt:
   F. Eckert, P. Pulay, H.-J. Werner, J. Comput. Chem., 1997, 18, 1473.
   
   with help from (in alphabetical order)
   C. Bannwarth, F. Bohle, G. Brandenburg, E. Caldeweyher, M. Checinski,
   S. Dohm, S. Ehlert, S. Ehrlich, F. März, H. Neugebauer, J. Pisarek,
   P. Pracht, P. Shushkov, and S. Spicher.
   
 * started run on 2019/09/16 at 11:34:36.162     
========================================================================
 # omp threads = 1
========================================================================
number of atoms            : 26
number of electrons        : 80
charge                     : 0
spin                       : .0
first test random number   : .7591

########################################################################
# WARNING! Please study the warnings concerning your input carefully
#  - XTBPATH is not set, using XTBHOME instead
#  - the use of '-opt' is discouraged, please use '--opt' next time
#  - the use of '-chrg' is discouraged, please use '--chrg' next time
#  - the use of '-uhf' is discouraged, please use '--uhf' next time
########################################################################

           ------------------------------------------------- 
          |                 G F N 2 - x T B                 |
          | Geometry, Frequencies, Noncovalent interactions |
          |            JCTC 2018 parametrisation            |
           ------------------------------------------------- 
      method parameters     
 k(s)        :  1.8500
 k(p)        :  2.2300
 k(d)        :  2.2300
 k(f)        :  2.0000
 kEN (H0ij)  : -2.0000
 D4 a1       :  0.5200
 D4 a2       :  5.0000
 D4 s6       :  1.0000
 D4 s8       :  2.7000
 D4 s9       :  5.0000
 alphaj      :  2.0000


            Z     q(EN)     CN     RAES       Cart. coordinates
     1  S   6.0    0.68    4.10    3.87    -1.09578     2.93241    -2.23711
     2  O   6.0   -0.32    1.27    1.80     1.61009     3.70937    -2.28924
     3  O   6.0   -0.26    1.11    1.80    -2.66147     4.89864    -3.50623
     4  O   6.0   -0.32    1.25    1.80    -1.39411     0.47948    -3.58703
     5  O   6.0   -0.32    1.23    1.80    -1.93762     2.64214     0.43406
     6  O   6.0   -0.36    1.56    1.80    -3.29705    -4.76931     0.68020
     7  H   1.0    0.17    0.94    1.42    -3.45461    -6.55076     1.21438
     8  O   6.0   -0.40    1.65    1.81     3.36670    -1.08414     2.15739
     9  H   1.0    0.17    0.95    1.42     4.53610    -2.14044     3.15764
    10  O   6.0   -0.22    2.90    2.55    -5.01303    -2.70168    -2.93529
    11  H   1.0    0.17    1.23    1.47    -4.39301    -3.75168    -1.52004
    12  H   1.0    0.12    0.96    1.43    -6.60234    -1.81777    -2.50772
    13  H   1.0    0.16    1.08    1.44    -3.70346    -1.52293    -3.55745
    14  O   6.0   -0.23    2.94    2.64    -1.13491    -1.49418     2.93016
    15  H   1.0    0.16    1.17    1.46     0.72286    -1.59593     2.76235
    16  H   1.0    0.15    1.06    1.44    -1.81098     0.11580     2.26615
    17  H   1.0    0.17    1.22    1.47    -1.98747    -2.97494     2.17386
    18  O   6.0   -0.22    2.92    2.60     3.60329    -0.84099    -2.38555
    19  H   1.0    0.15    1.05    1.44     3.40144     0.97097    -2.79288
    20  H   1.0    0.16    1.19    1.46     3.70079    -1.13818    -0.54377
    21  H   1.0    0.13    0.97    1.43     2.28542    -1.89043    -3.19390
    22  N   5.0   -0.14    3.95    2.73     3.05183     3.70491     2.65600
    23  H   1.0    0.12    1.07    1.44     2.71045     4.26329     0.82404
    24  H   1.0    0.09    0.99    1.43     1.52408     4.16426     3.76930
    25  H   1.0    0.12    1.13    1.45     3.33504     1.78090     2.70539
    26  H   1.0    0.08    0.99    1.43     4.63776     4.61118     3.32530

  Z AO/shell   Hii/eV     exponent
  1     Wed Apr 25 08:07:45 CEST 2018   EN: 2.200 GM2: 0.406  GM3: 0.0800  RAES: 1.40
     1s    -10.707211    1.230000
  7     Wed Apr 25 08:07:45 CEST 2018   EN: 3.040 GM2: 0.461  GM3:-0.0640  RAES: 1.90
     2s    -16.686243    2.339881
     2p    -12.523956    2.014332
  8     Wed Apr 25 08:07:45 CEST 2018   EN: 3.440 GM2: 0.452  GM3:-0.0517  RAES: 1.80
     2s    -20.229985    2.439742
     2p    -15.503117    2.137023
 16     Tue Apr 24 11:44:34 CEST 2018   EN: 2.580 GM2: 0.340  GM3:-0.0502  RAES: 3.10
     3s    -20.029654    1.981333
     3p    -11.377694    2.025643
     3d     -0.420282    1.702555
 no old-style atom pair restraining (fixing) potential

molecular fragmentation (1/2 indicates fragments):
11111222222222222222222222
# atoms in fragment 1/2:     5    21
 fragment masses (1/2) :       96.06      109.12
CMA distance (Bohr)    :   5.075
constraining FC (au)   :  0.0500
           ------------------------------------------------- 
          |        Self-Consistent Charge Iterations        |
           ------------------------------------------------- 

 Ncao       : 65
 Nao        : 64
 Nshell     : 38
 Nel        : 80
 T(el)      :   300.0
 intcut     :    25.0
 scfconv/Eh :  0.100E-05
   qconv/e  :  0.100E-03
 intneglect :  0.100E-07
 broydamp   :      0.250
 iter      E             dE          RMSdq      gap      omega  full diag
   1    -50.4853442 -0.504853E+02  0.705E+00   10.39       0.0  T
   2    -50.5296005 -0.442563E-01  0.508E+00    9.69       1.0  T
   3    -50.5677822 -0.381817E-01  0.115E+00    6.71       1.0  T
   4    -50.5722443 -0.446213E-02  0.544E-01    6.96       1.0  T
   5    -50.5727952 -0.550853E-03  0.281E-01    6.76       1.0  T
   6    -50.5731486 -0.353364E-03  0.128E-01    6.77       1.0  T
   7    -50.5732479 -0.993377E-04  0.455E-02    6.85       1.0  T
   8    -50.5732559 -0.799871E-05  0.304E-02    6.85       1.0  T
   9    -50.5732613 -0.535410E-05  0.856E-03    6.85       2.3  T
  10    -50.5732616 -0.334904E-06  0.207E-03    6.85       9.5  T
  11    -50.5732616 -0.183713E-07  0.917E-04    6.85      21.4  T
  12    -50.5732616 -0.295974E-08  0.364E-04    6.85      53.9  T
speedup  0.94
cpu  time for SCC    0.01 s
wall time for SCC    0.01 s

   *** convergence criteria satisfied after 12 iterations ***

          eigenvalues
 #    :          28         29         30         31         32         33         34         35
 occ. :        2.000      2.000      2.000      2.000      2.000      2.000      2.000      2.000
 eps  :       -11.823    -11.524    -11.339    -10.688    -10.627    -10.209     -9.903     -9.811
 #    :          36         37         38         39         40         41         42         43
 occ. :        2.000      2.000      2.000      2.000      2.000      0.000      0.000      0.000
 eps  :        -9.715     -9.458     -9.266     -8.718     -8.664     -1.815     -0.687     -0.332
 #    :          44         45         46         47         48         49         50         51
 occ. :        0.000      0.000      0.000      0.000      0.000      0.000      0.000      0.000
 eps  :         0.736      1.424      2.517      2.889      2.910      2.993      3.378      4.835


   #   Z            q   n(s)   n(p)   n(d)      C6AA      α(0)
   1  16 S      1.459  1.608  1.924  1.010    94.468    16.359
   2   8 O     -0.797  1.777  5.020  0.000    31.491     7.524
   3   8 O     -0.754  1.793  4.960  0.000    30.214     7.370
   4   8 O     -0.804  1.768  5.036  0.000    31.691     7.548
   5   8 O     -0.799  1.773  5.025  0.000    31.548     7.531
   6   8 O     -0.877  1.820  5.057  0.000    33.903     7.810
   7   1 H      0.187  0.813  0.000  0.000     1.190     1.714
   8   8 O     -0.839  1.824  5.014  0.000    32.738     7.673
   9   1 H      0.214  0.786  0.000  0.000     1.052     1.611
  10   8 O     -0.425  1.656  4.769  0.000    21.289     6.232
  11   1 H      0.410  0.590  0.000  0.000     0.459     1.061
  12   1 H      0.359  0.641  0.000  0.000     0.567     1.184
  13   1 H      0.407  0.593  0.000  0.000     0.473     1.080
  14   8 O     -0.494  1.672  4.822  0.000    22.702     6.435
  15   1 H      0.380  0.620  0.000  0.000     0.519     1.129
  16   1 H      0.383  0.617  0.000  0.000     0.517     1.130
  17   1 H      0.393  0.607  0.000  0.000     0.490     1.095
  18   8 O     -0.422  1.646  4.776  0.000    21.227     6.222
  19   1 H      0.403  0.597  0.000  0.000     0.480     1.088
  20   1 H      0.407  0.593  0.000  0.000     0.467     1.071
  21   1 H      0.389  0.611  0.000  0.000     0.505     1.117
  22   7 N     -0.288  1.254  4.034  0.000    27.411     7.776
  23   1 H      0.304  0.696  0.000  0.000     0.700     1.311
  24   1 H      0.261  0.739  0.000  0.000     0.842     1.438
  25   1 H      0.313  0.687  0.000  0.000     0.675     1.287
  26   1 H      0.230  0.770  0.000  0.000     0.964     1.538

 Mol. C6AA /au·bohr⁶  :       5552.193385
 Mol. C8AA /au·bohr⁸  :     120914.931091
 Mol. α(0) /au        :        107.332229

 
 Wiberg/Mayer (AO) data. WBOs > 0.1 written file <wbo>
 largest (>0.05) Wiberg bond orders for each atom
           total WBO             WBO to atom ...
     1  S   5.038    O    3 1.361    O    5 1.238    O    4 1.217    O    2 1.190
     2  O   1.699    S    1 1.190    O    3 0.093    O    5 0.092    H   19 0.086    O    4 0.081    H   23 0.078
     3  O   1.667    S    1 1.361    O    4 0.101    O    5 0.098    O    2 0.093
     4  O   1.665    S    1 1.217    H   13 0.111    O    3 0.101    O    5 0.095    O    2 0.081
     5  O   1.659    S    1 1.238    O    3 0.098    O    4 0.095    H   16 0.093    O    2 0.092
     6  O   1.508    H    7 0.951    H   11 0.218    H   17 0.196    O   10 0.065    O   14 0.061
     7  H   0.965    O    6 0.951
     8  O   1.647    H    9 0.946    H   20 0.196    H   15 0.163    H   25 0.144    N   22 0.064    O   18 0.062    O   14 0.057
     9  H   0.954    O    8 0.946
    10  O   2.299    H   12 0.862    H   13 0.713    H   11 0.607    O    6 0.065
    11  H   0.832    O   10 0.607    O    6 0.218
    12  H   0.871    O   10 0.862
    13  H   0.835    O   10 0.713    O    4 0.111
    14  O   2.250    H   16 0.749    H   15 0.688    H   17 0.642    O    6 0.061    O    8 0.057
    15  H   0.856    O   14 0.688    O    8 0.163
    16  H   0.853    O   14 0.749    O    5 0.093
    17  H   0.845    O   14 0.642    O    6 0.196
    18  O   2.313    H   21 0.830    H   19 0.742    H   20 0.634    O    8 0.062
    19  H   0.838    O   18 0.742    O    2 0.086
    20  H   0.835    O   18 0.634    O    8 0.196
    21  H   0.849    O   18 0.830
    22  N   3.555    H   26 0.942    H   24 0.925    H   23 0.821    H   25 0.754    O    8 0.064
    23  H   0.907    N   22 0.821    O    2 0.078
    24  H   0.932    N   22 0.925
    25  H   0.902    N   22 0.754    O    8 0.144
    26  H   0.947    N   22 0.942
 MOs/occ written to file <molden.input>
 
molecular dipole:
                 x           y           z       tot (Debye)
 q only:        2.696      -1.626       2.337
   full:        2.677      -1.613       2.471      10.127
molecular quadrupole (traceless):
                xx          xy          yy          xz          yz          zz
 q only:       19.524      19.375     -18.955       5.339      32.056      -0.569
  q+dip:       18.688      19.359     -16.013       6.783      29.950      -2.675
   full:       18.696      19.416     -15.816       6.994      29.762      -2.880

SCC energy    :     -50.5732616
rep           :       0.2686431
ES            :       0.4167579
AES           :      -0.0772882
AXC           :      -0.0095582
disp          :      -0.0193701
XB            :       0.0000000
fix           :       0.0000000
total E       :     -50.3042802
atomizationE  :       4.8345843     3033.75
(atE without considering molecular charge,
 total energy contains solvation terms)
H-L gap (eV)  :          6.8495
           ------------------------------------------------- 
          |                 ===============                 |
          |                   A N C O P T                   |
          |                 ===============                 |
          |          Approximate Normal Coordinate          |
          |           Rational Function Optimizer           |
           ------------------------------------------------- 
dumping coords to <xtbopt.coord> and <xtbopt.log>
 optlevel               2
 Maxcycle             520
 Maxmicro              25
 Econv         1.000000000000000E-007
 Gconv         2.000000000000000E-004
 Maxdispl       1.00000000000000     
 Hlow          5.000000000000000E-003
 S6             20.0000000000000     
 Nvar               72

generating ANC from model Hessian ...
 Shifting diagonal of input Hessian by   5.057237425175241E-003
 Lowest  eigenvalues of input Hessian
    0.005000   -0.000000   -0.000000   -0.000000    0.000000    0.000000
    0.000000    0.005480    0.006003    0.006318    0.006901    0.006967
    0.007608    0.007796    0.008298    0.008707    0.009366    0.009668
 Highest eigenvalues
    1.585096    1.591475    1.603812    3.078564    3.083667    3.087433
 
cpu  time for ANC gen    0.02 s
wall time for ANC gen    0.02 s
................................................................................
.............................. CYCLE    1 ......................................
................................................................................
   1    -50.5732616 -0.505733E+02  0.111E-04    6.85       0.0  T
   2    -50.5732616 -0.295373E-10  0.859E-05    6.85     228.2  T
   3    -50.5732616 -0.263043E-10  0.428E-05    6.85     458.1  T
speedup  1.03
cpu  time for SCC    0.00 s
wall time for SCC    0.00 s
speedup  1.04
cpu  time for grad    0.01 s
wall time for grad    0.01 s
 E :    -50.30428015  G :  0.237013    pred/act E change:  0.000D+00  0.169D-07
Maxdispl :   0.1466   ||displ|| :   0.4304   Lambda : -0.587D-01
Largest |displ|/coords:  0.1466 (  16)  0.1466 (  27)  0.1250 (  22)
................................................................................
.............................. CYCLE    2 ......................................
................................................................................
   1    -50.5953503 -0.505954E+02  0.374E-01    6.98       0.0  T
   2    -50.5959380 -0.587690E-03  0.273E-01    7.13       1.0  T
   3    -50.5961942 -0.256177E-03  0.114E-01    7.37       1.0  T
   4    -50.5962136 -0.194250E-04  0.336E-02    7.39       1.0  T
   5    -50.5962167 -0.314193E-05  0.954E-03    7.38       2.1  T
   6    -50.5962169 -0.162194E-06  0.502E-03    7.38       3.9  T
   7    -50.5962170 -0.896812E-07  0.217E-03    7.38       9.0  T
speedup  1.13
cpu  time for SCC    0.01 s
wall time for SCC    0.01 s
speedup  1.03
cpu  time for grad    0.01 s
wall time for grad    0.01 s
 E :    -50.35259133  G :  0.147800    pred/act E change:  0.000D+00 -0.483D-01
Maxdispl :   0.1836   ||displ|| :   0.4969   Lambda : -0.351D-01
Largest |displ|/coords:  0.1836 (  16)  0.1772 (  27)  0.1663 (  18)
................................................................................
.............................. CYCLE    3 ......................................
................................................................................
   1    -50.6097206 -0.506097E+02  0.377E-01    7.57       0.0  T
   2    -50.6105205 -0.799827E-03  0.269E-01    7.71       1.0  T
   3    -50.6108661 -0.345662E-03  0.121E-01    7.92       1.0  T
   4    -50.6108849 -0.187697E-04  0.376E-02    7.95       1.0  T
   5    -50.6108876 -0.270051E-05  0.104E-02    7.96       1.9  T
   6    -50.6108878 -0.239160E-06  0.589E-03    7.95       3.3  T
   7    -50.6108880 -0.129261E-06  0.257E-03    7.95       7.6  T
speedup  0.95
cpu  time for SCC    0.01 s
wall time for SCC    0.01 s
speedup  0.97
cpu  time for grad    0.01 s
wall time for grad    0.01 s
 E :    -50.38136150  G :  0.098156    pred/act E change: -0.348D-01 -0.288D-01
Maxdispl :   0.1702   ||displ|| :   0.4715   Lambda : -0.188D-01
Largest |displ|/coords:  0.1702 (  18)  0.1486 (  16)  0.1384 (  27)
................................................................................
.............................. CYCLE    4 ......................................
................................................................................
   1    -50.6162032 -0.506162E+02  0.354E-01    8.09       0.0  T
   2    -50.6170491 -0.845930E-03  0.247E-01    8.20       1.0  T
   3    -50.6174068 -0.357627E-03  0.117E-01    8.34       1.0  T
   4    -50.6174222 -0.154622E-04  0.369E-02    8.37       1.0  T
   5    -50.6174246 -0.238296E-05  0.990E-03    8.38       2.0  T
   6    -50.6174248 -0.223899E-06  0.569E-03    8.37       3.4  T
   7    -50.6174250 -0.112492E-06  0.232E-03    8.37       8.4  T
speedup  0.97
cpu  time for SCC    0.01 s
wall time for SCC    0.01 s
speedup  0.98
cpu  time for grad    0.01 s
wall time for grad    0.01 s
 E :    -50.39553278  G :  0.068383    pred/act E change: -0.219D-01 -0.142D-01
Maxdispl :   0.1696   ||displ|| :   0.4070   Lambda : -0.808D-02
Largest |displ|/coords:  0.1696 (   8)  0.1600 (   5)  0.1310 (   4)
................................................................................
.............................. CYCLE    5 ......................................
................................................................................
   1    -50.6184134 -0.506184E+02  0.360E-01    8.40       0.0  T
   2    -50.6187979 -0.384527E-03  0.259E-01    8.45       1.0  T
   3    -50.6189562 -0.158253E-03  0.937E-02    8.52       1.0  T
   4    -50.6189758 -0.196632E-04  0.202E-02    8.52       1.0  T
   5    -50.6189776 -0.179850E-05  0.618E-03    8.52       3.2  T
   6    -50.6189777 -0.641835E-07  0.364E-03    8.52       5.4  T
   7    -50.6189777 -0.319465E-07  0.120E-03    8.51      16.4  T
speedup  0.97
cpu  time for SCC    0.01 s
wall time for SCC    0.01 s
speedup  0.98
cpu  time for grad    0.01 s
wall time for grad    0.01 s
 E :    -50.40190266  G :  0.055622    pred/act E change: -0.115D-01 -0.637D-02
Maxdispl :   0.1257   ||displ|| :   0.2732   Lambda : -0.489D-02
Largest |displ|/coords:  0.1257 (   4)  0.1163 (   8)  0.1062 (  15)
................................................................................
.............................. CYCLE    6 ......................................
................................................................................
   1    -50.6244623 -0.506245E+02  0.198E-01    8.57       0.0  T
   2    -50.6246361 -0.173713E-03  0.140E-01    8.59       1.0  T
   3    -50.6247115 -0.754854E-04  0.590E-02    8.62       1.0  T
   4    -50.6247166 -0.505727E-05  0.131E-02    8.61       1.5  T
   5    -50.6247171 -0.510808E-06  0.416E-03    8.61       4.7  T
   6    -50.6247171 -0.272229E-07  0.228E-03    8.61       8.6  T
speedup  0.93
cpu  time for SCC    0.01 s
wall time for SCC    0.01 s
speedup  0.96
cpu  time for grad    0.01 s
wall time for grad    0.01 s
 E :    -50.40593634  G :  0.043759    pred/act E change: -0.471D-02 -0.403D-02
Maxdispl :   0.2047   ||displ|| :   0.5705   Lambda : -0.120D-01
Largest |displ|/coords:  0.2047 (  10)  0.1818 (   4)  0.1651 (   5)
................................................................................
.............................. CYCLE    7 ......................................
................................................................................
   1    -50.6269821 -0.506270E+02  0.781E-01    8.67       0.0  T
   2    -50.6290417 -0.205960E-02  0.548E-01    8.69       1.0  T
   3    -50.6299030 -0.861230E-03  0.209E-01    8.68       1.0  T
   4    -50.6299814 -0.784399E-04  0.449E-02    8.65       1.0  T
   5    -50.6299872 -0.580808E-05  0.167E-02    8.65       1.2  T
   6    -50.6299880 -0.790482E-06  0.865E-03    8.65       2.3  T
   7    -50.6299881 -0.107182E-06  0.204E-03    8.65       9.6  T
   8    -50.6299881 -0.984647E-08  0.621E-04    8.65      31.6  T
speedup  0.99
cpu  time for SCC    0.01 s
wall time for SCC    0.01 s
speedup  0.99
cpu  time for grad    0.01 s
wall time for grad    0.02 s
 E :    -50.40975933  G :  0.082165    pred/act E change: -0.263D-02 -0.382D-02
Maxdispl :   0.2650   ||displ|| :   0.5650   Lambda : -0.207D-01
Largest |displ|/coords:  0.2650 (  10)  0.2195 (  11)  0.1883 (   1)
................................................................................
.............................. CYCLE    8 ......................................
................................................................................
   1    -50.6523737 -0.506524E+02  0.884E-01    8.65       0.0  T
   2    -50.6529679 -0.594111E-03  0.662E-01    8.64       1.0  T
   3    -50.6533780 -0.410097E-03  0.136E-01    8.60       1.0  T
   4    -50.6534503 -0.723840E-04  0.307E-02    8.60       1.0  T
   5    -50.6534523 -0.196901E-05  0.148E-02    8.60       1.3  T
   6    -50.6534524 -0.100396E-06  0.683E-03    8.60       2.9  T
   7    -50.6534526 -0.169964E-06  0.120E-03    8.60      16.4  T
   8    -50.6534526 -0.688308E-08  0.369E-04    8.60      53.2  T
speedup  0.99
cpu  time for SCC    0.01 s
wall time for SCC    0.01 s
speedup  0.99
cpu  time for grad    0.01 s
wall time for grad    0.02 s
 E :    -50.40530633  G :  0.138934    pred/act E change: -0.794D-02  0.445D-02
Maxdispl :   0.1197   ||displ|| :   0.3377   Lambda : -0.167D-01
Largest |displ|/coords:  0.1197 (  25)  0.1087 (  15)  0.1047 (  12)
................................................................................
.............................. CYCLE    9 ......................................
................................................................................
   1    -50.6393553 -0.506394E+02  0.346E-01    8.62       0.0  T
   2    -50.6395097 -0.154348E-03  0.258E-01    8.61       1.0  T
   3    -50.6395929 -0.832619E-04  0.679E-02    8.62       1.0  T
   4    -50.6396084 -0.154877E-04  0.209E-02    8.63       1.0  T
   5    -50.6396096 -0.118785E-05  0.609E-03    8.63       3.2  T
   6    -50.6396097 -0.713649E-07  0.332E-03    8.63       5.9  T
   7    -50.6396097 -0.264527E-07  0.108E-03    8.63      18.1  T
speedup  0.97
cpu  time for SCC    0.01 s
wall time for SCC    0.01 s
speedup  0.98
cpu  time for grad    0.01 s
wall time for grad    0.01 s
 E :    -50.41341038  G :  0.037930    pred/act E change: -0.137D-01 -0.810D-02
Maxdispl :   0.1335   ||displ|| :   0.3499   Lambda : -0.601D-02
Largest |displ|/coords:  0.1335 (  22)  0.1047 (   4)  0.1039 (   5)
................................................................................
.............................. CYCLE   10 ......................................
................................................................................
   1    -50.6393465 -0.506393E+02  0.407E-01    8.62       0.0  T
   2    -50.6397321 -0.385598E-03  0.297E-01    8.61       1.0  T
   3    -50.6399253 -0.193223E-03  0.102E-01    8.60       1.0  T
   4    -50.6399525 -0.271993E-04  0.256E-02    8.58       1.0  T
   5    -50.6399541 -0.156458E-05  0.806E-03    8.59       2.4  T
   6    -50.6399542 -0.814510E-07  0.497E-03    8.59       3.9  T
   7    -50.6399542 -0.255565E-07  0.101E-03    8.59      19.4  T
speedup  0.95
cpu  time for SCC    0.01 s
wall time for SCC    0.01 s
speedup  1.04
cpu  time for grad    0.01 s
wall time for grad    0.01 s
 E :    -50.41569323  G :  0.065201    pred/act E change: -0.931D-02 -0.228D-02
Maxdispl :   0.1243   ||displ|| :   0.2778   Lambda : -0.542D-02
Largest |displ|/coords:  0.1243 (   1)  0.0838 (   4)  0.0794 (   3)
................................................................................
.............................. CYCLE   11 ......................................
................................................................................
   1    -50.6501826 -0.506502E+02  0.344E-01    8.62       0.0  T
   2    -50.6503607 -0.178079E-03  0.253E-01    8.61       1.0  T
   3    -50.6504629 -0.102203E-03  0.707E-02    8.60       1.0  T
   4    -50.6504810 -0.180908E-04  0.143E-02    8.60       1.4  T
   5    -50.6504814 -0.411243E-06  0.700E-03    8.60       2.8  T
   6    -50.6504814 -0.402693E-07  0.324E-03    8.60       6.0  T
   7    -50.6504815 -0.221453E-07  0.707E-04    8.60      27.7  T
speedup  0.98
cpu  time for SCC    0.01 s
wall time for SCC    0.01 s
speedup  0.99
cpu  time for grad    0.01 s
wall time for grad    0.01 s
 E :    -50.41724812  G :  0.039866    pred/act E change: -0.337D-02 -0.155D-02
Maxdispl :   0.0714   ||displ|| :   0.2012   Lambda : -0.287D-02
Largest |displ|/coords:  0.0714 (   4)  0.0670 (   2)  0.0653 (  12)
................................................................................
.............................. CYCLE   12 ......................................
................................................................................
   1    -50.6541545 -0.506542E+02  0.161E-01    8.64       0.0  T
   2    -50.6541899 -0.353578E-04  0.121E-01    8.64       1.0  T
   3    -50.6542108 -0.209451E-04  0.339E-02    8.64       1.0  T
   4    -50.6542151 -0.428550E-05  0.105E-02    8.64       1.9  T
   5    -50.6542153 -0.222343E-06  0.342E-03    8.64       5.7  T
   6    -50.6542153 -0.101763E-07  0.187E-03    8.64      10.5  T
speedup  0.94
cpu  time for SCC    0.01 s
wall time for SCC    0.01 s
speedup  0.96
cpu  time for grad    0.01 s
wall time for grad    0.01 s
 E :    -50.41985428  G :  0.035697    pred/act E change: -0.292D-02 -0.261D-02
Maxdispl :   0.2017   ||displ|| :   0.5903   Lambda : -0.103D-01
Largest |displ|/coords:  0.2017 (  12)  0.1554 (   2)  0.1553 (  68)
................................................................................
.............................. CYCLE   13 ......................................
................................................................................
   1    -50.6725419 -0.506725E+02  0.528E-01    8.74       0.0  T
   2    -50.6728429 -0.300980E-03  0.397E-01    8.73       1.0  T
   3    -50.6730470 -0.204142E-03  0.102E-01    8.70       1.0  T
   4    -50.6730847 -0.376740E-04  0.369E-02    8.71       1.0  T
   5    -50.6730869 -0.217615E-05  0.114E-02    8.71       1.7  T
   6    -50.6730871 -0.165336E-06  0.632E-03    8.71       3.1  T
   7    -50.6730871 -0.539384E-07  0.152E-03    8.71      12.9  T
   8    -50.6730871 -0.542042E-08  0.392E-04    8.71      50.0  T
speedup  0.99
cpu  time for SCC    0.01 s
wall time for SCC    0.01 s
speedup  0.99
cpu  time for grad    0.01 s
wall time for grad    0.02 s
 E :    -50.42470004  G :  0.069226    pred/act E change: -0.149D-02 -0.485D-02
Maxdispl :   0.1513   ||displ|| :   0.3019   Lambda : -0.651D-02
Largest |displ|/coords:  0.1513 (   6)  0.1225 (   2)  0.0904 (   1)
................................................................................
.............................. CYCLE   14 ......................................
................................................................................
   1    -50.6681541 -0.506682E+02  0.328E-01    8.66       0.0  T
   2    -50.6682597 -0.105516E-03  0.243E-01    8.68       1.0  T
   3    -50.6683279 -0.682359E-04  0.578E-02    8.71       1.0  T
   4    -50.6683398 -0.118895E-04  0.151E-02    8.70       1.3  T
   5    -50.6683402 -0.449579E-06  0.651E-03    8.70       3.0  T
   6    -50.6683403 -0.375075E-07  0.309E-03    8.70       6.4  T
   7    -50.6683403 -0.227838E-07  0.645E-04    8.70      30.4  T
speedup  0.97
cpu  time for SCC    0.01 s
wall time for SCC    0.01 s
speedup  0.98
cpu  time for grad    0.01 s
wall time for grad    0.01 s
 E :    -50.42711108  G :  0.039784    pred/act E change: -0.692D-02 -0.241D-02
Maxdispl :   0.1323   ||displ|| :   0.3022   Lambda : -0.388D-02
Largest |displ|/coords:  0.1323 (   2)  0.0910 (  31)  0.0908 (  12)
................................................................................
.............................. CYCLE   15 ......................................
................................................................................
   1    -50.6827782 -0.506828E+02  0.187E-01    8.74       0.0  T
   2    -50.6828417 -0.635145E-04  0.140E-01    8.74       1.0  T
   3    -50.6828817 -0.400275E-04  0.465E-02    8.75       1.0  T
   4    -50.6828880 -0.626367E-05  0.177E-02    8.76       1.1  T
   5    -50.6828885 -0.519608E-06  0.506E-03    8.76       3.9  T
   6    -50.6828886 -0.293233E-07  0.256E-03    8.76       7.7  T
speedup  0.91
cpu  time for SCC    0.00 s
wall time for SCC    0.01 s
speedup  0.96
cpu  time for grad    0.01 s
wall time for grad    0.01 s
 E :    -50.43011914  G :  0.038019    pred/act E change: -0.355D-02 -0.301D-02
Maxdispl :   0.2506   ||displ|| :   0.6079   Lambda : -0.720D-02
Largest |displ|/coords:  0.2506 (   2)  0.2203 (  31)  0.1865 (  22)
................................................................................
.............................. CYCLE   16 ......................................
................................................................................
   1    -50.7070769 -0.507071E+02  0.397E-01    8.84       0.0  T
   2    -50.7074228 -0.345957E-03  0.297E-01    8.84       1.0  T
   3    -50.7076280 -0.205148E-03  0.108E-01    8.85       1.0  T
   4    -50.7076590 -0.310001E-04  0.405E-02    8.86       1.0  T
   5    -50.7076621 -0.308470E-05  0.120E-02    8.86       1.6  T
   6    -50.7076622 -0.149494E-06  0.598E-03    8.86       3.3  T
   7    -50.7076623 -0.385602E-07  0.158E-03    8.86      12.4  T
speedup  0.97
cpu  time for SCC    0.01 s
wall time for SCC    0.01 s
speedup  0.98
cpu  time for grad    0.01 s
wall time for grad    0.01 s
 E :    -50.43438197  G :  0.058892    pred/act E change: -0.212D-02 -0.426D-02
Maxdispl :   0.0837   ||displ|| :   0.2558   Lambda : -0.589D-02
Largest |displ|/coords:  0.0837 (  29)  0.0826 (  22)  0.0733 (  24)
................................................................................
.............................. CYCLE   17 ......................................
................................................................................
   1    -50.7018112 -0.507018E+02  0.203E-01    8.81       0.0  T
   2    -50.7018660 -0.547911E-04  0.149E-01    8.83       1.0  T
   3    -50.7019002 -0.341322E-04  0.411E-02    8.87       1.0  T
   4    -50.7019048 -0.458637E-05  0.147E-02    8.87       1.3  T
   5    -50.7019053 -0.538490E-06  0.413E-03    8.86       4.7  T
   6    -50.7019053 -0.213241E-07  0.230E-03    8.86       8.5  T
speedup  1.13
cpu  time for SCC    0.01 s
wall time for SCC    0.01 s
speedup  1.04
cpu  time for grad    0.01 s
wall time for grad    0.01 s
 E :    -50.43745722  G :  0.049030    pred/act E change: -0.493D-02 -0.308D-02
Maxdispl :   0.1826   ||displ|| :   0.5025   Lambda : -0.549D-02
Largest |displ|/coords:  0.1826 (   2)  0.1575 (  22)  0.1574 (  31)
................................................................................
.............................. CYCLE   18 ......................................
................................................................................
   1    -50.7187612 -0.507188E+02  0.323E-01    8.95       0.0  T
   2    -50.7190624 -0.301257E-03  0.241E-01    8.96       1.0  T
   3    -50.7192199 -0.157494E-03  0.993E-02    8.98       1.0  T
   4    -50.7192397 -0.197773E-04  0.340E-02    9.00       1.0  T
   5    -50.7192421 -0.236423E-05  0.101E-02    8.99       1.9  T
   6    -50.7192422 -0.132656E-06  0.517E-03    8.99       3.8  T
   7    -50.7192422 -0.365361E-07  0.162E-03    8.99      12.1  T
speedup  0.97
cpu  time for SCC    0.01 s
wall time for SCC    0.01 s
speedup  0.99
cpu  time for grad    0.01 s
wall time for grad    0.01 s
 E :    -50.44129761  G :  0.041684    pred/act E change: -0.314D-02 -0.384D-02
Maxdispl :   0.1686   ||displ|| :   0.4328   Lambda : -0.651D-02
Largest |displ|/coords:  0.1686 (  29)  0.1645 (  23)  0.1411 (  28)
................................................................................
.............................. CYCLE   19 ......................................
................................................................................
   1    -50.7188133 -0.507188E+02  0.273E-01    8.94       0.0  T
   2    -50.7189187 -0.105422E-03  0.199E-01    8.93       1.0  T
   3    -50.7189763 -0.576069E-04  0.604E-02    8.94       1.0  T
   4    -50.7189843 -0.802814E-05  0.224E-02    8.95       1.0  T
   5    -50.7189852 -0.884218E-06  0.550E-03    8.94       3.6  T
   6    -50.7189853 -0.448391E-07  0.338E-03    8.94       5.8  T
speedup  1.09
cpu  time for SCC    0.01 s
wall time for SCC    0.01 s
speedup  1.04
cpu  time for grad    0.01 s
wall time for grad    0.01 s
 E :    -50.44328807  G :  0.048294    pred/act E change: -0.344D-02 -0.199D-02
Maxdispl :   0.1336   ||displ|| :   0.3444   Lambda : -0.475D-02
Largest |displ|/coords:  0.1336 (  22)  0.1134 (  12)  0.1033 (  16)
................................................................................
.............................. CYCLE   20 ......................................
................................................................................
   1    -50.7224526 -0.507225E+02  0.285E-01    8.92       0.0  T
   2    -50.7225398 -0.871210E-04  0.215E-01    8.92       1.0  T
   3    -50.7226034 -0.636039E-04  0.527E-02    8.89       1.0  T
   4    -50.7226134 -0.100136E-04  0.168E-02    8.89       1.2  T
   5    -50.7226140 -0.668809E-06  0.680E-03    8.89       2.9  T
   6    -50.7226141 -0.548608E-07  0.315E-03    8.89       6.2  T
   7    -50.7226141 -0.182348E-07  0.830E-04    8.89      23.6  T
speedup  0.97
cpu  time for SCC    0.01 s
wall time for SCC    0.01 s
speedup  0.99
cpu  time for grad    0.01 s
wall time for grad    0.01 s
 E :    -50.44446439  G :  0.040867    pred/act E change: -0.387D-02 -0.118D-02
Maxdispl :   0.1679   ||displ|| :   0.3367   Lambda : -0.402D-02
Largest |displ|/coords:  0.1679 (   8)  0.1244 (   4)  0.1079 (  16)
................................................................................
.............................. CYCLE   21 ......................................
................................................................................
   1    -50.7348113 -0.507348E+02  0.258E-01    8.97       0.0  T
   2    -50.7348568 -0.455005E-04  0.194E-01    8.97       1.0  T
   3    -50.7348962 -0.393476E-04  0.399E-02    8.96       1.0  T
   4    -50.7349015 -0.537135E-05  0.139E-02    8.96       1.4  T
   5    -50.7349018 -0.285050E-06  0.476E-03    8.96       4.1  T
   6    -50.7349019 -0.208570E-07  0.248E-03    8.96       7.9  T
speedup  0.74
cpu  time for SCC    0.00 s
wall time for SCC    0.01 s
speedup  0.89
cpu  time for grad    0.01 s
wall time for grad    0.01 s
 E :    -50.44554533  G :  0.034887    pred/act E change: -0.266D-02 -0.108D-02
Maxdispl :   0.1005   ||displ|| :   0.2482   Lambda : -0.293D-02
Largest |displ|/coords:  0.1005 (  21)  0.0926 (  20)  0.0918 (  18)
................................................................................
.............................. CYCLE   22 ......................................
................................................................................
   1    -50.7291391 -0.507291E+02  0.219E-01    9.01       0.0  T
   2    -50.7291871 -0.479623E-04  0.163E-01    9.01       1.0  T
   3    -50.7292227 -0.356389E-04  0.411E-02    9.02       1.0  T
   4    -50.7292280 -0.525851E-05  0.118E-02    9.01       1.7  T
   5    -50.7292282 -0.253813E-06  0.437E-03    9.02       4.5  T
   6    -50.7292282 -0.140318E-07  0.220E-03    9.02       8.9  T
speedup  0.93
cpu  time for SCC    0.00 s
wall time for SCC    0.01 s
speedup  0.97
cpu  time for grad    0.01 s
wall time for grad    0.01 s
 E :    -50.44606594  G :  0.036428    pred/act E change: -0.224D-02 -0.521D-03
Maxdispl :   0.0594   ||displ|| :   0.1727   Lambda : -0.184D-02
Largest |displ|/coords:  0.0594 (   1)  0.0546 (   9)  0.0492 (  13)
................................................................................
.............................. CYCLE   23 ......................................
................................................................................
   1    -50.7231333 -0.507231E+02  0.149E-01    8.96       0.0  T
   2    -50.7231676 -0.342961E-04  0.109E-01    8.95       1.0  T
   3    -50.7231821 -0.144708E-04  0.322E-02    8.95       1.0  T
   4    -50.7231857 -0.362636E-05  0.107E-02    8.95       1.8  T
   5    -50.7231859 -0.187883E-06  0.261E-03    8.95       7.5  T
   6    -50.7231859 -0.918829E-08  0.151E-03    8.95      13.0  T
speedup  0.94
cpu  time for SCC    0.01 s
wall time for SCC    0.01 s
speedup  0.98
cpu  time for grad    0.01 s
wall time for grad    0.01 s
 E :    -50.44696148  G :  0.013329    pred/act E change: -0.155D-02 -0.896D-03
Maxdispl :   0.0512   ||displ|| :   0.1375   Lambda : -0.684D-03
Largest |displ|/coords:  0.0512 (   1)  0.0500 (   3)  0.0405 (  17)
................................................................................
.............................. CYCLE   24 ......................................
................................................................................
   1    -50.7309039 -0.507309E+02  0.875E-02    8.98       0.0  T
   2    -50.7309164 -0.125592E-04  0.646E-02    8.98       1.0  T
   3    -50.7309231 -0.664386E-05  0.201E-02    8.98       1.0  T
   4    -50.7309243 -0.124343E-05  0.621E-03    8.98       3.2  T
   5    -50.7309244 -0.734492E-07  0.190E-03    8.98      10.3  T
   6    -50.7309244 -0.381191E-08  0.109E-03    8.98      18.0  T
speedup  0.93
cpu  time for SCC    0.00 s
wall time for SCC    0.01 s
speedup  0.96
cpu  time for grad    0.01 s
wall time for grad    0.01 s
 E :    -50.44728239  G :  0.012357    pred/act E change: -0.949D-03 -0.321D-03
Maxdispl :   0.0679   ||displ|| :   0.1644   Lambda : -0.482D-03
Largest |displ|/coords:  0.0679 (   1)  0.0617 (   9)  0.0583 (   3)
................................................................................
.............................. CYCLE   25 ......................................
................................................................................
   1    -50.7310422 -0.507310E+02  0.865E-02    9.00       0.0  T
   2    -50.7310449 -0.270677E-05  0.651E-02    9.00       1.0  T
   3    -50.7310466 -0.169770E-05  0.958E-03    9.01       2.0  T
   4    -50.7310470 -0.406407E-06  0.312E-03    9.01       6.3  T
   5    -50.7310470 -0.152886E-07  0.105E-03    9.01      18.7  T
   6    -50.7310470 -0.138118E-08  0.623E-04    9.01      31.5  T
speedup  0.91
cpu  time for SCC    0.00 s
wall time for SCC    0.01 s
speedup  0.95
cpu  time for grad    0.01 s
wall time for grad    0.01 s
 E :    -50.44759621  G :  0.010787    pred/act E change: -0.349D-03 -0.314D-03
Maxdispl :   0.1437   ||displ|| :   0.2735   Lambda : -0.663D-03
Largest |displ|/coords:  0.1437 (   1)  0.0766 (   3)  0.0669 (  31)

generating ANC from model Hessian ...
 Shifting diagonal of input Hessian by   5.142186368252225E-003
 Lowest  eigenvalues of input Hessian
    0.005000   -0.000000   -0.000000   -0.000000    0.000000    0.000000
    0.000000    0.005415    0.005676    0.005751    0.006150    0.006679
    0.007387    0.007666    0.008441    0.008552    0.009140    0.010175
 Highest eigenvalues
    1.407187    1.426038    1.442195    2.637018    3.203626    3.716922
 
cpu  time for ANC gen    0.02 s
wall time for ANC gen    0.02 s
................................................................................
.............................. CYCLE   26 ......................................
................................................................................
   1    -50.7298153 -0.507298E+02  0.130E-01    9.01       0.0  T
   2    -50.7298303 -0.149660E-04  0.983E-02    9.01       1.0  T
   3    -50.7298365 -0.620366E-05  0.273E-02    9.01       1.0  T
   4    -50.7298386 -0.212605E-05  0.816E-03    9.00       2.4  T
   5    -50.7298387 -0.984247E-07  0.184E-03    9.00      10.7  T
   6    -50.7298387 -0.378184E-08  0.110E-03    9.00      17.8  T
   7    -50.7298387 -0.209320E-08  0.325E-04    9.00      60.4  T
   8    -50.7298387 -0.295984E-09  0.101E-04    9.00     194.6  T
speedup  0.97
cpu  time for SCC    0.01 s
wall time for SCC    0.01 s
speedup  1.01
cpu  time for grad    0.02 s
wall time for grad    0.02 s
 E :    -50.44793826  G :  0.011766    pred/act E change:  0.000D+00 -0.342D-03
Maxdispl :   0.0880   ||displ|| :   0.1814   Lambda : -0.493D-03
Largest |displ|/coords:  0.0880 (   1)  0.0708 (   4)  0.0561 (   8)
................................................................................
.............................. CYCLE   27 ......................................
................................................................................
   1    -50.7306889 -0.507307E+02  0.116E-01    9.04       0.0  T
   2    -50.7306913 -0.237898E-05  0.876E-02    9.04       1.0  T
   3    -50.7306933 -0.199869E-05  0.900E-03    9.03       2.2  T
   4    -50.7306936 -0.299630E-06  0.302E-03    9.03       6.5  T
   5    -50.7306936 -0.141073E-07  0.121E-03    9.03      16.2  T
   6    -50.7306936 -0.136680E-08  0.633E-04    9.03      31.0  T
speedup  1.11
cpu  time for SCC    0.01 s
wall time for SCC    0.01 s
speedup  1.04
cpu  time for grad    0.01 s
wall time for grad    0.01 s
 E :    -50.44829373  G :  0.007195    pred/act E change:  0.000D+00 -0.355D-03
Maxdispl :   0.2323   ||displ|| :   0.3473   Lambda : -0.601D-03
Largest |displ|/coords:  0.2323 (   1)  0.0907 (  21)  0.0892 (  17)
................................................................................
.............................. CYCLE   28 ......................................
................................................................................
   1    -50.7307569 -0.507308E+02  0.236E-01    9.08       0.0  T
   2    -50.7307648 -0.791620E-05  0.179E-01    9.08       1.0  T
   3    -50.7307738 -0.902193E-05  0.154E-02    9.08       1.3  T
   4    -50.7307744 -0.549164E-06  0.605E-03    9.08       3.2  T
   5    -50.7307744 -0.345665E-07  0.204E-03    9.08       9.6  T
   6    -50.7307744 -0.368701E-08  0.111E-03    9.08      17.7  T
speedup  1.11
cpu  time for SCC    0.01 s
wall time for SCC    0.01 s
speedup  1.04
cpu  time for grad    0.01 s
wall time for grad    0.01 s
 E :    -50.44861324  G :  0.010499    pred/act E change: -0.255D-03 -0.320D-03
Maxdispl :   0.1722   ||displ|| :   0.2964   Lambda : -0.443D-03
Largest |displ|/coords:  0.1722 (   1)  0.0983 (   4)  0.0923 (   6)
................................................................................
.............................. CYCLE   29 ......................................
................................................................................
   1    -50.7314284 -0.507314E+02  0.153E-01    9.10       0.0  T
   2    -50.7314306 -0.221368E-05  0.115E-01    9.10       1.0  T
   3    -50.7314330 -0.232572E-05  0.899E-03    9.09       2.2  T
   4    -50.7314332 -0.207440E-06  0.353E-03    9.09       5.6  T
   5    -50.7314332 -0.127597E-07  0.132E-03    9.09      14.9  T
   6    -50.7314332 -0.161922E-08  0.672E-04    9.09      29.2  T
speedup  1.09
cpu  time for SCC    0.01 s
wall time for SCC    0.01 s
speedup  1.04
cpu  time for grad    0.01 s
wall time for grad    0.01 s
 E :    -50.44893917  G :  0.010913    pred/act E change: -0.337D-03 -0.326D-03
Maxdispl :   0.3135   ||displ|| :   0.4700   Lambda : -0.684D-03
Largest |displ|/coords:  0.3135 (   1)  0.1287 (   7)  0.1192 (   4)
................................................................................
.............................. CYCLE   30 ......................................
................................................................................
   1    -50.7323820 -0.507324E+02  0.214E-01    9.08       0.0  T
   2    -50.7323920 -0.100013E-04  0.161E-01    9.07       1.0  T
   3    -50.7324000 -0.803288E-05  0.171E-02    9.07       1.1  T
   4    -50.7324014 -0.138700E-05  0.693E-03    9.07       2.8  T
   5    -50.7324014 -0.680210E-07  0.220E-03    9.07       8.9  T
   6    -50.7324014 -0.415010E-08  0.126E-03    9.07      15.6  T
speedup  0.91
cpu  time for SCC    0.00 s
wall time for SCC    0.01 s
speedup  0.96
cpu  time for grad    0.01 s
wall time for grad    0.01 s
 E :    -50.44941727  G :  0.011480    pred/act E change: -0.241D-03 -0.478D-03
Maxdispl :   0.4277   ||displ|| :   0.6249   Lambda : -0.792D-03
Largest |displ|/coords:  0.4277 (   1)  0.1823 (   4)  0.1747 (   7)
................................................................................
.............................. CYCLE   31 ......................................
................................................................................
   1    -50.7278418 -0.507278E+02  0.340E-01    8.98       0.0  T
   2    -50.7278638 -0.220132E-04  0.257E-01    8.98       1.0  T
   3    -50.7278822 -0.183824E-04  0.247E-02    8.97       1.0  T
   4    -50.7278852 -0.304599E-05  0.937E-03    8.98       2.1  T
   5    -50.7278853 -0.961989E-07  0.337E-03    8.98       5.8  T
   6    -50.7278853 -0.115158E-07  0.173E-03    8.98      11.3  T
   7    -50.7278853 -0.624665E-08  0.390E-04    8.98      50.3  T
speedup  0.95
cpu  time for SCC    0.01 s
wall time for SCC    0.01 s
speedup  0.97
cpu  time for grad    0.01 s
wall time for grad    0.01 s
 E :    -50.44980608  G :  0.018483    pred/act E change: -0.418D-03 -0.389D-03
Maxdispl :   0.1622   ||displ|| :   0.2522   Lambda : -0.661D-03
Largest |displ|/coords:  0.1622 (   1)  0.0714 (   5)  0.0621 (  11)
................................................................................
.............................. CYCLE   32 ......................................
................................................................................
   1    -50.7327291 -0.507327E+02  0.126E-01    8.99       0.0  T
   2    -50.7327355 -0.647537E-05  0.953E-02    8.99       1.0  T
   3    -50.7327401 -0.460130E-05  0.142E-02    8.98       1.4  T
   4    -50.7327411 -0.920015E-06  0.479E-03    8.98       4.1  T
   5    -50.7327411 -0.332260E-07  0.149E-03    8.98      13.2  T
   6    -50.7327411 -0.195524E-08  0.863E-04    8.98      22.7  T
speedup  0.93
cpu  time for SCC    0.01 s
wall time for SCC    0.01 s
speedup  0.97
cpu  time for grad    0.01 s
wall time for grad    0.01 s
 E :    -50.45015670  G :  0.013297    pred/act E change: -0.551D-03 -0.351D-03
Maxdispl :   0.2470   ||displ|| :   0.3989   Lambda : -0.586D-03
Largest |displ|/coords:  0.2470 (   1)  0.1397 (   3)  0.1210 (   8)
................................................................................
.............................. CYCLE   33 ......................................
................................................................................
   1    -50.7315748 -0.507316E+02  0.218E-01    9.04       0.0  T
   2    -50.7315826 -0.778567E-05  0.164E-01    9.04       1.0  T
   3    -50.7315892 -0.662051E-05  0.142E-02    9.03       1.4  T
   4    -50.7315902 -0.101054E-05  0.582E-03    9.03       3.4  T
   5    -50.7315903 -0.330976E-07  0.195E-03    9.03      10.1  T
   6    -50.7315903 -0.455615E-08  0.105E-03    9.03      18.6  T
speedup  0.89
cpu  time for SCC    0.00 s
wall time for SCC    0.01 s
speedup  0.96
cpu  time for grad    0.01 s
wall time for grad    0.01 s
 E :    -50.45039958  G :  0.013524    pred/act E change: -0.352D-03 -0.243D-03
Maxdispl :   0.2532   ||displ|| :   0.3547   Lambda : -0.620D-03
Largest |displ|/coords:  0.2532 (   1)  0.1072 (   4)  0.0897 (   7)
................................................................................
.............................. CYCLE   34 ......................................
................................................................................
   1    -50.7329065 -0.507329E+02  0.169E-01    9.08       0.0  T
   2    -50.7329139 -0.740475E-05  0.127E-01    9.07       1.0  T
   3    -50.7329201 -0.617403E-05  0.161E-02    9.07       1.2  T
   4    -50.7329211 -0.951463E-06  0.516E-03    9.07       3.8  T
   5    -50.7329211 -0.365666E-07  0.170E-03    9.07      11.5  T
   6    -50.7329211 -0.438222E-08  0.903E-04    9.07      21.7  T
speedup  0.93
cpu  time for SCC    0.00 s
wall time for SCC    0.01 s
speedup  0.97
cpu  time for grad    0.01 s
wall time for grad    0.01 s
 E :    -50.45082326  G :  0.011108    pred/act E change: -0.340D-03 -0.424D-03
Maxdispl :   0.2722   ||displ|| :   0.4407   Lambda : -0.554D-03
Largest |displ|/coords:  0.2722 (   1)  0.1733 (   4)  0.1409 (   7)
................................................................................
.............................. CYCLE   35 ......................................
................................................................................
   1    -50.7359028 -0.507359E+02  0.183E-01    9.08       0.0  T
   2    -50.7359127 -0.984282E-05  0.137E-01    9.08       1.0  T
   3    -50.7359194 -0.671515E-05  0.186E-02    9.06       1.1  T
   4    -50.7359209 -0.151198E-05  0.700E-03    9.07       2.8  T
   5    -50.7359210 -0.576200E-07  0.196E-03    9.07      10.0  T
   6    -50.7359210 -0.625990E-08  0.121E-03    9.07      16.2  T
speedup  0.93
cpu  time for SCC    0.00 s
wall time for SCC    0.01 s
speedup  0.96
cpu  time for grad    0.01 s
wall time for grad    0.01 s
 E :    -50.45115042  G :  0.014708    pred/act E change: -0.349D-03 -0.327D-03
Maxdispl :   0.3329   ||displ|| :   0.4806   Lambda : -0.533D-03
Largest |displ|/coords:  0.3329 (   1)  0.1683 (   8)  0.1672 (   4)
................................................................................
.............................. CYCLE   36 ......................................
................................................................................
   1    -50.7347138 -0.507347E+02  0.200E-01    9.09       0.0  T
   2    -50.7347282 -0.143498E-04  0.151E-01    9.08       1.0  T
   3    -50.7347377 -0.951323E-05  0.227E-02    9.07       1.0  T
   4    -50.7347400 -0.235531E-05  0.773E-03    9.07       2.5  T
   5    -50.7347401 -0.847967E-07  0.241E-03    9.07       8.1  T
   6    -50.7347401 -0.777324E-08  0.145E-03    9.07      13.5  T
speedup  0.93
cpu  time for SCC    0.00 s
wall time for SCC    0.01 s
speedup  0.96
cpu  time for grad    0.01 s
wall time for grad    0.01 s
 E :    -50.45141411  G :  0.013791    pred/act E change: -0.331D-03 -0.264D-03
Maxdispl :   0.1051   ||displ|| :   0.2275   Lambda : -0.596D-03
Largest |displ|/coords:  0.1051 (   1)  0.0753 (   8)  0.0691 (   9)
................................................................................
.............................. CYCLE   37 ......................................
................................................................................
   1    -50.7445363 -0.507445E+02  0.116E-01    9.27       0.0  T
   2    -50.7445456 -0.932013E-05  0.867E-02    9.27       1.0  T
   3    -50.7445513 -0.565946E-05  0.176E-02    9.26       1.1  T
   4    -50.7445524 -0.111371E-05  0.614E-03    9.26       3.2  T
   5    -50.7445525 -0.782068E-07  0.166E-03    9.26      11.8  T
   6    -50.7445525 -0.292125E-08  0.100E-03    9.26      19.6  T
speedup  0.93
cpu  time for SCC    0.01 s
wall time for SCC    0.01 s
speedup  0.97
cpu  time for grad    0.01 s
wall time for grad    0.01 s
 E :    -50.45141321  G :  0.017284    pred/act E change: -0.328D-03  0.906D-06
Maxdispl :   0.2297   ||displ|| :   0.3390   Lambda : -0.908D-03
Largest |displ|/coords:  0.2297 (   1)  0.1122 (   4)  0.1059 (   7)
................................................................................
.............................. CYCLE   38 ......................................
................................................................................
   1    -50.7361477 -0.507361E+02  0.197E-01    9.12       0.0  T
   2    -50.7361605 -0.127838E-04  0.148E-01    9.12       1.0  T
   3    -50.7361695 -0.899084E-05  0.233E-02    9.11       1.0  T
   4    -50.7361713 -0.184482E-05  0.664E-03    9.11       3.0  T
   5    -50.7361714 -0.826309E-07  0.242E-03    9.11       8.1  T
   6    -50.7361714 -0.602905E-08  0.129E-03    9.11      15.2  T
speedup  0.93
cpu  time for SCC    0.00 s
wall time for SCC    0.01 s
speedup  0.97
cpu  time for grad    0.01 s
wall time for grad    0.01 s
 E :    -50.45174642  G :  0.014169    pred/act E change: -0.313D-03 -0.333D-03
Maxdispl :   0.0647   ||displ|| :   0.1647   Lambda : -0.442D-03
Largest |displ|/coords:  0.0647 (   3)  0.0616 (   6)  0.0529 (   1)
................................................................................
.............................. CYCLE   39 ......................................
................................................................................
   1    -50.7374564 -0.507375E+02  0.122E-01    9.10       0.0  T
   2    -50.7374621 -0.570512E-05  0.912E-02    9.11       1.0  T
   3    -50.7374664 -0.428641E-05  0.141E-02    9.11       1.4  T
   4    -50.7374672 -0.779636E-06  0.453E-03    9.11       4.3  T
   5    -50.7374672 -0.363275E-07  0.164E-03    9.11      11.9  T
   6    -50.7374672 -0.328029E-08  0.891E-04    9.11      22.0  T
speedup  0.94
cpu  time for SCC    0.01 s
wall time for SCC    0.01 s
speedup  0.97
cpu  time for grad    0.01 s
wall time for grad    0.01 s
 E :    -50.45185515  G :  0.013240    pred/act E change: -0.506D-03 -0.109D-03
Maxdispl :   0.1880   ||displ|| :   0.2690   Lambda : -0.339D-03
Largest |displ|/coords:  0.1880 (   1)  0.0924 (   2)  0.0774 (   8)
................................................................................
.............................. CYCLE   40 ......................................
................................................................................
   1    -50.7377523 -0.507378E+02  0.113E-01    9.10       0.0  T
   2    -50.7377564 -0.404259E-05  0.854E-02    9.10       1.0  T
   3    -50.7377591 -0.274714E-05  0.121E-02    9.09       1.6  T
   4    -50.7377597 -0.623591E-06  0.374E-03    9.10       5.2  T
   5    -50.7377598 -0.259582E-07  0.127E-03    9.10      15.4  T
   6    -50.7377598 -0.205913E-08  0.763E-04    9.10      25.7  T
speedup  0.94
cpu  time for SCC    0.00 s
wall time for SCC    0.01 s
speedup  0.98
cpu  time for grad    0.01 s
wall time for grad    0.01 s
 E :    -50.45198092  G :  0.010156    pred/act E change: -0.227D-03 -0.126D-03
Maxdispl :   0.0979   ||displ|| :   0.1913   Lambda : -0.438D-03
Largest |displ|/coords:  0.0979 (   1)  0.0854 (   2)  0.0586 (  14)
................................................................................
.............................. CYCLE   41 ......................................
................................................................................
   1    -50.7430066 -0.507430E+02  0.117E-01    9.21       0.0  T
   2    -50.7430132 -0.655696E-05  0.876E-02    9.22       1.0  T
   3    -50.7430185 -0.534677E-05  0.150E-02    9.22       1.3  T
   4    -50.7430193 -0.804730E-06  0.647E-03    9.21       3.0  T
   5    -50.7430194 -0.687929E-07  0.193E-03    9.22      10.2  T
   6    -50.7430194 -0.396445E-08  0.106E-03    9.22      18.5  T
speedup  0.93
cpu  time for SCC    0.00 s
wall time for SCC    0.01 s
speedup  0.97
cpu  time for grad    0.01 s
wall time for grad    0.01 s
 E :    -50.45191443  G :  0.017983    pred/act E change: -0.182D-03  0.665D-04
Maxdispl :   0.0981   ||displ|| :   0.2039   Lambda : -0.630D-03
Largest |displ|/coords:  0.0981 (   7)  0.0972 (   9)  0.0954 (   1)
................................................................................
.............................. CYCLE   42 ......................................
................................................................................
   1    -50.7378991 -0.507379E+02  0.111E-01    9.15       0.0  T
   2    -50.7379025 -0.335778E-05  0.835E-02    9.15       1.0  T
   3    -50.7379053 -0.281251E-05  0.102E-02    9.15       1.9  T
   4    -50.7379057 -0.420793E-06  0.364E-03    9.15       5.4  T
   5    -50.7379057 -0.181311E-07  0.134E-03    9.15      14.6  T
   6    -50.7379057 -0.232663E-08  0.662E-04    9.15      29.6  T
speedup  0.94
cpu  time for SCC    0.00 s
wall time for SCC    0.01 s
speedup  0.97
cpu  time for grad    0.01 s
wall time for grad    0.01 s
 E :    -50.45217671  G :  0.011604    pred/act E change: -0.227D-03 -0.262D-03
Maxdispl :   0.0741   ||displ|| :   0.1649   Lambda : -0.378D-03
Largest |displ|/coords:  0.0741 (   1)  0.0699 (   8)  0.0570 (  10)
................................................................................
.............................. CYCLE   43 ......................................
................................................................................
   1    -50.7370237 -0.507370E+02  0.115E-01    9.08       0.0  T
   2    -50.7370287 -0.498200E-05  0.861E-02    9.08       1.0  T
   3    -50.7370321 -0.335696E-05  0.145E-02    9.09       1.4  T
   4    -50.7370327 -0.663907E-06  0.477E-03    9.08       4.1  T
   5    -50.7370328 -0.474214E-07  0.137E-03    9.08      14.3  T
   6    -50.7370328 -0.190104E-08  0.802E-04    9.08      24.5  T
speedup  0.93
cpu  time for SCC    0.00 s
wall time for SCC    0.01 s
speedup  0.97
cpu  time for grad    0.01 s
wall time for grad    0.01 s
 E :    -50.45224707  G :  0.011799    pred/act E change: -0.328D-03 -0.704D-04
Maxdispl :   0.0961   ||displ|| :   0.1519   Lambda : -0.263D-03
Largest |displ|/coords:  0.0961 (   2)  0.0697 (   1)  0.0469 (  14)
................................................................................
.............................. CYCLE   44 ......................................
................................................................................
   1    -50.7382542 -0.507383E+02  0.683E-02    9.09       0.0  T
   2    -50.7382554 -0.121277E-05  0.509E-02    9.09       1.0  T
   3    -50.7382565 -0.106978E-05  0.683E-03    9.09       2.9  T
   4    -50.7382566 -0.139558E-06  0.209E-03    9.09       9.4  T
   5    -50.7382566 -0.469869E-08  0.870E-04    9.09      22.5  T
speedup  1.11
cpu  time for SCC    0.00 s
wall time for SCC    0.00 s
speedup  1.04
cpu  time for grad    0.01 s
wall time for grad    0.01 s
 E :    -50.45240878  G :  0.003882    pred/act E change: -0.194D-03 -0.162D-03
Maxdispl :   0.2100   ||displ|| :   0.3489   Lambda : -0.229D-03
Largest |displ|/coords:  0.2100 (   1)  0.1691 (   2)  0.0772 (  16)
................................................................................
.............................. CYCLE   45 ......................................
................................................................................
   1    -50.7379107 -0.507379E+02  0.163E-01    9.18       0.0  T
   2    -50.7379158 -0.503345E-05  0.123E-01    9.17       1.0  T
   3    -50.7379216 -0.586272E-05  0.126E-02    9.17       1.6  T
   4    -50.7379220 -0.405898E-06  0.421E-03    9.17       4.7  T
   5    -50.7379221 -0.246052E-07  0.195E-03    9.17      10.1  T
   6    -50.7379221 -0.521079E-08  0.829E-04    9.17      23.7  T
   7    -50.7379221 -0.122387E-08  0.196E-04    9.17     100.0  T
speedup  0.95
cpu  time for SCC    0.01 s
wall time for SCC    0.01 s
speedup  1.01
cpu  time for grad    0.01 s
wall time for grad    0.01 s
 E :    -50.45247097  G :  0.014260    pred/act E change: -0.134D-03 -0.622D-04
Maxdispl :   0.0855   ||displ|| :   0.1680   Lambda : -0.210D-03
Largest |displ|/coords:  0.0855 (   1)  0.0758 (   2)  0.0591 (   7)
................................................................................
.............................. CYCLE   46 ......................................
................................................................................
   1    -50.7387613 -0.507388E+02  0.696E-02    9.12       0.0  T
   2    -50.7387631 -0.187269E-05  0.522E-02    9.12       1.0  T
   3    -50.7387644 -0.129920E-05  0.883E-03    9.12       2.2  T
   4    -50.7387647 -0.231554E-06  0.316E-03    9.12       6.2  T
   5    -50.7387647 -0.174343E-07  0.796E-04    9.12      24.6  T
   6    -50.7387647 -0.741998E-09  0.485E-04    9.12      40.4  T
speedup  1.11
cpu  time for SCC    0.01 s
wall time for SCC    0.01 s
speedup  1.03
cpu  time for grad    0.01 s
wall time for grad    0.01 s
 E :    -50.45260273  G :  0.009090    pred/act E change: -0.128D-03 -0.132D-03
Maxdispl :   0.0871   ||displ|| :   0.1996   Lambda : -0.208D-03
Largest |displ|/coords:  0.0871 (   2)  0.0761 (   1)  0.0745 (  14)
................................................................................
.............................. CYCLE   47 ......................................
................................................................................
   1    -50.7394036 -0.507394E+02  0.834E-02    9.09       0.0  T
   2    -50.7394059 -0.222667E-05  0.620E-02    9.09       1.0  T
   3    -50.7394070 -0.116480E-05  0.104E-02    9.09       1.9  T
   4    -50.7394073 -0.304800E-06  0.382E-03    9.09       5.1  T
   5    -50.7394074 -0.193544E-07  0.787E-04    9.09      24.9  T
   6    -50.7394074 -0.768587E-09  0.486E-04    9.09      40.3  T
speedup  1.13
cpu  time for SCC    0.01 s
wall time for SCC    0.01 s
speedup  1.04
cpu  time for grad    0.01 s
wall time for grad    0.01 s
 E :    -50.45271500  G :  0.006276    pred/act E change: -0.108D-03 -0.112D-03
Maxdispl :   0.2337   ||displ|| :   0.4061   Lambda : -0.193D-03
Largest |displ|/coords:  0.2337 (   1)  0.1737 (   2)  0.1289 (  14)
................................................................................
.............................. CYCLE   48 ......................................
................................................................................
   1    -50.7372750 -0.507373E+02  0.180E-01    9.09       0.0  T
   2    -50.7372807 -0.574154E-05  0.136E-01    9.09       1.0  T
   3    -50.7372866 -0.588606E-05  0.144E-02    9.08       1.4  T
   4    -50.7372872 -0.589627E-06  0.594E-03    9.09       3.3  T
   5    -50.7372873 -0.348909E-07  0.180E-03    9.09      10.9  T
   6    -50.7372873 -0.346443E-08  0.109E-03    9.09      17.9  T
speedup  0.93
cpu  time for SCC    0.00 s
wall time for SCC    0.01 s
speedup  0.97
cpu  time for grad    0.01 s
wall time for grad    0.01 s
 E :    -50.45282405  G :  0.008754    pred/act E change: -0.108D-03 -0.109D-03
Maxdispl :   0.1301   ||displ|| :   0.2843   Lambda : -0.211D-03
Largest |displ|/coords:  0.1301 (   1)  0.1101 (   2)  0.0887 (  15)
................................................................................
.............................. CYCLE   49 ......................................
................................................................................
   1    -50.7405941 -0.507406E+02  0.134E-01    9.15       0.0  T
   2    -50.7405989 -0.481060E-05  0.101E-01    9.15       1.0  T
   3    -50.7406032 -0.426256E-05  0.132E-02    9.15       1.5  T
   4    -50.7406037 -0.572254E-06  0.519E-03    9.15       3.8  T
   5    -50.7406038 -0.345466E-07  0.160E-03    9.15      12.3  T
   6    -50.7406038 -0.253617E-08  0.970E-04    9.15      20.2  T
speedup  0.94
cpu  time for SCC    0.01 s
wall time for SCC    0.01 s
speedup  0.97
cpu  time for grad    0.01 s
wall time for grad    0.01 s
 E :    -50.45285555  G :  0.009908    pred/act E change: -0.112D-03 -0.315D-04
Maxdispl :   0.0773   ||displ|| :   0.1323   Lambda : -0.196D-03
Largest |displ|/coords:  0.0773 (   1)  0.0483 (   4)  0.0327 (   9)
................................................................................
.............................. CYCLE   50 ......................................
................................................................................
   1    -50.7400779 -0.507401E+02  0.695E-02    9.15       0.0  T
   2    -50.7400799 -0.201047E-05  0.523E-02    9.15       1.0  T
   3    -50.7400811 -0.127782E-05  0.855E-03    9.14       2.3  T
   4    -50.7400815 -0.310527E-06  0.288E-03    9.15       6.8  T
   5    -50.7400815 -0.125260E-07  0.886E-04    9.15      22.1  T
speedup  0.87
cpu  time for SCC    0.00 s
wall time for SCC    0.00 s
speedup  0.94
cpu  time for grad    0.01 s
wall time for grad    0.01 s
 E :    -50.45294000  G :  0.006549    pred/act E change: -0.114D-03 -0.845D-04
Maxdispl :   0.0480   ||displ|| :   0.1094   Lambda : -0.109D-03
Largest |displ|/coords:  0.0480 (   2)  0.0414 (  14)  0.0337 (   6)
................................................................................
.............................. CYCLE   51 ......................................
................................................................................
   1    -50.7395589 -0.507396E+02  0.684E-02    9.14       0.0  T
   2    -50.7395602 -0.134606E-05  0.512E-02    9.14       1.0  T
   3    -50.7395612 -0.100619E-05  0.729E-03    9.14       2.7  T
   4    -50.7395614 -0.176858E-06  0.186E-03    9.14      10.5  T
   5    -50.7395614 -0.570419E-08  0.773E-04    9.14      25.4  T
speedup  1.11
cpu  time for SCC    0.00 s
wall time for SCC    0.00 s
speedup  1.03
cpu  time for grad    0.01 s
wall time for grad    0.01 s
 E :    -50.45298434  G :  0.007150    pred/act E change: -0.997D-04 -0.443D-04
Maxdispl :   0.1432   ||displ|| :   0.2014   Lambda : -0.873D-04
Largest |displ|/coords:  0.1432 (   1)  0.0656 (   8)  0.0644 (   2)
................................................................................
.............................. CYCLE   52 ......................................
................................................................................
   1    -50.7385367 -0.507385E+02  0.848E-02    9.11       0.0  T
   2    -50.7385387 -0.200387E-05  0.637E-02    9.11       1.0  T
   3    -50.7385402 -0.143932E-05  0.984E-03    9.10       2.0  T
   4    -50.7385405 -0.308715E-06  0.313E-03    9.10       6.3  T
   5    -50.7385405 -0.112068E-07  0.875E-04    9.10      22.4  T
   6    -50.7385405 -0.952603E-09  0.539E-04    9.10      36.4  T
speedup  1.11
cpu  time for SCC    0.01 s
wall time for SCC    0.01 s
speedup  1.04
cpu  time for grad    0.01 s
wall time for grad    0.01 s
 E :    -50.45302109  G :  0.005885    pred/act E change: -0.551D-04 -0.367D-04
Maxdispl :   0.0743   ||displ|| :   0.1376   Lambda : -0.144D-03
Largest |displ|/coords:  0.0743 (   4)  0.0573 (   1)  0.0454 (   3)

generating ANC from model Hessian ...
 Shifting diagonal of input Hessian by   5.277204774853351E-003
 Lowest  eigenvalues of input Hessian
    0.005000   -0.000000   -0.000000   -0.000000    0.000000    0.000000
    0.000000    0.005462    0.005607    0.005817    0.006053    0.006421
    0.006500    0.006630    0.007030    0.007507    0.008374    0.008616
 Highest eigenvalues
    1.411351    1.419818    1.466502    2.591856    3.296290    3.742379
 
cpu  time for ANC gen    0.02 s
wall time for ANC gen    0.02 s
................................................................................
.............................. CYCLE   53 ......................................
................................................................................
   1    -50.7437396 -0.507437E+02  0.700E-02    9.16       0.0  T
   2    -50.7437409 -0.130558E-05  0.522E-02    9.16       1.0  T
   3    -50.7437417 -0.854095E-06  0.730E-03    9.15       2.7  T
   4    -50.7437419 -0.167930E-06  0.230E-03    9.15       8.5  T
   5    -50.7437419 -0.706234E-08  0.724E-04    9.15      27.1  T
   6    -50.7437419 -0.404889E-09  0.428E-04    9.15      45.8  T
speedup  0.93
cpu  time for SCC    0.00 s
wall time for SCC    0.01 s
speedup  1.00
cpu  time for grad    0.01 s
wall time for grad    0.01 s
 E :    -50.45305665  G :  0.007617    pred/act E change:  0.000D+00 -0.356D-04
Maxdispl :   0.0610   ||displ|| :   0.1161   Lambda : -0.180D-03
Largest |displ|/coords:  0.0610 (   8)  0.0443 (   5)  0.0388 (   2)
................................................................................
.............................. CYCLE   54 ......................................
................................................................................
   1    -50.7418345 -0.507418E+02  0.102E-01    9.15       0.0  T
   2    -50.7418360 -0.148029E-05  0.765E-02    9.15       1.0  T
   3    -50.7418371 -0.115088E-05  0.775E-03    9.15       2.5  T
   4    -50.7418373 -0.209409E-06  0.251E-03    9.15       7.8  T
   5    -50.7418373 -0.960227E-08  0.978E-04    9.15      20.0  T
speedup  0.87
cpu  time for SCC    0.00 s
wall time for SCC    0.00 s
speedup  0.94
cpu  time for grad    0.01 s
wall time for grad    0.01 s
 E :    -50.45317262  G :  0.003041    pred/act E change:  0.000D+00 -0.116D-03
Maxdispl :   0.1039   ||displ|| :   0.2273   Lambda : -0.222D-03
Largest |displ|/coords:  0.1039 (   2)  0.0788 (  16)  0.0760 (   4)
................................................................................
.............................. CYCLE   55 ......................................
................................................................................
   1    -50.7377966 -0.507378E+02  0.196E-01    9.14       0.0  T
   2    -50.7378041 -0.757072E-05  0.148E-01    9.15       1.0  T
   3    -50.7378110 -0.685381E-05  0.159E-02    9.15       1.2  T
   4    -50.7378119 -0.904137E-06  0.533E-03    9.15       3.7  T
   5    -50.7378119 -0.341879E-07  0.208E-03    9.15       9.4  T
   6    -50.7378119 -0.326904E-08  0.103E-03    9.15      19.0  T
   7    -50.7378119 -0.276378E-08  0.162E-04    9.15     121.4  T
   8    -50.7378119 -0.603535E-10  0.681E-05    9.15     287.8  T
speedup  0.99
cpu  time for SCC    0.01 s
wall time for SCC    0.01 s
speedup  1.02
cpu  time for grad    0.02 s
wall time for grad    0.02 s
 E :    -50.45319244  G :  0.012923    pred/act E change: -0.910D-04 -0.198D-04
Maxdispl :   0.0271   ||displ|| :   0.0685   Lambda : -0.207D-03
Largest |displ|/coords:  0.0271 (  11)  0.0243 (   4)  0.0233 (   9)
................................................................................
.............................. CYCLE   56 ......................................
................................................................................
   1    -50.7402249 -0.507402E+02  0.726E-02    9.16       0.0  T
   2    -50.7402270 -0.210067E-05  0.547E-02    9.16       1.0  T
   3    -50.7402286 -0.159812E-05  0.838E-03    9.16       2.3  T
   4    -50.7402288 -0.280511E-06  0.211E-03    9.16       9.3  T
   5    -50.7402289 -0.671869E-08  0.938E-04    9.16      20.9  T
speedup  0.89
cpu  time for SCC    0.00 s
wall time for SCC    0.00 s
speedup  0.96
cpu  time for grad    0.01 s
wall time for grad    0.01 s
 E :    -50.45330006  G :  0.004130    pred/act E change: -0.117D-03 -0.108D-03
Maxdispl :   0.0588   ||displ|| :   0.1094   Lambda : -0.777D-04
Largest |displ|/coords:  0.0588 (   2)  0.0394 (   3)  0.0362 (   8)
................................................................................
.............................. CYCLE   57 ......................................
................................................................................
   1    -50.7406733 -0.507407E+02  0.729E-02    9.16       0.0  T
   2    -50.7406739 -0.644625E-06  0.550E-02    9.16       1.0  T
   3    -50.7406745 -0.635609E-06  0.476E-03    9.16       4.1  T
   4    -50.7406746 -0.669919E-07  0.177E-03    9.16      11.1  T
   5    -50.7406746 -0.183783E-08  0.523E-04    9.16      37.5  T
speedup  0.89
cpu  time for SCC    0.00 s
wall time for SCC    0.00 s
speedup  0.95
cpu  time for grad    0.01 s
wall time for grad    0.01 s
 E :    -50.45336150  G :  0.003767    pred/act E change: -0.104D-03 -0.614D-04
Maxdispl :   0.2593   ||displ|| :   0.4732   Lambda : -0.277D-03
Largest |displ|/coords:  0.2593 (   2)  0.1920 (   3)  0.1587 (   8)
................................................................................
.............................. CYCLE   58 ......................................
................................................................................
   1    -50.7392865 -0.507393E+02  0.290E-01    9.18       0.0  T
   2    -50.7392943 -0.780703E-05  0.218E-01    9.18       1.0  T
   3    -50.7393011 -0.677028E-05  0.176E-02    9.19       1.1  T
   4    -50.7393020 -0.979262E-06  0.650E-03    9.19       3.0  T
   5    -50.7393021 -0.317958E-07  0.243E-03    9.19       8.1  T
   6    -50.7393021 -0.497333E-08  0.109E-03    9.19      17.9  T
   7    -50.7393021 -0.188729E-08  0.220E-04    9.19      89.1  T
   8    -50.7393021 -0.168548E-09  0.810E-05    9.19     242.0  T
speedup  1.10
cpu  time for SCC    0.01 s
wall time for SCC    0.01 s
speedup  1.01
cpu  time for grad    0.02 s
wall time for grad    0.02 s
 E :    -50.45351652  G :  0.011935    pred/act E change: -0.393D-04 -0.155D-03
Maxdispl :   0.1482   ||displ|| :   0.2884   Lambda : -0.276D-03
Largest |displ|/coords:  0.1482 (   2)  0.1432 (   3)  0.1184 (  10)
................................................................................
.............................. CYCLE   59 ......................................
................................................................................
   1    -50.7403040 -0.507403E+02  0.135E-01    9.19       0.0  T
   2    -50.7403072 -0.321619E-05  0.102E-01    9.19       1.0  T
   3    -50.7403101 -0.293871E-05  0.118E-02    9.19       1.7  T
   4    -50.7403105 -0.336698E-06  0.341E-03    9.19       5.8  T
   5    -50.7403105 -0.133369E-07  0.129E-03    9.19      15.2  T
   6    -50.7403105 -0.154856E-08  0.656E-04    9.19      29.9  T
speedup  0.93
cpu  time for SCC    0.00 s
wall time for SCC    0.01 s
speedup  0.97
cpu  time for grad    0.01 s
wall time for grad    0.01 s
 E :    -50.45364848  G :  0.009354    pred/act E change: -0.169D-03 -0.132D-03
Maxdispl :   0.2321   ||displ|| :   0.4029   Lambda : -0.326D-03
Largest |displ|/coords:  0.2321 (   2)  0.1628 (   3)  0.1468 (   1)
................................................................................
.............................. CYCLE   60 ......................................
................................................................................
   1    -50.7383963 -0.507384E+02  0.190E-01    9.18       0.0  T
   2    -50.7384006 -0.426625E-05  0.143E-01    9.18       1.0  T
   3    -50.7384051 -0.450651E-05  0.136E-02    9.18       1.4  T
   4    -50.7384054 -0.336012E-06  0.468E-03    9.18       4.2  T
   5    -50.7384054 -0.218485E-07  0.165E-03    9.18      11.9  T
   6    -50.7384054 -0.244534E-08  0.912E-04    9.18      21.5  T
speedup  0.93
cpu  time for SCC    0.00 s
wall time for SCC    0.01 s
speedup  0.97
cpu  time for grad    0.01 s
wall time for grad    0.01 s
 E :    -50.45390502  G :  0.008685    pred/act E change: -0.149D-03 -0.257D-03
Maxdispl :   0.3159   ||displ|| :   0.5700   Lambda : -0.516D-03
Largest |displ|/coords:  0.3159 (   2)  0.2345 (   3)  0.2065 (   1)
................................................................................
.............................. CYCLE   61 ......................................
................................................................................
   1    -50.7367698 -0.507368E+02  0.251E-01    9.17       0.0  T
   2    -50.7367787 -0.893023E-05  0.188E-01    9.17       1.0  T
   3    -50.7367839 -0.516274E-05  0.209E-02    9.16       1.0  T
   4    -50.7367854 -0.147131E-05  0.807E-03    9.16       2.4  T
   5    -50.7367854 -0.551403E-07  0.199E-03    9.17       9.9  T
   6    -50.7367854 -0.367396E-08  0.117E-03    9.16      16.8  T
speedup  0.91
cpu  time for SCC    0.00 s
wall time for SCC    0.01 s
speedup  0.96
cpu  time for grad    0.01 s
wall time for grad    0.01 s
 E :    -50.45422246  G :  0.015272    pred/act E change: -0.190D-03 -0.317D-03
Maxdispl :   0.2865   ||displ|| :   0.5521   Lambda : -0.561D-03
Largest |displ|/coords:  0.2865 (   2)  0.2408 (   3)  0.2100 (   1)
................................................................................
.............................. CYCLE   62 ......................................
................................................................................
   1    -50.7329667 -0.507330E+02  0.271E-01    9.15       0.0  T
   2    -50.7329808 -0.141260E-04  0.204E-01    9.14       1.0  T
   3    -50.7329928 -0.119965E-04  0.237E-02    9.14       1.0  T
   4    -50.7329946 -0.178681E-05  0.840E-03    9.14       2.3  T
   5    -50.7329947 -0.784462E-07  0.276E-03    9.14       7.1  T
   6    -50.7329947 -0.798770E-08  0.156E-03    9.14      12.6  T
speedup  0.93
cpu  time for SCC    0.00 s
wall time for SCC    0.01 s
speedup  0.96
cpu  time for grad    0.01 s
wall time for grad    0.01 s
 E :    -50.45456027  G :  0.023189    pred/act E change: -0.342D-03 -0.338D-03
Maxdispl :   0.3262   ||displ|| :   0.5331   Lambda : -0.192D-02
Largest |displ|/coords:  0.3262 (   4)  0.1991 (   7)  0.1270 (  13)
................................................................................
.............................. CYCLE   63 ......................................
................................................................................
   1    -50.7507427 -0.507507E+02  0.330E-01    9.25       0.0  T
   2    -50.7508059 -0.632210E-04  0.250E-01    9.24       1.0  T
   3    -50.7508398 -0.338664E-04  0.475E-02    9.22       1.0  T
   4    -50.7508505 -0.107803E-04  0.176E-02    9.23       1.1  T
   5    -50.7508510 -0.490930E-06  0.524E-03    9.23       3.7  T
   6    -50.7508511 -0.221670E-07  0.294E-03    9.23       6.7  T
speedup  1.09
cpu  time for SCC    0.01 s
wall time for SCC    0.01 s
speedup  1.04
cpu  time for grad    0.01 s
wall time for grad    0.01 s
 E :    -50.45336873  G :  0.037427    pred/act E change: -0.366D-03  0.119D-02
Maxdispl :   0.1724   ||displ|| :   0.3358   Lambda : -0.356D-02
Largest |displ|/coords:  0.1724 (  10)  0.1347 (   2)  0.1051 (   7)
................................................................................
.............................. CYCLE   64 ......................................
................................................................................
   1    -50.7406263 -0.507406E+02  0.237E-01    9.14       0.0  T
   2    -50.7406506 -0.243190E-04  0.179E-01    9.15       1.0  T
   3    -50.7406625 -0.118910E-04  0.285E-02    9.17       1.0  T
   4    -50.7406670 -0.450656E-05  0.976E-03    9.16       2.0  T
   5    -50.7406671 -0.150166E-06  0.313E-03    9.16       6.3  T
   6    -50.7406671 -0.583053E-08  0.171E-03    9.16      11.4  T
speedup  0.94
[...]
wall time for grad    0.01 s
 E :    -50.45987518  G :  0.000800    pred/act E change: -0.151D-05 -0.622D-06
Maxdispl :   0.0067   ||displ|| :   0.0121   Lambda : -0.101D-05
Largest |displ|/coords:  0.0067 (   4)  0.0058 (   1)  0.0045 (   2)
................................................................................
.............................. CYCLE  103 ......................................
................................................................................
   1    -50.7492889 -0.507493E+02  0.601E-03    9.23       0.0  T
   2    -50.7492889 -0.104767E-07  0.438E-03    9.23       4.5  T
   3    -50.7492889 -0.647774E-08  0.807E-04    9.23      24.3  T
   4    -50.7492889 -0.115264E-08  0.281E-04    9.23      69.8  T
speedup  0.81
cpu  time for SCC    0.00 s
wall time for SCC    0.00 s
speedup  0.98
cpu  time for grad    0.01 s
wall time for grad    0.01 s
 E :    -50.45987580  G :  0.000482    pred/act E change: -0.747D-06 -0.613D-06
Maxdispl :   0.0044   ||displ|| :   0.0111   Lambda : -0.787D-06
Largest |displ|/coords:  0.0044 (   5)  0.0042 (   4)  0.0039 (   2)
................................................................................
.............................. CYCLE  104 ......................................
................................................................................
   1    -50.7492133 -0.507492E+02  0.701E-03    9.23       0.0  T
   2    -50.7492133 -0.120987E-07  0.519E-03    9.23       3.8  T
   3    -50.7492133 -0.938825E-08  0.923E-04    9.23      21.2  T
   4    -50.7492133 -0.140247E-08  0.367E-04    9.23      53.5  T
speedup  1.05
cpu  time for SCC    0.00 s
wall time for SCC    0.00 s
speedup  0.97
cpu  time for grad    0.01 s
wall time for grad    0.01 s
 E :    -50.45987629  G :  0.000296    pred/act E change: -0.505D-06 -0.491D-06
Maxdispl :   0.0071   ||displ|| :   0.0151   Lambda : -0.651D-06
Largest |displ|/coords:  0.0071 (   1)  0.0071 (   4)  0.0065 (   2)
................................................................................
.............................. CYCLE  105 ......................................
................................................................................
   1    -50.7491908 -0.507492E+02  0.792E-03    9.23       0.0  T
   2    -50.7491908 -0.124141E-07  0.591E-03    9.23       3.3  T
   3    -50.7491908 -0.764933E-08  0.869E-04    9.23      22.6  T
   4    -50.7491908 -0.189986E-08  0.354E-04    9.23      55.4  T
speedup  1.08
cpu  time for SCC    0.00 s
wall time for SCC    0.00 s
speedup  0.98
cpu  time for grad    0.01 s
wall time for grad    0.01 s
 E :    -50.45987674  G :  0.000269    pred/act E change: -0.393D-06 -0.451D-06
Maxdispl :   0.0063   ||displ|| :   0.0128   Lambda : -0.503D-06
Largest |displ|/coords:  0.0063 (   4)  0.0055 (   2)  0.0054 (   9)
................................................................................
.............................. CYCLE  106 ......................................
................................................................................
   1    -50.7491378 -0.507491E+02  0.694E-03    9.23       0.0  T
   2    -50.7491379 -0.858800E-08  0.523E-03    9.23       3.8  T
   3    -50.7491379 -0.685545E-08  0.594E-04    9.24      33.0  T
   4    -50.7491379 -0.120813E-08  0.226E-04    9.24      86.8  T
speedup  1.08
cpu  time for SCC    0.00 s
wall time for SCC    0.00 s
speedup  0.98
cpu  time for grad    0.01 s
wall time for grad    0.01 s
 E :    -50.45987711  G :  0.000296    pred/act E change: -0.326D-06 -0.375D-06
Maxdispl :   0.0079   ||displ|| :   0.0170   Lambda : -0.608D-06
Largest |displ|/coords:  0.0079 (   6)  0.0075 (   2)  0.0071 (   4)
................................................................................
.............................. CYCLE  107 ......................................
................................................................................
   1    -50.7490906 -0.507491E+02  0.102E-02    9.24       0.0  T
   2    -50.7490906 -0.158142E-07  0.762E-03    9.24       2.6  T
   3    -50.7490906 -0.158102E-07  0.943E-04    9.24      20.8  T
   4    -50.7490906 -0.161327E-08  0.318E-04    9.24      61.6  T
speedup  1.08
cpu  time for SCC    0.00 s
wall time for SCC    0.00 s
speedup  1.06
cpu  time for grad    0.01 s
wall time for grad    0.01 s
 E :    -50.45987756  G :  0.000403    pred/act E change: -0.252D-06 -0.452D-06
Maxdispl :   0.0090   ||displ|| :   0.0186   Lambda : -0.612D-06
Largest |displ|/coords:  0.0090 (   6)  0.0072 (   2)  0.0061 (   9)
................................................................................
.............................. CYCLE  108 ......................................
................................................................................
   1    -50.7490756 -0.507491E+02  0.127E-02    9.24       0.0  T
   2    -50.7490756 -0.264196E-07  0.941E-03    9.24       2.1  T
   3    -50.7490757 -0.276856E-07  0.142E-03    9.24      13.8  T
   4    -50.7490757 -0.220783E-08  0.377E-04    9.24      52.0  T
   5    -50.7490757 -0.228503E-09  0.109E-04    9.24     179.2  T
speedup  0.89
cpu  time for SCC    0.00 s
wall time for SCC    0.00 s
speedup  0.99
cpu  time for grad    0.01 s
wall time for grad    0.01 s
 E :    -50.45987801  G :  0.000375    pred/act E change: -0.304D-06 -0.441D-06
Maxdispl :   0.0072   ||displ|| :   0.0162   Lambda : -0.445D-06
Largest |displ|/coords:  0.0072 (   6)  0.0066 (   2)  0.0050 (   1)
................................................................................
.............................. CYCLE  109 ......................................
................................................................................
   1    -50.7490763 -0.507491E+02  0.114E-02    9.24       0.0  T
   2    -50.7490763 -0.209167E-07  0.843E-03    9.24       2.3  T
   3    -50.7490763 -0.218211E-07  0.135E-03    9.24      14.5  T
   4    -50.7490764 -0.167894E-08  0.273E-04    9.24      71.7  T
   5    -50.7490764 -0.186773E-09  0.979E-05    9.24     200.3  T
speedup  0.89
cpu  time for SCC    0.00 s
wall time for SCC    0.00 s
speedup  0.98
cpu  time for grad    0.01 s
wall time for grad    0.01 s
 E :    -50.45987828  G :  0.000317    pred/act E change: -0.306D-06 -0.276D-06
Maxdispl :   0.0038   ||displ|| :   0.0066   Lambda : -0.195D-06
Largest |displ|/coords:  0.0038 (   1)  0.0024 (   6)  0.0020 (   2)
................................................................................
.............................. CYCLE  110 ......................................
................................................................................
   1    -50.7491096 -0.507491E+02  0.459E-03    9.24       0.0  T
   2    -50.7491096 -0.390394E-08  0.337E-03    9.24       5.8  T
   3    -50.7491096 -0.398433E-08  0.589E-04    9.24      33.3  T
   4    -50.7491096 -0.308503E-09  0.102E-04    9.24     191.9  T
speedup  0.81
cpu  time for SCC    0.00 s
wall time for SCC    0.00 s
speedup  0.98
cpu  time for grad    0.01 s
wall time for grad    0.01 s
 E :    -50.45987841  G :  0.000223    pred/act E change: -0.222D-06 -0.133D-06
Maxdispl :   0.0027   ||displ|| :   0.0049   Lambda : -0.150D-06
Largest |displ|/coords:  0.0027 (   1)  0.0017 (   2)  0.0014 (   4)
................................................................................
.............................. CYCLE  111 ......................................
................................................................................
   1    -50.7491271 -0.507491E+02  0.308E-03    9.24       0.0  T
   2    -50.7491271 -0.154287E-08  0.227E-03    9.24       8.6  T
   3    -50.7491271 -0.161860E-08  0.361E-04    9.24      54.3  T
   4    -50.7491271 -0.116920E-09  0.607E-05    9.24     323.3  T
speedup  1.08
cpu  time for SCC    0.00 s
wall time for SCC    0.00 s
speedup  0.98
cpu  time for grad    0.01 s
wall time for grad    0.01 s
 E :    -50.45987852  G :  0.000201    pred/act E change: -0.977D-07 -0.109D-06
Maxdispl :   0.0027   ||displ|| :   0.0050   Lambda : -0.126D-06
Largest |displ|/coords:  0.0027 (   2)  0.0019 (   6)  0.0018 (   5)
................................................................................
.............................. CYCLE  112 ......................................
................................................................................
   1    -50.7491404 -0.507491E+02  0.411E-03    9.24       0.0  T
   2    -50.7491404 -0.195919E-08  0.310E-03    9.24       6.3  T
   3    -50.7491404 -0.207950E-08  0.305E-04    9.24      64.3  T
   4    -50.7491404 -0.179227E-09  0.939E-05    9.24     208.8  T
speedup  1.05
cpu  time for SCC    0.00 s
wall time for SCC    0.00 s
speedup  0.98
cpu  time for grad    0.01 s
wall time for grad    0.01 s
 E :    -50.45987862  G :  0.000192    pred/act E change: -0.749D-07 -0.920D-07
Maxdispl :   0.0035   ||displ|| :   0.0064   Lambda : -0.126D-06
Largest |displ|/coords:  0.0035 (   2)  0.0026 (   6)  0.0022 (   5)

   *** GEOMETRY OPTIMIZATION CONVERGED AFTER 112 ITERATIONS ***

------------------------------------------------------------------------
 total energy gain (kcal):     -0.3299
------------------------------------------------------------------------
================
 final structure:
================
$coord
       -1.21628951821686        1.63078118013076       -2.05419168579962      S 
        0.78012153689274        3.43363314500270       -1.33347572922046      O 
       -2.50001145344631        2.22490653010058       -4.34030271155684      O 
       -0.18140362920449       -0.95261699164904       -1.93880508779902      O 
       -3.20959176289280        1.79588289826618        0.17559493141665      O 
       -5.77113616855006       -3.29439847864470        1.77980493687576      O 
       -7.10427301702657       -2.15367755268231        2.22829516552050      H 
        6.77525125519692        0.09820473801003        1.30910407717313      O 
        8.36788868882262        0.95167289596497        1.19214270154594      H 
       -4.87247410242251       -2.39129137144225       -3.19856251569549      O 
       -5.61658072870941       -3.18115661673236       -0.06439655213038      H 
       -5.21076254267471       -0.78092194710061       -3.97862858534229      H 
       -3.04638648237959       -2.41380944607488       -3.05135813044940      H 
       -1.05140779253744       -1.90482050681840        2.84652265964811      O 
       -0.45666694425437       -2.17272966869705        1.11514821278209      H 
       -2.68898794043900        0.56789991725782        1.45830480122971      H 
       -2.67334604893500       -2.80032539119404        2.92493063378880      H 
        4.54500123352428        0.37758894524616       -3.12543919068251      O 
        3.87073573707297        2.07499228720640       -3.09539398479457      H 
        6.11471288492360       -0.02134546524429       -0.44688800040822      H 
        3.03422454846846       -0.65943912122120       -2.96148596461112      H 
        2.42487542024174        1.92762273641403        2.97061416351689      N 
        1.72696512782668        2.70340001101807        1.18899300139772      H 
        1.24667732602324        0.45399071066885        3.46879595975264      H 
        4.25479347795317        1.21498057483018        2.59257017841982      H 
        2.45807091369200        3.27097604412486        4.33810675325296      H 
$end
 
 Bond Distances (Angstroems)
 ---------------------------
S1-O2=1.4737         S1-O3=1.4226         S1-O4=1.4740         S1-O5=1.5851         O2-S1=1.4737         O3-S1=1.4226         
O4-S1=1.4740         O5-S1=1.5851         O5-H16=0.9792        O6-H7=0.9583         O6-H11=0.9812        H7-O6=0.9583         
O8-H9=0.9582         O8-H20=0.9948        H9-O8=0.9582         O10-H12=0.9637       O10-H13=0.9695       H11-O6=0.9812        
H12-O10=0.9637       H13-O10=0.9695       O14-H15=0.9791       O14-H17=0.9813       H15-O14=0.9791       H16-O5=0.9792        
H17-O14=0.9813       O18-H19=0.9666       O18-H21=0.9736       H19-O18=0.9666       H20-O8=0.9948        H21-O18=0.9736       
N22-H23=1.0926       N22-H24=1.0326       N22-H25=1.0583       N22-H26=1.0145       H23-N22=1.0926       H24-N22=1.0326       
H25-N22=1.0583       H26-N22=1.0145       
 N  H  Rav=1.0495 sigma=0.0293  Rmin=1.0145  Rmax=1.0926     4
 O  H  Rav=0.9732 sigma=0.0107  Rmin=0.9582  Rmax=0.9948    11
 S  O  Rav=1.4888 sigma=0.0594  Rmin=1.4226  Rmax=1.5851     4
 
 selected bond angles (degree)
 --------------------
O3-S1-O2=114.79                O4-S1-O2=108.87                O4-S1-O3=114.68                O5-S1-O2=104.40                
O5-S1-O3=107.64                O5-S1-O4=105.52                H16-O5-S1=106.99               H11-O6-H7=105.62               
H20-O8-H9=106.18               H13-O10-H12=103.32             
 
 selected dihedral angles (degree)
 ---------------------------------
H16-O5-S1-O2=271.49           H16-O5-S1-O3=149.08           H16-O5-S1-O4= 26.19           
 
 CMA Distance (Angstroems)
 ---------------------------
R(CMA):  1.9631

========================================================================
 FINAL SINGLEPOINT CALCULATION ON OPTIMIZED GEOMETRY
========================================================================

 Ncao       : 65
 Nao        : 64
 Nshell     : 38
 Nel        : 80
 T(el)      :   300.0
 intcut     :    25.0
 scfconv/Eh :  0.100E-05
   qconv/e  :  0.100E-03
 intneglect :  0.100E-07
 broydamp   :      0.250
 iter      E             dE          RMSdq      gap      omega  full diag
   1    -50.7491404 -0.507491E+02  0.397E-05    9.24       0.0  T
   2    -50.7491404 -0.110845E-11  0.259E-05    9.24     757.5  T
   3    -50.7491404 -0.738964E-12  0.597E-06    9.24    3286.2  T
speedup  1.07
cpu  time for SCC    0.00 s
wall time for SCC    0.00 s

   *** convergence criteria satisfied after 3 iterations ***

          eigenvalues
 #    :          28         29         30         31         32         33         34         35
 occ. :        2.000      2.000      2.000      2.000      2.000      2.000      2.000      2.000
 eps  :       -13.539    -13.289    -12.722    -12.624    -12.499    -12.394    -12.320    -12.178
 #    :          36         37         38         39         40         41         42         43
 occ. :        2.000      2.000      2.000      2.000      2.000      0.000      0.000      0.000
 eps  :       -12.079    -12.018    -12.001    -11.810    -11.794     -2.559     -1.371     -0.288
 #    :          44         45         46         47         48         49         50         51
 occ. :        0.000      0.000      0.000      0.000      0.000      0.000      0.000      0.000
 eps  :         0.642      0.868      1.392      1.812      2.936      3.354      4.276      4.598


   #   Z            q   n(s)   n(p)   n(d)      C6AA      α(0)
   1  16 S      1.703  1.589  1.767  0.940    88.699    15.851
   2   8 O     -0.750  1.772  4.978  0.000    30.089     7.355
   3   8 O     -0.689  1.760  4.929  0.000    28.399     7.145
   4   8 O     -0.793  1.784  5.009  0.000    31.376     7.510
   5   8 O     -0.642  1.767  4.875  0.000    26.188     6.908
   6   8 O     -0.612  1.746  4.866  0.000    25.487     6.814
   7   1 H      0.284  0.716  0.000  0.000     0.772     1.380
   8   8 O     -0.611  1.744  4.866  0.000    25.445     6.808
   9   1 H      0.288  0.712  0.000  0.000     0.760     1.369
  10   8 O     -0.607  1.734  4.873  0.000    25.359     6.797
  11   1 H      0.331  0.669  0.000  0.000     0.635     1.252
  12   1 H      0.302  0.698  0.000  0.000     0.715     1.328
  13   1 H      0.304  0.696  0.000  0.000     0.709     1.322
  14   8 O     -0.651  1.755  4.897  0.000    26.444     6.940
  15   1 H      0.324  0.676  0.000  0.000     0.655     1.271
  16   1 H      0.367  0.633  0.000  0.000     0.546     1.158
  17   1 H      0.338  0.662  0.000  0.000     0.616     1.233
  18   8 O     -0.604  1.741  4.863  0.000    25.271     6.785
  19   1 H      0.304  0.696  0.000  0.000     0.710     1.323
  20   1 H      0.341  0.659  0.000  0.000     0.611     1.228
  21   1 H      0.315  0.685  0.000  0.000     0.677     1.292
  22   7 N     -0.349  1.276  4.073  0.000    28.967     7.994
  23   1 H      0.301  0.699  0.000  0.000     0.709     1.318
  24   1 H      0.279  0.721  0.000  0.000     0.780     1.384
  25   1 H      0.298  0.702  0.000  0.000     0.719     1.328
  26   1 H      0.230  0.770  0.000  0.000     0.966     1.539

 Mol. C6AA /au·bohr⁶  :       5455.468139
 Mol. C8AA /au·bohr⁸  :     118016.031936
 Mol. α(0) /au        :        106.634658

 
 Wiberg/Mayer (AO) data. WBOs > 0.1 written file <wbo>
 largest (>0.05) Wiberg bond orders for each atom
           total WBO             WBO to atom ...
     1  S   4.821    O    3 1.450    O    2 1.218    O    4 1.217    O    5 0.905
     2  O   1.751    S    1 1.218    H   23 0.160    O    3 0.105    O    4 0.100    O    5 0.074    N   22 0.062
     3  O   1.770    S    1 1.450    O    4 0.110    O    2 0.105    O    5 0.072
     4  O   1.684    S    1 1.217    O    3 0.110    O    2 0.100    O    5 0.076
     5  O   1.934    S    1 0.905    H   16 0.770    O    4 0.076    O    2 0.074    O    3 0.072
     6  O   1.861    H    7 0.916    H   11 0.835    H   17 0.053
     7  H   0.919    O    6 0.916
     8  O   1.904    H    9 0.911    H   20 0.798    H   25 0.105
     9  H   0.917    O    8 0.911
    10  O   1.865    H   12 0.892    H   13 0.867    H   11 0.053
    11  H   0.891    O    6 0.835    O   10 0.053
    12  H   0.909    O   10 0.892
    13  H   0.907    O   10 0.867
    14  O   1.883    H   15 0.841    H   17 0.819    H   16 0.071
    15  H   0.895    O   14 0.841
    16  H   0.865    O    5 0.770    O   14 0.071
    17  H   0.885    O   14 0.819    O    6 0.053
    18  O   1.899    H   19 0.886    H   21 0.857    H   20 0.085
    19  H   0.908    O   18 0.886
    20  H   0.884    O    8 0.798    O   18 0.085
    21  H   0.901    O   18 0.857
    22  N   3.518    H   26 0.944    H   24 0.871    H   25 0.802    H   23 0.741    O    2 0.062
    23  H   0.910    N   22 0.741    O    2 0.160
    24  H   0.922    N   22 0.871
    25  H   0.911    N   22 0.802    O    8 0.105
    26  H   0.947    N   22 0.944
 MOs/occ written to file <molden.input>
 
molecular dipole:
                 x           y           z       tot (Debye)
 q only:        1.629       0.688       2.742
   full:        1.323       1.076       2.413       7.511
molecular quadrupole (traceless):
                xx          xy          yy          xz          yz          zz
 q only:        7.801       5.894      -5.699       0.841      10.589      -2.101
  q+dip:        9.400       5.269      -6.462       0.569      11.258      -2.938
   full:        9.600       5.374      -6.685       0.347      11.081      -2.914

SCC energy    :     -50.7491404
rep           :       0.2890573
ES            :       0.2687511
AES           :      -0.0752965
AXC           :      -0.0089195
disp          :      -0.0198726
XB            :       0.0000000
fix           :       0.0000000
total E       :     -50.4598786
atomizationE  :       4.9901828     3131.39
(atE without considering molecular charge,
 total energy contains solvation terms)
H-L gap (eV)  :          9.2357
optimized geometry written to: xtbopt.xyz


------------------------------------------------------------------------
 * finished run on 2019/09/16 at 11:34:38.692     
------------------------------------------------------------------------
 total:
 * wall-time:     0 d,  0 h,  0 min,  2.529 sec
 *  cpu-time:     0 d,  0 h,  0 min,  2.508 sec
 * ratio c/w:     0.992 speedup
 SCF:
 * wall-time:     0 d,  0 h,  0 min,  0.136 sec
 *  cpu-time:     0 d,  0 h,  0 min,  0.132 sec
 * ratio c/w:     0.972 speedup
 ANC optimizer:
 * wall-time:     0 d,  0 h,  0 min,  2.369 sec
 *  cpu-time:     0 d,  0 h,  0 min,  2.355 sec
 * ratio c/w:     0.994 speedup

