      -----------------------------------------------------------      
     |                   =====================                   |     
     |                           x T B                           |     
     |                   =====================                   |     
     |                         S. Grimme                         |     
     |          Mulliken Center for Theoretical Chemistry        |     
     |                    University of Bonn                     |     
     |                 Version 6.0.1 (SAW181210)                 |     
      -----------------------------------------------------------      

   This program is distributed in the hope that it will be useful,
   but WITHOUT ANY WARRANTY; without even the implied warranty of
   MERCHANTABILITY or FITNESS FOR A PARTICULAR PURPOSE.
   
   FOR NON-COMMERCIAL, ACADEMIA USE ONLY.
   
   Cite this work as:
   S. Grimme, C. Bannwarth, P. Shushkov, J. Comput. Theory Chem., 2017,
   13, 1989-2009.
   C. Bannwarth, S. Ehlert and S. Grimme., ChemRxiv, 2018, preprint.
   http://doi.org/10.26434/chemrxiv.7246238.v1
   
   for sTDA-xTB:
   S. Grimme and C. Bannwarth, J. Chem. Phys., 2016, 145, 054103.
   
   in the mass-spec context:
   V. Asgeirsson, C. Bauer and S. Grimme, Chem. Sci., 2017, 8, 4879.
   
   if GBSA is used:
   P. Shushkov, F. März and S. Grimme, unpublished.
   
   for ANC optimizer:
   S. Grimme, unpublished.
   Rational Function algorithm used in ANCopt:
   F. Eckert, P. Pulay, H.-J. Werner, J. Comput. Chem., 1997, 18, 1473.
   
   with help from (in alphabetical order)
   C. Bannwarth, F. Bohle, G. Brandenburg, E. Caldeweyher, M. Checinski,
   S. Dohm, S. Ehlert, S. Ehrlich, F. März, H. Neugebauer, J. Pisarek,
   P. Pracht, P. Shushkov, and S. Spicher.
   
 * started run on 2019/09/16 at 11:44:32.469     
========================================================================
 # omp threads = 1
========================================================================
number of atoms            : 26
number of electrons        : 80
charge                     : 0
spin                       : .0
first test random number   : .5980

########################################################################
# WARNING! Please study the warnings concerning your input carefully
#  - XTBPATH is not set, using XTBHOME instead
#  - the use of '-opt' is discouraged, please use '--opt' next time
#  - the use of '-chrg' is discouraged, please use '--chrg' next time
#  - the use of '-uhf' is discouraged, please use '--uhf' next time
########################################################################

           ------------------------------------------------- 
          |                 G F N 2 - x T B                 |
          | Geometry, Frequencies, Noncovalent interactions |
          |            JCTC 2018 parametrisation            |
           ------------------------------------------------- 
      method parameters     
 k(s)        :  1.8500
 k(p)        :  2.2300
 k(d)        :  2.2300
 k(f)        :  2.0000
 kEN (H0ij)  : -2.0000
 D4 a1       :  0.5200
 D4 a2       :  5.0000
 D4 s6       :  1.0000
 D4 s8       :  2.7000
 D4 s9       :  5.0000
 alphaj      :  2.0000


            Z     q(EN)     CN     RAES       Cart. coordinates
     1  S   6.0    0.68    4.13    3.93    -2.46939     1.44601     1.03921
     2  O   6.0   -0.31    1.22    1.80    -2.57797    -1.19326     0.06423
     3  O   6.0   -0.31    1.17    1.80    -2.57477     1.41229     3.85273
     4  O   6.0   -0.32    1.25    1.80    -0.06840     2.65695     0.20436
     5  O   6.0   -0.30    1.20    1.80    -4.65644     2.90806     0.03554
     6  O   6.0   -0.40    1.64    1.81     4.31489    -2.42478    -0.45470
     7  H   1.0    0.17    0.94    1.42     5.86130    -3.46191    -0.58421
     8  O   6.0   -0.36    1.51    1.80     1.25378    -1.24264    -6.44813
     9  H   1.0    0.18    0.94    1.42     0.83918    -1.18987    -8.26722
    10  O   6.0   -0.22    2.90    2.54    -7.15896     3.43533     4.16837
    11  H   1.0    0.12    0.96    1.43    -8.61723     2.28808     4.38540
    12  H   1.0    0.14    1.01    1.43    -5.63893     2.81191     5.05767
    13  H   1.0    0.15    1.04    1.43    -6.81582     3.79710     2.36756
    14  O   6.0   -0.22    2.94    2.64     0.53947    -3.73848    -2.74490
    15  H   1.0    0.16    1.15    1.45     2.12046    -3.55323    -1.76714
    16  H   1.0    0.16    1.05    1.44    -0.94112    -3.08290    -1.81320
    17  H   1.0    0.17    1.20    1.46     0.68011    -2.98822    -4.45043
    18  O   6.0   -0.23    2.94    2.64     3.23795     1.12940    -3.15977
    19  H   1.0    0.16    1.16    1.45     4.01652    -0.19750    -2.10005
    20  H   1.0    0.17    1.20    1.46     2.52067     0.43388    -4.73831
    21  H   1.0    0.15    1.04    1.43     1.98582     2.13881    -2.20858
    22  N   5.0   -0.14    3.97    2.79     2.82978    -0.27701     3.51232
    23  H   1.0    0.08    0.99    1.43     4.28062     0.21298     4.71207
    24  H   1.0    0.13    1.16    1.46     3.53675    -1.32590     2.03432
    25  H   1.0    0.09    0.99    1.43     1.51306    -1.32975     4.48310
    26  H   1.0    0.11    1.07    1.44     1.98869     1.33464     2.81977

  Z AO/shell   Hii/eV     exponent
  1     Wed Apr 25 08:07:45 CEST 2018   EN: 2.200 GM2: 0.406  GM3: 0.0800  RAES: 1.40
     1s    -10.707211    1.230000
  7     Wed Apr 25 08:07:45 CEST 2018   EN: 3.040 GM2: 0.461  GM3:-0.0640  RAES: 1.90
     2s    -16.686243    2.339881
     2p    -12.523956    2.014332
  8     Wed Apr 25 08:07:45 CEST 2018   EN: 3.440 GM2: 0.452  GM3:-0.0517  RAES: 1.80
     2s    -20.229985    2.439742
     2p    -15.503117    2.137023
 16     Tue Apr 24 11:44:34 CEST 2018   EN: 2.580 GM2: 0.340  GM3:-0.0502  RAES: 3.10
     3s    -20.029654    1.981333
     3p    -11.377694    2.025643
     3d     -0.420282    1.702555
 no old-style atom pair restraining (fixing) potential

molecular fragmentation (1/2 indicates fragments):
11111222222222222222222222
# atoms in fragment 1/2:     5    21
 fragment masses (1/2) :       96.06      109.12
CMA distance (Bohr)    :   4.191
constraining FC (au)   :  0.0500
           ------------------------------------------------- 
          |        Self-Consistent Charge Iterations        |
           ------------------------------------------------- 

 Ncao       : 65
 Nao        : 64
 Nshell     : 38
 Nel        : 80
 T(el)      :   300.0
 intcut     :    25.0
 scfconv/Eh :  0.100E-05
   qconv/e  :  0.100E-03
 intneglect :  0.100E-07
 broydamp   :      0.250
 iter      E             dE          RMSdq      gap      omega  full diag
   1    -50.4695813 -0.504696E+02  0.707E+00   10.32       0.0  T
   2    -50.5126443 -0.430630E-01  0.509E+00    9.51       1.0  T
   3    -50.5522557 -0.396113E-01  0.111E+00    4.59       1.0  T
   4    -50.5559229 -0.366722E-02  0.595E-01    5.05       1.0  T
   5    -50.5568571 -0.934244E-03  0.225E-01    5.09       1.0  T
   6    -50.5570777 -0.220563E-03  0.116E-01    5.18       1.0  T
   7    -50.5571574 -0.796569E-04  0.417E-02    5.24       1.0  T
   8    -50.5571643 -0.694652E-05  0.269E-02    5.24       1.0  T
   9    -50.5571685 -0.419063E-05  0.757E-03    5.26       2.6  T
  10    -50.5571687 -0.233094E-06  0.176E-03    5.26      11.1  T
  11    -50.5571687 -0.121866E-07  0.855E-04    5.26      22.9  T
  12    -50.5571687 -0.246523E-08  0.363E-04    5.26      54.0  T
speedup  1.01
cpu  time for SCC    0.01 s
wall time for SCC    0.01 s

   *** convergence criteria satisfied after 12 iterations ***

          eigenvalues
 #    :          28         29         30         31         32         33         34         35
 occ. :        2.000      2.000      2.000      2.000      2.000      2.000      2.000      2.000
 eps  :       -10.862    -10.765    -10.671    -10.406    -10.357    -10.129     -9.961     -9.894
 #    :          36         37         38         39         40         41         42         43
 occ. :        2.000      2.000      2.000      2.000      2.000      0.000      0.000      0.000
 eps  :        -9.824     -9.547     -9.457     -8.258     -7.790     -2.529     -1.193      0.029
 #    :          44         45         46         47         48         49         50         51
 occ. :        0.000      0.000      0.000      0.000      0.000      0.000      0.000      0.000
 eps  :         1.285      2.111      2.508      2.783      3.279      3.622      4.107      4.335


   #   Z            q   n(s)   n(p)   n(d)      C6AA      α(0)
   1  16 S      1.470  1.609  1.916  1.005    94.179    16.334
   2   8 O     -0.781  1.776  5.004  0.000    31.001     7.465
   3   8 O     -0.824  1.779  5.045  0.000    32.319     7.622
   4   8 O     -0.785  1.773  5.012  0.000    31.130     7.481
   5   8 O     -0.784  1.779  5.005  0.000    31.089     7.476
   6   8 O     -0.843  1.823  5.020  0.000    32.891     7.690
   7   1 H      0.204  0.796  0.000  0.000     1.100     1.648
   8   8 O     -0.895  1.813  5.082  0.000    34.549     7.883
   9   1 H      0.171  0.829  0.000  0.000     1.283     1.780
  10   8 O     -0.366  1.629  4.737  0.000    20.147     6.062
  11   1 H      0.384  0.616  0.000  0.000     0.516     1.128
  12   1 H      0.421  0.579  0.000  0.000     0.448     1.052
  13   1 H      0.428  0.572  0.000  0.000     0.436     1.038
  14   8 O     -0.483  1.669  4.815  0.000    22.475     6.403
  15   1 H      0.385  0.615  0.000  0.000     0.510     1.120
  16   1 H      0.385  0.615  0.000  0.000     0.514     1.126
  17   1 H      0.401  0.599  0.000  0.000     0.477     1.082
  18   8 O     -0.481  1.668  4.812  0.000    22.423     6.395
  19   1 H      0.389  0.611  0.000  0.000     0.503     1.112
  20   1 H      0.403  0.597  0.000  0.000     0.474     1.078
  21   1 H      0.381  0.619  0.000  0.000     0.521     1.135
  22   7 N     -0.284  1.252  4.033  0.000    27.319     7.763
  23   1 H      0.230  0.770  0.000  0.000     0.964     1.538
  24   1 H      0.321  0.679  0.000  0.000     0.651     1.263
  25   1 H      0.257  0.743  0.000  0.000     0.857     1.450
  26   1 H      0.296  0.704  0.000  0.000     0.726     1.335

 Mol. C6AA /au·bohr⁶  :       5566.260499
 Mol. C8AA /au·bohr⁸  :     121170.753200
 Mol. α(0) /au        :        107.456896

 
 Wiberg/Mayer (AO) data. WBOs > 0.1 written file <wbo>
 largest (>0.05) Wiberg bond orders for each atom
           total WBO             WBO to atom ...
     1  S   5.023    O    2 1.268    O    5 1.253    O    3 1.238    O    4 1.228
     2  O   1.666    S    1 1.268    O    4 0.102    O    3 0.093    O    5 0.093    H   16 0.079
     3  O   1.625    S    1 1.238    O    5 0.100    O    2 0.093    O    4 0.088    H   12 0.063
     4  O   1.687    S    1 1.228    O    2 0.102    O    3 0.088    O    5 0.087    H   21 0.071    H   26 0.052
     5  O   1.680    S    1 1.253    H   13 0.101    O    3 0.100    O    2 0.093    O    4 0.087
     6  O   1.624    H    7 0.948    H   24 0.167    H   19 0.159    H   15 0.158    N   22 0.071    O   14 0.055    O   18 0.055
     7  H   0.959    O    6 0.948
     8  O   1.447    H    9 0.945    H   20 0.188    H   17 0.186    O   18 0.057    O   14 0.057
     9  H   0.971    O    8 0.945
    10  O   2.369    H   11 0.845    H   12 0.752    H   13 0.707
    11  H   0.853    O   10 0.845
    12  H   0.823    O   10 0.752    O    3 0.063
    13  H   0.817    O   10 0.707    O    5 0.101
    14  O   2.261    H   16 0.761    H   15 0.689    H   17 0.646    O    8 0.057    O    6 0.055
    15  H   0.852    O   14 0.689    O    6 0.158
    16  H   0.852    O   14 0.761    O    2 0.079
    17  H   0.839    O   14 0.646    O    8 0.186
    18  O   2.262    H   21 0.773    H   19 0.685    H   20 0.642    O    8 0.057    O    6 0.055
    19  H   0.849    O   18 0.685    O    6 0.159
    20  H   0.838    O   18 0.642    O    8 0.188
    21  H   0.855    O   18 0.773    O    4 0.071
    22  N   3.553    H   23 0.942    H   25 0.927    H   26 0.852    H   24 0.724    O    6 0.071
    23  H   0.947    N   22 0.942
    24  H   0.897    N   22 0.724    O    6 0.167
    25  H   0.934    N   22 0.927
    26  H   0.913    N   22 0.852    O    4 0.052
 MOs/occ written to file <molden.input>
 
molecular dipole:
                 x           y           z       tot (Debye)
 q only:       -0.659       0.387       4.883
   full:       -0.681       0.263       4.757      12.234
molecular quadrupole (traceless):
                xx          xy          yy          xz          yz          zz
 q only:       28.140     -10.128     -16.405     -14.117       4.693     -11.735
  q+dip:       28.384     -10.382     -20.097     -12.064       3.296      -8.287
   full:       28.400     -10.434     -20.439     -11.836       3.230      -7.960

SCC energy    :     -50.5571687
rep           :       0.2685545
ES            :       0.4294783
AES           :      -0.0793541
AXC           :      -0.0098769
disp          :      -0.0188559
XB            :       0.0000000
fix           :       0.0000000
total E       :     -50.2884772
atomizationE  :       4.8187814     3023.83
(atE without considering molecular charge,
 total energy contains solvation terms)
H-L gap (eV)  :          5.2606
           ------------------------------------------------- 
          |                 ===============                 |
          |                   A N C O P T                   |
          |                 ===============                 |
          |          Approximate Normal Coordinate          |
          |           Rational Function Optimizer           |
           ------------------------------------------------- 
dumping coords to <xtbopt.coord> and <xtbopt.log>
 optlevel               2
 Maxcycle             520
 Maxmicro              25
 Econv         1.000000000000000E-007
 Gconv         2.000000000000000E-004
 Maxdispl       1.00000000000000     
 Hlow          5.000000000000000E-003
 S6             20.0000000000000     
 Nvar               72

generating ANC from model Hessian ...
 Shifting diagonal of input Hessian by   4.917457495818160E-003
 Lowest  eigenvalues of input Hessian
   -0.000000   -0.000000   -0.000000    0.000000    0.000000    0.000000
    0.005000    0.005503    0.005697    0.005818    0.006792    0.007380
    0.008335    0.008696    0.008791    0.009355    0.009797    0.010864
 Highest eigenvalues
    1.571478    1.592307    1.597853    3.080608    3.082849    3.085506
 
cpu  time for ANC gen    0.02 s
wall time for ANC gen    0.02 s
................................................................................
.............................. CYCLE    1 ......................................
................................................................................
   1    -50.5571687 -0.505572E+02  0.801E-05    5.26       0.0  T
   2    -50.5571687 -0.154543E-10  0.651E-05    5.26     301.4  T
   3    -50.5571687 -0.143245E-10  0.277E-05    5.26     708.2  T
speedup  1.03
cpu  time for SCC    0.00 s
wall time for SCC    0.00 s
speedup  1.07
cpu  time for grad    0.01 s
wall time for grad    0.01 s
 E :    -50.28847717  G :  0.207972    pred/act E change:  0.000D+00  0.201D-07
Maxdispl :   0.2246   ||displ|| :   0.4710   Lambda : -0.563D-01
Largest |displ|/coords:  0.2246 (  18)  0.2029 (  17)  0.1429 (  24)
................................................................................
.............................. CYCLE    2 ......................................
................................................................................
   1    -50.5780622 -0.505781E+02  0.418E-01    5.93       0.0  T
   2    -50.5784854 -0.423250E-03  0.304E-01    6.10       1.0  T
   3    -50.5786829 -0.197479E-03  0.885E-02    6.42       1.0  T
   4    -50.5787116 -0.287435E-04  0.261E-02    6.41       1.0  T
   5    -50.5787126 -0.962283E-06  0.823E-03    6.40       2.4  T
   6    -50.5787127 -0.130187E-06  0.444E-03    6.40       4.4  T
   7    -50.5787128 -0.709067E-07  0.184E-03    6.40      10.6  T
speedup  1.13
cpu  time for SCC    0.01 s
wall time for SCC    0.01 s
speedup  1.00
cpu  time for grad    0.01 s
wall time for grad    0.01 s
 E :    -50.33590236  G :  0.131432    pred/act E change:  0.000D+00 -0.474D-01
Maxdispl :   0.3055   ||displ|| :   0.5644   Lambda : -0.383D-01
Largest |displ|/coords:  0.3055 (  18)  0.2286 (  17)  0.1979 (  24)
................................................................................
.............................. CYCLE    3 ......................................
................................................................................
   1    -50.5939309 -0.505939E+02  0.445E-01    6.84       0.0  T
   2    -50.5948297 -0.898836E-03  0.313E-01    7.01       1.0  T
   3    -50.5952384 -0.408737E-03  0.120E-01    7.27       1.0  T
   4    -50.5952655 -0.270395E-04  0.335E-02    7.27       1.0  T
   5    -50.5952673 -0.184564E-05  0.119E-02    7.27       1.6  T
   6    -50.5952676 -0.301056E-06  0.629E-03    7.27       3.1  T
   7    -50.5952678 -0.142661E-06  0.262E-03    7.27       7.5  T
   8    -50.5952678 -0.340404E-07  0.102E-03    7.27      19.1  T
speedup  0.99
cpu  time for SCC    0.01 s
wall time for SCC    0.01 s
speedup  1.01
cpu  time for grad    0.01 s
wall time for grad    0.01 s
 E :    -50.36862322  G :  0.097401    pred/act E change: -0.344D-01 -0.327D-01
Maxdispl :   0.3016   ||displ|| :   0.5589   Lambda : -0.250D-01
Largest |displ|/coords:  0.3016 (  18)  0.2193 (  12)  0.1924 (  17)
................................................................................
.............................. CYCLE    4 ......................................
................................................................................
   1    -50.6040867 -0.506041E+02  0.483E-01    7.42       0.0  T
   2    -50.6054934 -0.140669E-02  0.330E-01    7.57       1.0  T
   3    -50.6061223 -0.628872E-03  0.141E-01    7.78       1.0  T
   4    -50.6061499 -0.275953E-04  0.404E-02    7.79       1.0  T
   5    -50.6061530 -0.308840E-05  0.152E-02    7.79       1.3  T
   6    -50.6061534 -0.456246E-06  0.766E-03    7.79       2.6  T
   7    -50.6061536 -0.179882E-06  0.297E-03    7.79       6.6  T
   8    -50.6061537 -0.401382E-07  0.116E-03    7.79      16.9  T
speedup  0.99
cpu  time for SCC    0.01 s
wall time for SCC    0.01 s
speedup  1.01
cpu  time for grad    0.01 s
wall time for grad    0.01 s
 E :    -50.38828207  G :  0.078991    pred/act E change: -0.253D-01 -0.197D-01
Maxdispl :   0.2441   ||displ|| :   0.4481   Lambda : -0.130D-01
Largest |displ|/coords:  0.2441 (  12)  0.1574 (   3)  0.1458 (  14)
................................................................................
.............................. CYCLE    5 ......................................
................................................................................
   1    -50.6111232 -0.506111E+02  0.459E-01    7.92       0.0  T
   2    -50.6119756 -0.852414E-03  0.320E-01    8.11       1.0  T
   3    -50.6123370 -0.361384E-03  0.126E-01    8.38       1.0  T
   4    -50.6123665 -0.295185E-04  0.283E-02    8.38       1.0  T
   5    -50.6123688 -0.231531E-05  0.998E-03    8.37       2.0  T
   6    -50.6123690 -0.198951E-06  0.580E-03    8.37       3.4  T
   7    -50.6123691 -0.855703E-07  0.203E-03    8.37       9.7  T
speedup  1.11
cpu  time for SCC    0.01 s
wall time for SCC    0.01 s
speedup  0.99
cpu  time for grad    0.01 s
wall time for grad    0.01 s
 E :    -50.39853579  G :  0.067428    pred/act E change: -0.164D-01 -0.103D-01
Maxdispl :   0.1793   ||displ|| :   0.3739   Lambda : -0.839D-02
Largest |displ|/coords:  0.1793 (  11)  0.1375 (   7)  0.1283 (   3)
................................................................................
.............................. CYCLE    6 ......................................
................................................................................
   1    -50.6272009 -0.506272E+02  0.326E-01    8.69       0.0  T
   2    -50.6275261 -0.325234E-03  0.237E-01    8.76       1.0  T
   3    -50.6276594 -0.133285E-03  0.943E-02    8.86       1.0  T
   4    -50.6276746 -0.152199E-04  0.225E-02    8.88       1.0  T
   5    -50.6276762 -0.164440E-05  0.702E-03    8.88       2.8  T
   6    -50.6276763 -0.731289E-07  0.362E-03    8.88       5.4  T
   7    -50.6276763 -0.285564E-07  0.124E-03    8.88      15.9  T
speedup  0.95
cpu  time for SCC    0.01 s
wall time for SCC    0.01 s
speedup  0.99
cpu  time for grad    0.01 s
wall time for grad    0.01 s
 E :    -50.40329129  G :  0.056292    pred/act E change: -0.778D-02 -0.476D-02
Maxdispl :   0.2131   ||displ|| :   0.4347   Lambda : -0.877D-02
Largest |displ|/coords:  0.2131 (  12)  0.1548 (  10)  0.1523 (   1)
................................................................................
.............................. CYCLE    7 ......................................
................................................................................
   1    -50.6205447 -0.506205E+02  0.668E-01    8.77       0.0  T
   2    -50.6213375 -0.792864E-03  0.480E-01    8.99       1.0  T
   3    -50.6216713 -0.333774E-03  0.145E-01    9.20       1.0  T
   4    -50.6217337 -0.624339E-04  0.303E-02    9.19       1.0  T
   5    -50.6217357 -0.198063E-05  0.117E-02    9.18       1.7  T
   6    -50.6217365 -0.805990E-06  0.681E-03    9.19       2.9  T
   7    -50.6217366 -0.689796E-07  0.128E-03    9.19      15.3  T
   8    -50.6217366 -0.863651E-08  0.482E-04    9.19      40.7  T
speedup  0.99
cpu  time for SCC    0.01 s
wall time for SCC    0.01 s
speedup  1.01
cpu  time for grad    0.01 s
wall time for grad    0.01 s
 E :    -50.40631071  G :  0.085621    pred/act E change: -0.478D-02 -0.302D-02
Maxdispl :   0.1646   ||displ|| :   0.4117   Lambda : -0.142D-01
Largest |displ|/coords:  0.1646 (   8)  0.1578 (  10)  0.1387 (  11)
................................................................................
.............................. CYCLE    8 ......................................
................................................................................
   1    -50.6429980 -0.506430E+02  0.586E-01    9.34       0.0  T
   2    -50.6432570 -0.258981E-03  0.439E-01    9.34       1.0  T
   3    -50.6434221 -0.165093E-03  0.935E-02    9.33       1.0  T
   4    -50.6434514 -0.293994E-04  0.326E-02    9.33       1.0  T
   5    -50.6434538 -0.234254E-05  0.926E-03    9.34       2.1  T
   6    -50.6434539 -0.609874E-07  0.476E-03    9.34       4.1  T
   7    -50.6434539 -0.654485E-07  0.110E-03    9.34      17.9  T
speedup  0.98
cpu  time for SCC    0.01 s
wall time for SCC    0.01 s
speedup  1.00
cpu  time for grad    0.01 s
wall time for grad    0.01 s
 E :    -50.40925523  G :  0.067156    pred/act E change: -0.521D-02 -0.294D-02
Maxdispl :   0.1373   ||displ|| :   0.3267   Lambda : -0.745D-02
Largest |displ|/coords:  0.1373 (   1)  0.1079 (  14)  0.1007 (   3)
................................................................................
.............................. CYCLE    9 ......................................
................................................................................
   1    -50.6427803 -0.506428E+02  0.397E-01    9.32       0.0  T
   2    -50.6429991 -0.218723E-03  0.293E-01    9.34       1.0  T
   3    -50.6431034 -0.104342E-03  0.817E-02    9.33       1.0  T
   4    -50.6431251 -0.217060E-04  0.255E-02    9.33       1.0  T
   5    -50.6431267 -0.158942E-05  0.630E-03    9.33       3.1  T
   6    -50.6431268 -0.108173E-06  0.421E-03    9.33       4.7  T
   7    -50.6431268 -0.252184E-07  0.830E-04    9.33      23.6  T
speedup  0.97
cpu  time for SCC    0.01 s
wall time for SCC    0.01 s
speedup  0.99
cpu  time for grad    0.01 s
wall time for grad    0.01 s
 E :    -50.41477938  G :  0.054880    pred/act E change: -0.831D-02 -0.552D-02
Maxdispl :   0.1653   ||displ|| :   0.2978   Lambda : -0.446D-02
Largest |displ|/coords:  0.1653 (   2)  0.1103 (   5)  0.0788 (   4)
................................................................................
.............................. CYCLE   10 ......................................
................................................................................
   1    -50.6528053 -0.506528E+02  0.209E-01    9.34       0.0  T
   2    -50.6529273 -0.122073E-03  0.154E-01    9.33       1.0  T
   3    -50.6529844 -0.570920E-04  0.645E-02    9.31       1.0  T
   4    -50.6529934 -0.898660E-05  0.198E-02    9.32       1.0  T
   5    -50.6529942 -0.756815E-06  0.581E-03    9.32       3.4  T
   6    -50.6529942 -0.491248E-07  0.313E-03    9.32       6.3  T
speedup  1.09
cpu  time for SCC    0.01 s
wall time for SCC    0.01 s
speedup  1.05
cpu  time for grad    0.01 s
wall time for grad    0.01 s
 E :    -50.41836678  G :  0.058244    pred/act E change: -0.412D-02 -0.359D-02
Maxdispl :   0.1479   ||displ|| :   0.2916   Lambda : -0.563D-02
Largest |displ|/coords:  0.1479 (   2)  0.1267 (  17)  0.0856 (   3)
................................................................................
.............................. CYCLE   11 ......................................
................................................................................
   1    -50.6569711 -0.506570E+02  0.195E-01    9.30       0.0  T
   2    -50.6570571 -0.859631E-04  0.139E-01    9.29       1.0  T
   3    -50.6570967 -0.395897E-04  0.489E-02    9.28       1.0  T
   4    -50.6571020 -0.527816E-05  0.134E-02    9.28       1.5  T
   5    -50.6571024 -0.464362E-06  0.411E-03    9.28       4.8  T
   6    -50.6571025 -0.264064E-07  0.203E-03    9.28       9.7  T
speedup  1.09
cpu  time for SCC    0.01 s
wall time for SCC    0.01 s
speedup  0.98
cpu  time for grad    0.01 s
wall time for grad    0.01 s
 E :    -50.42178494  G :  0.054040    pred/act E change: -0.243D-02 -0.342D-02
Maxdispl :   0.0890   ||displ|| :   0.2610   Lambda : -0.631D-02
Largest |displ|/coords:  0.0890 (  14)  0.0852 (   2)  0.0784 (  15)
................................................................................
.............................. CYCLE   12 ......................................
................................................................................
   1    -50.6732342 -0.506732E+02  0.238E-01    9.29       0.0  T
   2    -50.6734158 -0.181642E-03  0.172E-01    9.29       1.0  T
   3    -50.6735151 -0.992099E-04  0.765E-02    9.29       1.0  T
   4    -50.6735288 -0.137548E-04  0.200E-02    9.29       1.0  T
   5    -50.6735297 -0.910363E-06  0.827E-03    9.29       2.4  T
   6    -50.6735298 -0.610435E-07  0.362E-03    9.29       5.4  T
   7    -50.6735298 -0.239805E-07  0.118E-03    9.29      16.6  T
speedup  0.92
cpu  time for SCC    0.01 s
wall time for SCC    0.01 s
speedup  0.97
cpu  time for grad    0.01 s
wall time for grad    0.01 s
 E :    -50.42486054  G :  0.054811    pred/act E change: -0.305D-02 -0.308D-02
Maxdispl :   0.1720   ||displ|| :   0.3066   Lambda : -0.637D-02
Largest |displ|/coords:  0.1720 (   2)  0.1326 (   4)  0.1215 (  18)
................................................................................
.............................. CYCLE   13 ......................................
................................................................................
   1    -50.6711169 -0.506711E+02  0.235E-01    9.24       0.0  T
   2    -50.6711764 -0.594341E-04  0.166E-01    9.24       1.0  T
   3    -50.6712152 -0.388465E-04  0.467E-02    9.23       1.0  T
   4    -50.6712196 -0.437229E-05  0.171E-02    9.23       1.1  T
   5    -50.6712200 -0.423268E-06  0.441E-03    9.23       4.4  T
   6    -50.6712201 -0.427166E-07  0.244E-03    9.23       8.0  T
speedup  0.93
cpu  time for SCC    0.00 s
wall time for SCC    0.01 s
speedup  0.98
cpu  time for grad    0.01 s
wall time for grad    0.01 s
 E :    -50.42738125  G :  0.045537    pred/act E change: -0.337D-02 -0.252D-02
Maxdispl :   0.1359   ||displ|| :   0.2472   Lambda : -0.380D-02
Largest |displ|/coords:  0.1359 (   2)  0.0637 (  22)  0.0579 (  14)
................................................................................
.............................. CYCLE   14 ......................................
................................................................................
   1    -50.6804884 -0.506805E+02  0.191E-01    9.22       0.0  T
   2    -50.6806183 -0.129835E-03  0.137E-01    9.22       1.0  T
   3    -50.6806777 -0.594514E-04  0.591E-02    9.21       1.0  T
   4    -50.6806854 -0.771680E-05  0.130E-02    9.21       1.5  T
   5    -50.6806859 -0.496610E-06  0.540E-03    9.21       3.6  T
   6    -50.6806860 -0.288047E-07  0.283E-03    9.21       6.9  T
speedup  0.91
cpu  time for SCC    0.00 s
wall time for SCC    0.01 s
speedup  0.98
cpu  time for grad    0.01 s
wall time for grad    0.01 s
 E :    -50.43075123  G :  0.039205    pred/act E change: -0.349D-02 -0.337D-02
Maxdispl :   0.2107   ||displ|| :   0.5387   Lambda : -0.947D-02
Largest |displ|/coords:  0.2107 (   2)  0.1575 (  30)  0.1276 (  47)
................................................................................
.............................. CYCLE   15 ......................................
................................................................................
   1    -50.7122398 -0.507122E+02  0.471E-01    9.21       0.0  T
   2    -50.7128464 -0.606566E-03  0.347E-01    9.21       1.0  T
   3    -50.7131513 -0.304910E-03  0.137E-01    9.20       1.0  T
   4    -50.7131987 -0.474281E-04  0.408E-02    9.20       1.0  T
   5    -50.7132018 -0.301122E-05  0.144E-02    9.21       1.4  T
   6    -50.7132020 -0.207706E-06  0.703E-03    9.21       2.8  T
   7    -50.7132020 -0.585625E-07  0.220E-03    9.21       8.9  T
   8    -50.7132020 -0.121411E-07  0.652E-04    9.21      30.1  T
speedup  1.00
cpu  time for SCC    0.01 s
wall time for SCC    0.01 s
speedup  0.95
cpu  time for grad    0.01 s
wall time for grad    0.01 s
 E :    -50.43574049  G :  0.050264    pred/act E change: -0.202D-02 -0.499D-02
Maxdispl :   0.1698   ||displ|| :   0.2620   Lambda : -0.492D-02
Largest |displ|/coords:  0.1698 (   2)  0.0950 (  30)  0.0785 (   3)
................................................................................
.............................. CYCLE   16 ......................................
................................................................................
   1    -50.6934318 -0.506934E+02  0.217E-01    9.07       0.0  T
   2    -50.6934768 -0.449816E-04  0.157E-01    9.07       1.0  T
   3    -50.6935024 -0.256824E-04  0.422E-02    9.07       1.0  T
   4    -50.6935064 -0.393084E-05  0.133E-02    9.08       1.5  T
   5    -50.6935068 -0.396455E-06  0.428E-03    9.07       4.6  T
   6    -50.6935068 -0.262877E-07  0.229E-03    9.07       8.6  T
speedup  0.93
cpu  time for SCC    0.00 s
wall time for SCC    0.01 s
speedup  0.98
cpu  time for grad    0.01 s
wall time for grad    0.01 s
 E :    -50.43734467  G :  0.049712    pred/act E change: -0.611D-02 -0.160D-02
Maxdispl :   0.1675   ||displ|| :   0.2532   Lambda : -0.337D-02
Largest |displ|/coords:  0.1675 (   2)  0.0891 (  30)  0.0517 (  12)
................................................................................
.............................. CYCLE   17 ......................................
................................................................................
   1    -50.7027766 -0.507028E+02  0.190E-01    9.04       0.0  T
   2    -50.7028528 -0.762627E-04  0.137E-01    9.05       1.0  T
   3    -50.7028935 -0.406903E-04  0.469E-02    9.04       1.0  T
   4    -50.7028995 -0.602603E-05  0.105E-02    9.05       1.9  T
   5    -50.7028998 -0.232329E-06  0.439E-03    9.05       4.5  T
   6    -50.7028998 -0.171019E-07  0.192E-03    9.05      10.2  T
speedup  0.91
cpu  time for SCC    0.00 s
wall time for SCC    0.01 s
speedup  0.98
cpu  time for grad    0.01 s
wall time for grad    0.01 s
 E :    -50.43912554  G :  0.037566    pred/act E change: -0.263D-02 -0.178D-02
Maxdispl :   0.1387   ||displ|| :   0.3909   Lambda : -0.440D-02
Largest |displ|/coords:  0.1387 (   1)  0.1268 (  30)  0.1166 (   5)
................................................................................
.............................. CYCLE   18 ......................................
................................................................................
   1    -50.7196772 -0.507197E+02  0.315E-01    9.08       0.0  T
   2    -50.7197986 -0.121397E-03  0.236E-01    9.04       1.0  T
   3    -50.7198759 -0.773310E-04  0.630E-02    8.95       1.0  T
   4    -50.7198917 -0.157820E-04  0.186E-02    8.98       1.1  T
   5    -50.7198922 -0.486951E-06  0.606E-03    8.97       3.2  T
   6    -50.7198922 -0.305381E-07  0.310E-03    8.97       6.3  T
   7    -50.7198922 -0.181963E-07  0.846E-04    8.97      23.2  T
speedup  1.11
cpu  time for SCC    0.01 s
wall time for SCC    0.01 s
speedup  0.99
cpu  time for grad    0.01 s
wall time for grad    0.01 s
 E :    -50.44026126  G :  0.047972    pred/act E change: -0.179D-02 -0.114D-02
Maxdispl :   0.0975   ||displ|| :   0.2154   Lambda : -0.396D-02
Largest |displ|/coords:  0.0975 (  22)  0.0804 (  30)  0.0773 (   4)
................................................................................
.............................. CYCLE   19 ......................................
................................................................................
   1    -50.7168638 -0.507169E+02  0.163E-01    9.05       0.0  T
   2    -50.7169445 -0.806930E-04  0.119E-01    9.05       1.0  T
   3    -50.7169891 -0.445445E-04  0.474E-02    9.05       1.0  T
   4    -50.7169945 -0.542025E-05  0.169E-02    9.05       1.2  T
   5    -50.7169951 -0.560370E-06  0.510E-03    9.05       3.8  T
   6    -50.7169951 -0.358229E-07  0.214E-03    9.05       9.1  T
speedup  1.11
cpu  time for SCC    0.01 s
wall time for SCC    0.01 s
speedup  0.99
cpu  time for grad    0.01 s
wall time for grad    0.01 s
 E :    -50.44146034  G :  0.040716    pred/act E change: -0.254D-02 -0.120D-02
Maxdispl :   0.0932   ||displ|| :   0.2345   Lambda : -0.321D-02
Largest |displ|/coords:  0.0932 (   9)  0.0808 (   2)  0.0782 (   6)
................................................................................
.............................. CYCLE   20 ......................................
................................................................................
   1    -50.7049770 -0.507050E+02  0.210E-01    8.99       0.0  T
   2    -50.7050481 -0.711513E-04  0.152E-01    8.99       1.0  T
   3    -50.7050818 -0.336981E-04  0.444E-02    8.99       1.0  T
   4    -50.7050873 -0.552652E-05  0.143E-02    8.99       1.4  T
   5    -50.7050879 -0.576194E-06  0.453E-03    8.99       4.3  T
   6    -50.7050879 -0.250367E-07  0.243E-03    8.99       8.1  T
speedup  0.91
cpu  time for SCC    0.00 s
wall time for SCC    0.01 s
speedup  0.98
cpu  time for grad    0.01 s
wall time for grad    0.01 s
 E :    -50.44258965  G :  0.030351    pred/act E change: -0.207D-02 -0.113D-02
Maxdispl :   0.0462   ||displ|| :   0.1355   Lambda : -0.172D-02
Largest |displ|/coords:  0.0462 (  16)  0.0343 (  15)  0.0329 (  42)
................................................................................
.............................. CYCLE   21 ......................................
................................................................................
   1    -50.7129632 -0.507130E+02  0.112E-01    8.99       0.0  T
   2    -50.7129855 -0.223263E-04  0.828E-02    8.98       1.0  T
   3    -50.7129960 -0.105488E-04  0.255E-02    8.96       1.0  T
   4    -50.7129983 -0.226308E-05  0.577E-03    8.96       3.4  T
   5    -50.7129983 -0.528031E-07  0.231E-03    8.96       8.5  T
speedup  0.91
cpu  time for SCC    0.00 s
wall time for SCC    0.00 s
speedup  0.98
cpu  time for grad    0.01 s
wall time for grad    0.01 s
 E :    -50.44368726  G :  0.021372    pred/act E change: -0.169D-02 -0.110D-02
Maxdispl :   0.1000   ||displ|| :   0.2839   Lambda : -0.176D-02
Largest |displ|/coords:  0.1000 (   4)  0.0822 (   1)  0.0810 (  30)
................................................................................
.............................. CYCLE   22 ......................................
................................................................................
   1    -50.7217276 -0.507217E+02  0.186E-01    9.01       0.0  T
   2    -50.7217962 -0.686163E-04  0.138E-01    8.99       1.0  T
   3    -50.7218357 -0.394449E-04  0.434E-02    8.96       1.0  T
   4    -50.7218430 -0.727876E-05  0.991E-03    8.96       2.0  T
   5    -50.7218431 -0.135946E-06  0.388E-03    8.96       5.1  T
   6    -50.7218431 -0.102675E-07  0.157E-03    8.96      12.5  T
speedup  1.11
cpu  time for SCC    0.01 s
wall time for SCC    0.01 s
speedup  1.05
cpu  time for grad    0.01 s
wall time for grad    0.01 s
 E :    -50.44455210  G :  0.024822    pred/act E change: -0.875D-03 -0.865D-03
Maxdispl :   0.0605   ||displ|| :   0.1619   Lambda : -0.980D-03
Largest |displ|/coords:  0.0605 (  20)  0.0573 (   5)  0.0420 (  16)
................................................................................
.............................. CYCLE   23 ......................................
................................................................................
   1    -50.7223950 -0.507224E+02  0.125E-01    8.98       0.0  T
   2    -50.7224188 -0.238506E-04  0.913E-02    8.98       1.0  T
   3    -50.7224318 -0.129824E-04  0.265E-02    8.98       1.0  T
   4    -50.7224340 -0.218074E-05  0.822E-03    8.98       2.4  T
   5    -50.7224341 -0.117261E-06  0.276E-03    8.98       7.1  T
   6    -50.7224341 -0.926032E-08  0.137E-03    8.98      14.3  T
speedup  0.91
cpu  time for SCC    0.01 s
wall time for SCC    0.01 s
speedup  0.98
cpu  time for grad    0.01 s
wall time for grad    0.01 s
 E :    -50.44520896  G :  0.020968    pred/act E change: -0.953D-03 -0.657D-03
Maxdispl :   0.1081   ||displ|| :   0.2384   Lambda : -0.144D-02
Largest |displ|/coords:  0.1081 (  20)  0.0689 (   3)  0.0689 (   1)
................................................................................
.............................. CYCLE   24 ......................................
................................................................................
   1    -50.7216578 -0.507217E+02  0.181E-01    8.98       0.0  T
   2    -50.7216854 -0.276131E-04  0.132E-01    8.97       1.0  T
   3    -50.7217039 -0.184971E-04  0.368E-02    8.97       1.0  T
   4    -50.7217065 -0.261239E-05  0.118E-02    8.97       1.7  T
   5    -50.7217067 -0.250916E-06  0.335E-03    8.97       5.9  T
   6    -50.7217067 -0.109173E-07  0.193E-03    8.97      10.2  T
speedup  0.93
cpu  time for SCC    0.00 s
wall time for SCC    0.01 s
speedup  0.98
cpu  time for grad    0.01 s
wall time for grad    0.01 s
 E :    -50.44593116  G :  0.022141    pred/act E change: -0.503D-03 -0.722D-03
Maxdispl :   0.0698   ||displ|| :   0.1828   Lambda : -0.106D-02
Largest |displ|/coords:  0.0698 (  20)  0.0612 (   2)  0.0606 (   1)
................................................................................
.............................. CYCLE   25 ......................................
................................................................................
   1    -50.7209444 -0.507209E+02  0.129E-01    9.00       0.0  T
   2    -50.7209562 -0.118086E-04  0.950E-02    9.02       1.0  T
   3    -50.7209628 -0.669032E-05  0.216E-02    9.04       1.0  T
   4    -50.7209644 -0.157785E-05  0.544E-03    9.03       3.6  T
   5    -50.7209645 -0.440482E-07  0.209E-03    9.03       9.4  T
speedup  1.09
cpu  time for SCC    0.00 s
wall time for SCC    0.00 s
speedup  1.03
cpu  time for grad    0.01 s
wall time for grad    0.01 s
 E :    -50.44658482  G :  0.017266    pred/act E change: -0.762D-03 -0.654D-03
Maxdispl :   0.0905   ||displ|| :   0.2222   Lambda : -0.856D-03
Largest |displ|/coords:  0.0905 (   1)  0.0903 (  20)  0.0774 (   5)

generating ANC from model Hessian ...
 Shifting diagonal of input Hessian by   4.954586815233123E-003
 Lowest  eigenvalues of input Hessian
   -0.000000   -0.000000   -0.000000   -0.000000    0.000000    0.000000
    0.005000    0.005203    0.005409    0.005815    0.006062    0.006732
    0.007243    0.007660    0.008608    0.009185    0.010820    0.011219
 Highest eigenvalues
    1.383608    1.389700    1.405865    2.768757    3.457353    3.621376
 
cpu  time for ANC gen    0.02 s
wall time for ANC gen    0.02 s
................................................................................
.............................. CYCLE   26 ......................................
................................................................................
   1    -50.7221473 -0.507221E+02  0.145E-01    9.09       0.0  T
   2    -50.7221563 -0.899491E-05  0.109E-01    9.09       1.0  T
   3    -50.7221640 -0.776341E-05  0.179E-02    9.10       1.1  T
   4    -50.7221651 -0.106736E-05  0.638E-03    9.10       3.1  T
   5    -50.7221651 -0.518880E-07  0.190E-03    9.10      10.3  T
   6    -50.7221651 -0.430605E-08  0.108E-03    9.10      18.2  T
   7    -50.7221651 -0.218235E-08  0.305E-04    9.10      64.2  T
   8    -50.7221651 -0.193261E-09  0.822E-05    9.10     238.6  T
speedup  0.99
cpu  time for SCC    0.01 s
wall time for SCC    0.01 s
speedup  1.04
cpu  time for grad    0.02 s
wall time for grad    0.02 s
 E :    -50.44711551  G :  0.015376    pred/act E change:  0.000D+00 -0.531D-03
Maxdispl :   0.1167   ||displ|| :   0.2211   Lambda : -0.854D-03
Largest |displ|/coords:  0.1167 (   1)  0.1110 (   3)  0.0831 (   9)
................................................................................
.............................. CYCLE   27 ......................................
................................................................................
   1    -50.7234659 -0.507235E+02  0.166E-01    9.08       0.0  T
   2    -50.7234732 -0.733447E-05  0.124E-01    9.08       1.0  T
   3    -50.7234776 -0.439378E-05  0.168E-02    9.09       1.2  T
   4    -50.7234787 -0.109522E-05  0.377E-03    9.09       5.2  T
   5    -50.7234787 -0.253431E-07  0.181E-03    9.09      10.9  T
   6    -50.7234787 -0.336280E-08  0.947E-04    9.09      20.7  T
speedup  0.93
cpu  time for SCC    0.00 s
wall time for SCC    0.01 s
speedup  0.98
cpu  time for grad    0.01 s
wall time for grad    0.01 s
 E :    -50.44776322  G :  0.009993    pred/act E change:  0.000D+00 -0.648D-03
Maxdispl :   0.2918   ||displ|| :   0.4189   Lambda : -0.109D-02
Largest |displ|/coords:  0.2918 (   1)  0.1647 (   3)  0.0886 (  15)
................................................................................
.............................. CYCLE   28 ......................................
................................................................................
   1    -50.7227593 -0.507228E+02  0.292E-01    9.05       0.0  T
   2    -50.7227824 -0.230946E-04  0.219E-01    9.05       1.0  T
   3    -50.7227970 -0.146031E-04  0.283E-02    9.06       1.0  T
   4    -50.7228005 -0.351402E-05  0.699E-03    9.06       2.8  T
   5    -50.7228005 -0.460311E-07  0.313E-03    9.06       6.3  T
   6    -50.7228006 -0.110316E-07  0.148E-03    9.06      13.3  T
   7    -50.7228006 -0.309686E-08  0.377E-04    9.06      52.0  T
speedup  0.97
cpu  time for SCC    0.01 s
wall time for SCC    0.01 s
speedup  1.00
cpu  time for grad    0.01 s
wall time for grad    0.01 s
 E :    -50.44832442  G :  0.014868    pred/act E change: -0.448D-03 -0.561D-03
Maxdispl :   0.0777   ||displ|| :   0.1567   Lambda : -0.355D-03
Largest |displ|/coords:  0.0777 (   7)  0.0700 (   3)  0.0669 (   1)
................................................................................
.............................. CYCLE   29 ......................................
................................................................................
   1    -50.7234886 -0.507235E+02  0.853E-02    9.05       0.0  T
   2    -50.7234899 -0.138325E-05  0.639E-02    9.05       1.0  T
   3    -50.7234912 -0.123860E-05  0.752E-03    9.05       2.6  T
   4    -50.7234913 -0.140019E-06  0.226E-03    9.05       8.7  T
   5    -50.7234913 -0.596111E-08  0.840E-04    9.05      23.3  T
speedup  1.09
cpu  time for SCC    0.01 s
wall time for SCC    0.00 s
speedup  1.04
cpu  time for grad    0.01 s
wall time for grad    0.01 s
 E :    -50.44856963  G :  0.006633    pred/act E change: -0.638D-03 -0.245D-03
Maxdispl :   0.1972   ||displ|| :   0.3101   Lambda : -0.373D-03
Largest |displ|/coords:  0.1972 (   1)  0.1597 (   3)  0.0783 (   5)
................................................................................
.............................. CYCLE   30 ......................................
................................................................................
   1    -50.7231533 -0.507232E+02  0.171E-01    9.06       0.0  T
   2    -50.7231572 -0.388029E-05  0.129E-01    9.06       1.0  T
   3    -50.7231613 -0.404734E-05  0.110E-02    9.07       1.8  T
   4    -50.7231617 -0.383063E-06  0.517E-03    9.07       3.8  T
   5    -50.7231617 -0.289357E-07  0.157E-03    9.07      12.5  T
   6    -50.7231617 -0.299562E-08  0.938E-04    9.07      20.9  T
speedup  1.09
cpu  time for SCC    0.01 s
wall time for SCC    0.01 s
speedup  0.98
cpu  time for grad    0.01 s
wall time for grad    0.01 s
 E :    -50.44880197  G :  0.006823    pred/act E change: -0.182D-03 -0.232D-03
Maxdispl :   0.2274   ||displ|| :   0.3344   Lambda : -0.378D-03
Largest |displ|/coords:  0.2274 (   1)  0.1401 (   3)  0.1178 (   7)
................................................................................
.............................. CYCLE   31 ......................................
................................................................................
   1    -50.7249073 -0.507249E+02  0.140E-01    9.08       0.0  T
   2    -50.7249124 -0.502332E-05  0.106E-01    9.08       1.0  T
   3    -50.7249160 -0.367510E-05  0.126E-02    9.09       1.6  T
   4    -50.7249168 -0.736659E-06  0.570E-03    9.09       3.4  T
   5    -50.7249168 -0.405051E-07  0.138E-03    9.09      14.2  T
   6    -50.7249168 -0.206146E-08  0.845E-04    9.09      23.2  T
speedup  0.89
cpu  time for SCC    0.01 s
wall time for SCC    0.01 s
speedup  0.97
cpu  time for grad    0.01 s
wall time for grad    0.01 s
 E :    -50.44902605  G :  0.008294    pred/act E change: -0.204D-03 -0.224D-03
Maxdispl :   0.2923   ||displ|| :   0.4309   Lambda : -0.352D-03
Largest |displ|/coords:  0.2923 (   1)  0.1606 (   3)  0.1182 (   4)
................................................................................
.............................. CYCLE   32 ......................................
................................................................................
   1    -50.7223411 -0.507223E+02  0.223E-01    9.09       0.0  T
   2    -50.7223516 -0.105739E-04  0.168E-01    9.10       1.0  T
   3    -50.7223601 -0.841761E-05  0.184E-02    9.11       1.1  T
   4    -50.7223616 -0.151194E-05  0.817E-03    9.11       2.4  T
   5    -50.7223617 -0.966705E-07  0.234E-03    9.10       8.4  T
   6    -50.7223617 -0.519126E-08  0.137E-03    9.10      14.4  T
speedup  0.93
cpu  time for SCC    0.00 s
wall time for SCC    0.01 s
speedup  0.98
cpu  time for grad    0.01 s
wall time for grad    0.01 s
 E :    -50.44916577  G :  0.014564    pred/act E change: -0.210D-03 -0.140D-03
Maxdispl :   0.0878   ||displ|| :   0.2097   Lambda : -0.455D-03
Largest |displ|/coords:  0.0878 (   4)  0.0794 (   6)  0.0772 (   1)
................................................................................
.............................. CYCLE   33 ......................................
................................................................................
   1    -50.7244236 -0.507244E+02  0.114E-01    9.13       0.0  T
   2    -50.7244312 -0.761208E-05  0.848E-02    9.14       1.0  T
   3    -50.7244353 -0.403832E-05  0.168E-02    9.14       1.2  T
   4    -50.7244362 -0.990159E-06  0.525E-03    9.14       3.7  T
   5    -50.7244363 -0.696500E-07  0.147E-03    9.14      13.3  T
   6    -50.7244363 -0.195752E-08  0.835E-04    9.14      23.5  T
speedup  1.11
cpu  time for SCC    0.01 s
wall time for SCC    0.01 s
speedup  1.06
cpu  time for grad    0.01 s
wall time for grad    0.01 s
 E :    -50.44940198  G :  0.006424    pred/act E change: -0.209D-03 -0.236D-03
Maxdispl :   0.1792   ||displ|| :   0.3060   Lambda : -0.329D-03
Largest |displ|/coords:  0.1792 (   1)  0.1222 (   3)  0.0875 (   4)
................................................................................
.............................. CYCLE   34 ......................................
................................................................................
   1    -50.7232278 -0.507232E+02  0.147E-01    9.12       0.0  T
   2    -50.7232334 -0.555175E-05  0.111E-01    9.12       1.0  T
   3    -50.7232381 -0.471153E-05  0.133E-02    9.12       1.5  T
   4    -50.7232388 -0.720837E-06  0.560E-03    9.12       3.5  T
   5    -50.7232388 -0.384248E-07  0.147E-03    9.12      13.3  T
   6    -50.7232388 -0.257150E-08  0.884E-04    9.12      22.2  T
speedup  1.11
cpu  time for SCC    0.01 s
wall time for SCC    0.01 s
speedup  0.98
cpu  time for grad    0.01 s
wall time for grad    0.01 s
 E :    -50.44961324  G :  0.007041    pred/act E change: -0.237D-03 -0.211D-03
Maxdispl :   0.2559   ||displ|| :   0.4391   Lambda : -0.341D-03
Largest |displ|/coords:  0.2559 (   1)  0.1719 (   4)  0.1516 (   6)
................................................................................
.............................. CYCLE   35 ......................................
................................................................................
   1    -50.7236151 -0.507236E+02  0.189E-01    9.07       0.0  T
   2    -50.7236251 -0.997387E-05  0.142E-01    9.07       1.0  T
   3    -50.7236324 -0.726435E-05  0.172E-02    9.07       1.1  T
   4    -50.7236338 -0.143991E-05  0.778E-03    9.07       2.5  T
   5    -50.7236339 -0.872919E-07  0.186E-03    9.07      10.5  T
   6    -50.7236339 -0.328547E-08  0.114E-03    9.07      17.2  T
speedup  0.94
cpu  time for SCC    0.00 s
wall time for SCC    0.01 s
speedup  0.98
cpu  time for grad    0.01 s
wall time for grad    0.01 s
 E :    -50.44980422  G :  0.012733    pred/act E change: -0.180D-03 -0.191D-03
Maxdispl :   0.1762   ||displ|| :   0.3534   Lambda : -0.298D-03
Largest |displ|/coords:  0.1762 (   1)  0.1381 (   3)  0.1333 (   4)
................................................................................
.............................. CYCLE   36 ......................................
................................................................................
   1    -50.7229821 -0.507230E+02  0.149E-01    9.04       0.0  T
   2    -50.7229869 -0.471616E-05  0.112E-01    9.04       1.0  T
   3    -50.7229912 -0.429075E-05  0.120E-02    9.03       1.6  T
   4    -50.7229917 -0.530691E-06  0.579E-03    9.03       3.4  T
   5    -50.7229917 -0.349843E-07  0.144E-03    9.03      13.6  T
   6    -50.7229917 -0.247005E-08  0.890E-04    9.03      22.0  T
speedup  0.94
cpu  time for SCC    0.00 s
wall time for SCC    0.01 s
speedup  0.98
cpu  time for grad    0.01 s
wall time for grad    0.01 s
 E :    -50.45003150  G :  0.010636    pred/act E change: -0.203D-03 -0.227D-03
Maxdispl :   0.1774   ||displ|| :   0.3923   Lambda : -0.449D-03
Largest |displ|/coords:  0.1774 (   4)  0.1545 (   6)  0.1460 (   1)
................................................................................
.............................. CYCLE   37 ......................................
................................................................................
   1    -50.7281696 -0.507282E+02  0.147E-01    9.08       0.0  T
   2    -50.7281773 -0.764737E-05  0.110E-01    9.07       1.0  T
   3    -50.7281828 -0.553799E-05  0.155E-02    9.05       1.3  T
   4    -50.7281839 -0.110732E-05  0.692E-03    9.06       2.8  T
   5    -50.7281840 -0.591594E-07  0.179E-03    9.06      10.9  T
   6    -50.7281840 -0.375218E-08  0.107E-03    9.06      18.3  T
speedup  0.94
cpu  time for SCC    0.00 s
wall time for SCC    0.01 s
speedup  0.98
cpu  time for grad    0.01 s
wall time for grad    0.01 s
 E :    -50.45029124  G :  0.008331    pred/act E change: -0.168D-03 -0.260D-03
Maxdispl :   0.3621   ||displ|| :   0.6944   Lambda : -0.593D-03
Largest |displ|/coords:  0.3621 (   1)  0.2947 (   3)  0.2906 (   4)
................................................................................
.............................. CYCLE   38 ......................................
................................................................................
   1    -50.7225622 -0.507226E+02  0.297E-01    8.99       0.0  T
   2    -50.7225856 -0.234188E-04  0.224E-01    8.99       1.0  T
   3    -50.7226066 -0.210412E-04  0.281E-02    8.98       1.0  T
   4    -50.7226094 -0.279516E-05  0.124E-02    8.99       1.6  T
   5    -50.7226096 -0.172170E-06  0.339E-03    8.99       5.8  T
   6    -50.7226096 -0.138903E-07  0.213E-03    8.99       9.2  T
   7    -50.7226096 -0.702886E-08  0.462E-04    8.99      42.5  T
speedup  0.97
cpu  time for SCC    0.01 s
wall time for SCC    0.01 s
speedup  0.99
cpu  time for grad    0.01 s
wall time for grad    0.01 s
 E :    -50.45036412  G :  0.021148    pred/act E change: -0.259D-03 -0.729D-04
Maxdispl :   0.0615   ||displ|| :   0.1165   Lambda : -0.636D-03
Largest |displ|/coords:  0.0615 (  13)  0.0483 (   5)  0.0366 (   3)
................................................................................
.............................. CYCLE   39 ......................................
................................................................................
   1    -50.7264291 -0.507264E+02  0.950E-02    9.00       0.0  T
   2    -50.7264335 -0.438245E-05  0.714E-02    9.00       1.0  T
   3    -50.7264364 -0.284890E-05  0.121E-02    9.00       1.6  T
   4    -50.7264370 -0.619565E-06  0.380E-03    9.00       5.2  T
   5    -50.7264370 -0.276002E-07  0.138E-03    9.00      14.3  T
speedup  1.14
cpu  time for SCC    0.00 s
wall time for SCC    0.00 s
speedup  1.06
cpu  time for grad    0.01 s
wall time for grad    0.01 s
 E :    -50.45071885  G :  0.008613    pred/act E change: -0.439D-03 -0.355D-03
Maxdispl :   0.1190   ||displ|| :   0.2463   Lambda : -0.247D-03
Largest |displ|/coords:  0.1190 (   1)  0.0978 (   4)  0.0936 (   6)
................................................................................
.............................. CYCLE   40 ......................................
................................................................................
   1    -50.7284037 -0.507284E+02  0.108E-01    9.05       0.0  T
   2    -50.7284075 -0.377579E-05  0.817E-02    9.06       1.0  T
   3    -50.7284106 -0.311428E-05  0.114E-02    9.06       1.7  T
   4    -50.7284111 -0.495117E-06  0.576E-03    9.06       3.4  T
   5    -50.7284112 -0.387679E-07  0.122E-03    9.06      16.0  T
   6    -50.7284112 -0.182843E-08  0.782E-04    9.06      25.1  T
speedup  1.13
cpu  time for SCC    0.01 s
wall time for SCC    0.01 s
speedup  1.05
cpu  time for grad    0.01 s
wall time for grad    0.01 s
 E :    -50.45089550  G :  0.007250    pred/act E change: -0.322D-03 -0.177D-03
Maxdispl :   0.3276   ||displ|| :   0.6233   Lambda : -0.423D-03
Largest |displ|/coords:  0.3276 (   1)  0.2580 (   4)  0.2523 (   6)
................................................................................
.............................. CYCLE   41 ......................................
................................................................................
   1    -50.7269118 -0.507269E+02  0.247E-01    9.02       0.0  T
   2    -50.7269295 -0.176599E-04  0.186E-01    9.02       1.0  T
   3    -50.7269431 -0.135807E-04  0.241E-02    9.03       1.0  T
   4    -50.7269454 -0.237405E-05  0.127E-02    9.03       1.5  T
   5    -50.7269456 -0.181818E-06  0.257E-03    9.03       7.6  T
   6    -50.7269456 -0.869279E-08  0.167E-03    9.03      11.7  T
speedup  0.94
cpu  time for SCC    0.00 s
wall time for SCC    0.01 s
speedup  0.98
cpu  time for grad    0.01 s
wall time for grad    0.01 s
 E :    -50.45112112  G :  0.010070    pred/act E change: -0.131D-03 -0.226D-03
Maxdispl :   0.2230   ||displ|| :   0.3947   Lambda : -0.294D-03
Largest |displ|/coords:  0.2230 (   1)  0.1601 (   4)  0.1340 (   3)
................................................................................
.............................. CYCLE   42 ......................................
................................................................................
   1    -50.7253158 -0.507253E+02  0.169E-01    9.03       0.0  T
   2    -50.7253226 -0.680610E-05  0.127E-01    9.04       1.0  T
   3    -50.7253288 -0.621110E-05  0.154E-02    9.05       1.3  T
   4    -50.7253296 -0.783710E-06  0.549E-03    9.04       3.6  T
   5    -50.7253297 -0.311930E-07  0.184E-03    9.04      10.7  T
   6    -50.7253297 -0.491887E-08  0.106E-03    9.04      18.6  T
speedup  0.93
cpu  time for SCC    0.00 s
wall time for SCC    0.01 s
speedup  0.98
cpu  time for grad    0.01 s
wall time for grad    0.01 s
 E :    -50.45126746  G :  0.010323    pred/act E change: -0.294D-03 -0.146D-03
Maxdispl :   0.0674   ||displ|| :   0.1428   Lambda : -0.308D-03
Largest |displ|/coords:  0.0674 (  14)  0.0567 (   9)  0.0378 (  24)
................................................................................
.............................. CYCLE   43 ......................................
................................................................................
   1    -50.7310881 -0.507311E+02  0.122E-01    9.19       0.0  T
   2    -50.7310922 -0.403939E-05  0.899E-02    9.19       1.0  T
   3    -50.7310949 -0.268742E-05  0.138E-02    9.20       1.4  T
   4    -50.7310953 -0.396918E-06  0.456E-03    9.20       4.3  T
   5    -50.7310953 -0.314608E-07  0.129E-03    9.20      15.2  T
   6    -50.7310953 -0.174771E-08  0.795E-04    9.20      24.7  T
speedup  0.94
cpu  time for SCC    0.00 s
wall time for SCC    0.01 s
speedup  0.97
cpu  time for grad    0.01 s
wall time for grad    0.01 s
 E :    -50.45130492  G :  0.012392    pred/act E change: -0.170D-03 -0.375D-04
Maxdispl :   0.1641   ||displ|| :   0.3688   Lambda : -0.378D-03
Largest |displ|/coords:  0.1641 (   6)  0.1597 (   1)  0.1462 (   4)
................................................................................
.............................. CYCLE   44 ......................................
................................................................................
   1    -50.7271002 -0.507271E+02  0.173E-01    9.02       0.0  T
   2    -50.7271097 -0.953006E-05  0.129E-01    9.01       1.0  T
   3    -50.7271172 -0.744311E-05  0.215E-02    9.01       1.0  T
   4    -50.7271182 -0.105754E-05  0.585E-03    9.01       3.4  T
   5    -50.7271183 -0.568032E-07  0.188E-03    9.01      10.4  T
   6    -50.7271183 -0.510116E-08  0.111E-03    9.01      17.7  T
speedup  0.93
cpu  time for SCC    0.00 s
wall time for SCC    0.01 s
speedup  1.03
cpu  time for grad    0.01 s
wall time for grad    0.01 s
 E :    -50.45136645  G :  0.011341    pred/act E change: -0.157D-03 -0.615D-04
Maxdispl :   0.0456   ||displ|| :   0.1059   Lambda : -0.389D-03
Largest |displ|/coords:  0.0456 (   4)  0.0438 (   7)  0.0374 (   3)
................................................................................
.............................. CYCLE   45 ......................................
................................................................................
   1    -50.7289082 -0.507289E+02  0.856E-02    9.09       0.0  T
   2    -50.7289133 -0.514740E-05  0.627E-02    9.10       1.0  T
   3    -50.7289166 -0.321103E-05  0.137E-02    9.11       1.4  T
   4    -50.7289171 -0.499943E-06  0.329E-03    9.11       6.0  T
   5    -50.7289171 -0.219074E-07  0.140E-03    9.11      14.0  T
   6    -50.7289171 -0.252194E-08  0.637E-04    9.11      30.8  T
speedup  1.13
cpu  time for SCC    0.01 s
wall time for SCC    0.01 s
speedup  0.98
cpu  time for grad    0.01 s
wall time for grad    0.01 s
 E :    -50.45145654  G :  0.012954    pred/act E change: -0.215D-03 -0.901D-04
Maxdispl :   0.0215   ||displ|| :   0.0592   Lambda : -0.215D-03
Largest |displ|/coords:  0.0215 (   3)  0.0208 (   1)  0.0207 (  15)
................................................................................
.............................. CYCLE   46 ......................................
................................................................................
   1    -50.7292766 -0.507293E+02  0.524E-02    9.14       0.0  T
   2    -50.7292790 -0.234832E-05  0.389E-02    9.14       1.0  T
   3    -50.7292805 -0.155935E-05  0.889E-03    9.14       2.2  T
   4    -50.7292808 -0.263567E-06  0.238E-03    9.14       8.3  T
   5    -50.7292808 -0.902448E-08  0.946E-04    9.14      20.7  T
speedup  0.91
cpu  time for SCC    0.00 s
wall time for SCC    0.00 s
speedup  0.97
cpu  time for grad    0.01 s
wall time for grad    0.01 s
 E :    -50.45154720  G :  0.005542    pred/act E change: -0.197D-03 -0.907D-04
Maxdispl :   0.0639   ||displ|| :   0.1380   Lambda : -0.983D-04
Largest |displ|/coords:  0.0639 (   1)  0.0509 (   4)  0.0461 (   3)
................................................................................
.............................. CYCLE   47 ......................................
................................................................................
   1    -50.7293683 -0.507294E+02  0.674E-02    9.14       0.0  T
   2    -50.7293696 -0.123039E-05  0.506E-02    9.14       1.0  T
   3    -50.7293708 -0.122634E-05  0.678E-03    9.14       2.9  T
   4    -50.7293709 -0.121935E-06  0.201E-03    9.14       9.8  T
   5    -50.7293709 -0.505503E-08  0.822E-04    9.14      23.8  T
speedup  0.89
cpu  time for SCC    0.00 s
wall time for SCC    0.00 s
speedup  0.97
cpu  time for grad    0.01 s
wall time for grad    0.01 s
 E :    -50.45159794  G :  0.006441    pred/act E change: -0.108D-03 -0.507D-04
Maxdispl :   0.0681   ||displ|| :   0.1293   Lambda : -0.782D-04
Largest |displ|/coords:  0.0681 (   4)  0.0645 (   1)  0.0418 (   7)
................................................................................
.............................. CYCLE   48 ......................................
................................................................................
   1    -50.7294922 -0.507295E+02  0.640E-02    9.13       0.0  T
   2    -50.7294931 -0.890793E-06  0.480E-02    9.13       1.0  T
   3    -50.7294941 -0.966888E-06  0.624E-03    9.14       3.1  T
   4    -50.7294942 -0.736986E-07  0.191E-03    9.14      10.3  T
   5    -50.7294942 -0.538797E-08  0.613E-04    9.14      32.0  T
speedup  0.89
cpu  time for SCC    0.00 s
wall time for SCC    0.00 s
speedup  0.97
cpu  time for grad    0.01 s
wall time for grad    0.01 s
 E :    -50.45165328  G :  0.004759    pred/act E change: -0.501D-04 -0.553D-04
Maxdispl :   0.0967   ||displ|| :   0.1810   Lambda : -0.114D-03
Largest |displ|/coords:  0.0967 (   4)  0.0886 (   1)  0.0578 (   7)
................................................................................
.............................. CYCLE   49 ......................................
................................................................................
   1    -50.7306322 -0.507306E+02  0.913E-02    9.16       0.0  T
   2    -50.7306350 -0.280394E-05  0.687E-02    9.17       1.0  T
   3    -50.7306370 -0.194348E-05  0.989E-03    9.18       2.0  T
   4    -50.7306374 -0.419794E-06  0.334E-03    9.18       5.9  T
   5    -50.7306374 -0.186156E-07  0.113E-03    9.18      17.3  T
   6    -50.7306374 -0.178157E-08  0.628E-04    9.18      31.2  T
speedup  0.94
cpu  time for SCC    0.00 s
wall time for SCC    0.01 s
speedup  0.98
cpu  time for grad    0.01 s
wall time for grad    0.01 s
 E :    -50.45172123  G :  0.005224    pred/act E change: -0.398D-04 -0.680D-04
Maxdispl :   0.0657   ||displ|| :   0.1272   Lambda : -0.651D-04
Largest |displ|/coords:  0.0657 (   4)  0.0591 (   1)  0.0415 (   7)
................................................................................
.............................. CYCLE   50 ......................................
................................................................................
   1    -50.7306924 -0.507307E+02  0.817E-02    9.21       0.0  T
   2    -50.7306944 -0.192225E-05  0.616E-02    9.22       1.0  T
   3    -50.7306959 -0.153535E-05  0.821E-03    9.23       2.4  T
   4    -50.7306962 -0.264009E-06  0.283E-03    9.23       6.9  T
   5    -50.7306962 -0.129936E-07  0.103E-03    9.22      19.0  T
speedup  1.14
cpu  time for SCC    0.00 s
wall time for SCC    0.00 s
speedup  1.05
cpu  time for grad    0.01 s
wall time for grad    0.01 s
 E :    -50.45175734  G :  0.004424    pred/act E change: -0.590D-04 -0.361D-04
Maxdispl :   0.0481   ||displ|| :   0.1085   Lambda : -0.450D-04
Largest |displ|/coords:  0.0481 (   4)  0.0450 (   1)  0.0419 (   7)
................................................................................
.............................. CYCLE   51 ......................................
................................................................................
   1    -50.7305884 -0.507306E+02  0.598E-02    9.21       0.0  T
   2    -50.7305890 -0.615441E-06  0.449E-02    9.22       1.0  T
   3    -50.7305896 -0.619438E-06  0.565E-03    9.22       3.5  T
   4    -50.7305897 -0.628359E-07  0.172E-03    9.22      11.4  T
   5    -50.7305897 -0.385482E-08  0.622E-04    9.22      31.5  T
speedup  1.11
cpu  time for SCC    0.00 s
wall time for SCC    0.00 s
speedup  1.02
cpu  time for grad    0.01 s
wall time for grad    0.01 s
 E :    -50.45178917  G :  0.004296    pred/act E change: -0.331D-04 -0.318D-04
Maxdispl :   0.0478   ||displ|| :   0.1144   Lambda : -0.801D-04
Largest |displ|/coords:  0.0478 (   6)  0.0449 (  12)  0.0352 (  13)
................................................................................
.............................. CYCLE   52 ......................................
................................................................................
   1    -50.7320729 -0.507321E+02  0.102E-01    9.24       0.0  T
   2    -50.7320746 -0.171207E-05  0.768E-02    9.25       1.0  T
   3    -50.7320762 -0.161808E-05  0.752E-03    9.25       2.6  T
   4    -50.7320764 -0.191799E-06  0.289E-03    9.25       6.8  T
   5    -50.7320764 -0.997849E-08  0.970E-04    9.25      20.2  T
speedup  0.89
cpu  time for SCC    0.00 s
wall time for SCC    0.00 s
speedup  0.97
cpu  time for grad    0.01 s
wall time for grad    0.01 s
 E :    -50.45180871  G :  0.006530    pred/act E change: -0.228D-04 -0.195D-04
Maxdispl :   0.0976   ||displ|| :   0.2068   Lambda : -0.102D-03
Largest |displ|/coords:  0.0976 (   1)  0.0865 (   4)  0.0730 (   3)

generating ANC from model Hessian ...
 Shifting diagonal of input Hessian by   4.785615394174369E-003
 Lowest  eigenvalues of input Hessian
   -0.000000   -0.000000   -0.000000   -0.000000    0.000000    0.000000
    0.005000    0.005189    0.005374    0.005461    0.006380    0.006428
    0.006824    0.007105    0.007399    0.007953    0.008872    0.010035
 Highest eigenvalues
    1.378466    1.393518    1.404164    2.656439    3.427880    3.623634
 
cpu  time for ANC gen    0.02 s
wall time for ANC gen    0.02 s
................................................................................
.............................. CYCLE   53 ......................................
................................................................................
   1    -50.7298428 -0.507298E+02  0.985E-02    9.22       0.0  T
   2    -50.7298456 -0.284969E-05  0.740E-02    9.22       1.0  T
   3    -50.7298481 -0.246965E-05  0.109E-02    9.22       1.8  T
   4    -50.7298484 -0.351910E-06  0.318E-03    9.22       6.2  T
   5    -50.7298484 -0.139334E-07  0.123E-03    9.22      15.9  T
   6    -50.7298484 -0.200902E-08  0.701E-04    9.22      28.0  T
   7    -50.7298485 -0.706819E-09  0.163E-04    9.22     120.2  T
speedup  0.95
cpu  time for SCC    0.01 s
wall time for SCC    0.01 s
speedup  0.95
cpu  time for grad    0.01 s
wall time for grad    0.01 s
 E :    -50.45185422  G :  0.005820    pred/act E change:  0.000D+00 -0.455D-04
Maxdispl :   0.0809   ||displ|| :   0.1362   Lambda : -0.206D-03
Largest |displ|/coords:  0.0809 (   9)  0.0518 (   5)  0.0447 (   4)
................................................................................
.............................. CYCLE   54 ......................................
................................................................................
   1    -50.7303697 -0.507304E+02  0.102E-01    9.21       0.0  T
   2    -50.7303712 -0.149589E-05  0.771E-02    9.21       1.0  T
   3    -50.7303730 -0.180834E-05  0.578E-03    9.21       3.4  T
   4    -50.7303731 -0.965456E-07  0.249E-03    9.21       7.9  T
   5    -50.7303731 -0.617588E-08  0.801E-04    9.21      24.5  T
speedup  0.91
cpu  time for SCC    0.00 s
wall time for SCC    0.00 s
speedup  0.97
cpu  time for grad    0.01 s
wall time for grad    0.01 s
 E :    -50.45197367  G :  0.003081    pred/act E change:  0.000D+00 -0.119D-03
Maxdispl :   0.0879   ||displ|| :   0.1388   Lambda : -0.147D-03
Largest |displ|/coords:  0.0879 (   9)  0.0436 (   2)  0.0384 (  26)
................................................................................
.............................. CYCLE   55 ......................................
................................................................................
   1    -50.7304712 -0.507305E+02  0.105E-01    9.19       0.0  T
   2    -50.7304727 -0.145098E-05  0.790E-02    9.19       1.0  T
   3    -50.7304744 -0.172515E-05  0.623E-03    9.18       3.1  T
   4    -50.7304745 -0.964457E-07  0.244E-03    9.19       8.0  T
   5    -50.7304745 -0.626415E-08  0.838E-04    9.19      23.4  T
   6    -50.7304745 -0.913424E-09  0.349E-04    9.19      56.2  T
speedup  0.94
cpu  time for SCC    0.00 s
wall time for SCC    0.01 s
speedup  1.01
cpu  time for grad    0.01 s
wall time for grad    0.01 s
 E :    -50.45206167  G :  0.003448    pred/act E change: -0.105D-03 -0.880D-04
Maxdispl :   0.0734   ||displ|| :   0.1301   Lambda : -0.788D-04
Largest |displ|/coords:  0.0734 (   9)  0.0650 (   5)  0.0425 (   2)
................................................................................
.............................. CYCLE   56 ......................................
................................................................................
   1    -50.7301012 -0.507301E+02  0.854E-02    9.18       0.0  T
   2    -50.7301020 -0.756037E-06  0.643E-02    9.18       1.0  T
   3    -50.7301030 -0.101698E-05  0.461E-03    9.17       4.3  T
   4    -50.7301030 -0.301173E-07  0.161E-03    9.17      12.2  T
   5    -50.7301030 -0.332965E-08  0.669E-04    9.17      29.3  T
   6    -50.7301030 -0.847102E-09  0.287E-04    9.17      68.3  T
speedup  0.93
cpu  time for SCC    0.00 s
wall time for SCC    0.01 s
speedup  0.94
cpu  time for grad    0.01 s
wall time for grad    0.01 s
 E :    -50.45211359  G :  0.004187    pred/act E change: -0.748D-04 -0.519D-04
Maxdispl :   0.0936   ||displ|| :   0.1701   Lambda : -0.853D-04
Largest |displ|/coords:  0.0936 (   5)  0.0925 (   9)  0.0576 (   2)
................................................................................
.............................. CYCLE   57 ......................................
................................................................................
   1    -50.7299927 -0.507300E+02  0.886E-02    9.16       0.0  T
   2    -50.7299935 -0.837154E-06  0.665E-02    9.16       1.0  T
   3    -50.7299946 -0.104109E-05  0.546E-03    9.16       3.6  T
   4    -50.7299946 -0.428651E-07  0.142E-03    9.16      13.8  T
   5    -50.7299946 -0.356396E-08  0.779E-04    9.16      25.2  T
speedup  1.11
cpu  time for SCC    0.01 s
wall time for SCC    0.00 s
speedup  1.04
cpu  time for grad    0.01 s
wall time for grad    0.01 s
 E :    -50.45216720  G :  0.003321    pred/act E change: -0.401D-04 -0.536D-04
Maxdispl :   0.0805   ||displ|| :   0.1493   Lambda : -0.643D-04
Largest |displ|/coords:  0.0805 (   9)  0.0747 (   5)  0.0449 (   2)
................................................................................
.............................. CYCLE   58 ......................................
................................................................................
   1    -50.7300220 -0.507300E+02  0.840E-02    9.16       0.0  T
   2    -50.7300231 -0.107121E-05  0.632E-02    9.16       1.0  T
   3    -50.7300244 -0.129377E-05  0.634E-03    9.15       3.1  T
   4    -50.7300245 -0.704036E-07  0.188E-03    9.15      10.4  T
   5    -50.7300245 -0.508987E-08  0.824E-04    9.15      23.8  T
   6    -50.7300245 -0.115872E-08  0.394E-04    9.15      49.8  T
speedup  0.94
cpu  time for SCC    0.00 s
wall time for SCC    0.01 s
speedup  1.01
cpu  time for grad    0.01 s
wall time for grad    0.01 s
 E :    -50.45220686  G :  0.003446    pred/act E change: -0.439D-04 -0.397D-04
Maxdispl :   0.0623   ||displ|| :   0.1159   Lambda : -0.416D-04
Largest |displ|/coords:  0.0623 (   5)  0.0540 (   9)  0.0458 (   6)
................................................................................
.............................. CYCLE   59 ......................................
................................................................................
   1    -50.7305305 -0.507305E+02  0.608E-02    9.16       0.0  T
   2    -50.7305309 -0.485216E-06  0.457E-02    9.16       1.0  T
   3    -50.7305316 -0.612389E-06  0.464E-03    9.15       4.2  T
   4    -50.7305316 -0.278136E-07  0.126E-03    9.15      15.6  T
   5    -50.7305316 -0.263283E-08  0.575E-04    9.15      34.1  T
   6    -50.7305316 -0.468617E-09  0.299E-04    9.15      65.6  T
speedup  0.94
cpu  time for SCC    0.00 s
wall time for SCC    0.01 s
speedup  1.01
cpu  time for grad    0.01 s
wall time for grad    0.01 s
 E :    -50.45223626  G :  0.002423    pred/act E change: -0.329D-04 -0.294D-04
Maxdispl :   0.1082   ||displ|| :   0.1837   Lambda : -0.405D-04
Largest |displ|/coords:  0.1082 (   9)  0.0825 (   5)  0.0573 (   6)
................................................................................
.............................. CYCLE   60 ......................................
................................................................................
   1    -50.7300559 -0.507301E+02  0.112E-01    9.16       0.0  T
   2    -50.7300579 -0.199848E-05  0.847E-02    9.16       1.0  T
   3    -50.7300605 -0.266723E-05  0.839E-03    9.15       2.3  T
   4    -50.7300606 -0.111117E-06  0.256E-03    9.15       7.7  T
   5    -50.7300607 -0.871528E-08  0.114E-03    9.15      17.2  T
   6    -50.7300607 -0.218108E-08  0.562E-04    9.15      34.9  T
   7    -50.7300607 -0.376026E-09  0.886E-05    9.15     221.4  T
speedup  1.15
cpu  time for SCC    0.01 s
wall time for SCC    0.01 s
speedup  1.02
cpu  time for grad    0.01 s
wall time for grad    0.01 s
 E :    -50.45224784  G :  0.005809    pred/act E change: -0.211D-04 -0.116D-04
Maxdispl :   0.0709   ||displ|| :   0.1145   Lambda : -0.744D-04
Largest |displ|/coords:  0.0709 (   4)  0.0475 (   8)  0.0349 (   1)
................................................................................
.............................. CYCLE   61 ......................................
................................................................................
   1    -50.7318111 -0.507318E+02  0.515E-02    9.18       0.0  T
   2    -50.7318119 -0.704433E-06  0.385E-02    9.18       1.0  T
   3    -50.7318123 -0.489089E-06  0.578E-03    9.18       3.4  T
   4    -50.7318124 -0.919551E-07  0.218E-03    9.18       9.0  T
   5    -50.7318124 -0.672302E-08  0.566E-04    9.18      34.6  T
speedup  0.89
cpu  time for SCC    0.00 s
wall time for SCC    0.00 s
speedup  0.95
cpu  time for grad    0.01 s
wall time for grad    0.01 s
 E :    -50.45227328  G :  0.003038    pred/act E change: -0.210D-04 -0.254D-04
Maxdispl :   0.0282   ||displ|| :   0.0527   Lambda : -0.245D-04
Largest |displ|/coords:  0.0282 (   9)  0.0183 (   5)  0.0162 (   4)
................................................................................
.............................. CYCLE   62 ......................................
................................................................................
   1    -50.7312738 -0.507313E+02  0.340E-02    9.18       0.0  T
   2    -50.7312740 -0.167931E-06  0.256E-02    9.18       1.0  T
   3    -50.7312742 -0.201612E-06  0.245E-03    9.18       8.0  T
   4    -50.7312742 -0.127486E-07  0.111E-03    9.18      17.7  T
   5    -50.7312742 -0.118828E-08  0.293E-04    9.18      67.0  T
   6    -50.7312742 -0.102965E-09  0.155E-04    9.18     126.6  T
speedup  1.09
cpu  time for SCC    0.01 s
wall time for SCC    0.01 s
speedup  0.99
cpu  time for grad    0.01 s
wall time for grad    0.01 s
 E :    -50.45229233  G :  0.002099    pred/act E change: -0.377D-04 -0.190D-04
Maxdispl :   0.0599   ||displ|| :   0.1293   Lambda : -0.388D-04
Largest |displ|/coords:  0.0599 (   4)  0.0591 (   9)  0.0547 (   1)
................................................................................
.............................. CYCLE   63 ......................................
................................................................................
   1    -50.7304355 -0.507304E+02  0.752E-02    9.18       0.0  T
   2    -50.7304364 -0.933112E-06  0.568E-02    9.18       1.0  T
   3    -50.7304374 -0.104119E-05  0.634E-03    9.18       3.1  T
   4    -50.7304375 -0.913296E-07  0.252E-03    9.18       7.8  T
   5    -50.7304375 -0.601663E-08  0.689E-04    9.18      28.5  T
   6    -50.7304375 -0.505587E-09  0.352E-04    9.18      55.7  T
speedup  1.07
cpu  time for SCC    0.01 s
wall time for SCC    0.01 s
speedup  0.99
cpu  time for grad    0.01 s
wall time for grad    0.01 s
 E :    -50.45231657  G :  0.003624    pred/act E change: -0.123D-04 -0.242D-04
Maxdispl :   0.0457   ||displ|| :   0.0765   Lambda : -0.231D-04
Largest |displ|/coords:  0.0457 (   1)  0.0349 (   4)  0.0228 (  14)
................................................................................
.............................. CYCLE   64 ......................................
................................................................................
   1    -50.7303427 -0.507303E+02  0.374E-02    9.18       0.0  T
   2    -50.7303430 -0.272520E-06  0.281E-02    9.18       1.0  T
   3    -50.7303432 -0.241259E-06  0.418E-03    9.18       4.7  T
   4    -50.7303433 -0.337405E-07  0.950E-04    9.18      20.6  T
   5    -50.7303433 -0.113064E-08  0.345E-04    9.18      56.9  T
speedup  1.11
cpu  time for SCC    0.01 s
wall time for SCC    0.00 s
speedup  0.99
cpu  time for grad    0.01 s
wall time for grad    0.01 s
 E :    -50.45233301  G :  0.002811    pred/act E change: -0.197D-04 -0.164D-04
Maxdispl :   0.1310   ||displ|| :   0.2479   Lambda : -0.417D-04
Largest |displ|/coords:  0.1310 (   1)  0.1029 (   4)  0.0909 (   9)
................................................................................
.............................. CYCLE   65 ......................................
................................................................................
   1    -50.7291867 -0.507292E+02  0.134E-01    9.18       0.0  T
   2    -50.7291896 -0.289048E-05  0.101E-01    9.18       1.0  T
   3    -50.7291927 -0.311046E-05  0.128E-02    9.19       1.5  T
[...]
wall time for SCC    0.00 s
speedup  0.98
cpu  time for grad    0.01 s
wall time for grad    0.01 s
 E :    -50.45261970  G :  0.000301    pred/act E change: -0.394D-06 -0.423D-06
Maxdispl :   0.0054   ||displ|| :   0.0116   Lambda : -0.541D-06
Largest |displ|/coords:  0.0054 (   4)  0.0053 (   2)  0.0035 (  13)
................................................................................
.............................. CYCLE   87 ......................................
................................................................................
   1    -50.7306689 -0.507307E+02  0.629E-03    9.26       0.0  T
   2    -50.7306689 -0.792041E-08  0.471E-03    9.26       4.2  T
   3    -50.7306689 -0.793636E-08  0.585E-04    9.26      33.5  T
   4    -50.7306689 -0.779664E-09  0.246E-04    9.26      79.8  T
speedup  0.83
cpu  time for SCC    0.00 s
wall time for SCC    0.00 s
speedup  0.99
cpu  time for grad    0.01 s
wall time for grad    0.01 s
 E :    -50.45262007  G :  0.000263    pred/act E change: -0.315D-06 -0.366D-06
Maxdispl :   0.0058   ||displ|| :   0.0099   Lambda : -0.364D-06
Largest |displ|/coords:  0.0058 (   2)  0.0035 (   4)  0.0033 (  13)
................................................................................
.............................. CYCLE   88 ......................................
................................................................................
   1    -50.7306607 -0.507307E+02  0.505E-03    9.26       0.0  T
   2    -50.7306607 -0.522436E-08  0.376E-03    9.26       5.2  T
   3    -50.7306608 -0.456846E-08  0.517E-04    9.26      37.9  T
   4    -50.7306608 -0.615898E-09  0.213E-04    9.26      92.0  T
speedup  0.81
cpu  time for SCC    0.00 s
wall time for SCC    0.00 s
speedup  0.97
cpu  time for grad    0.01 s
wall time for grad    0.01 s
 E :    -50.45262033  G :  0.000234    pred/act E change: -0.271D-06 -0.269D-06
Maxdispl :   0.0086   ||displ|| :   0.0132   Lambda : -0.373D-06
Largest |displ|/coords:  0.0086 (   2)  0.0047 (  13)  0.0042 (   1)
................................................................................
.............................. CYCLE   89 ......................................
................................................................................
   1    -50.7306794 -0.507307E+02  0.614E-03    9.26       0.0  T
   2    -50.7306794 -0.898001E-08  0.458E-03    9.26       4.3  T
   3    -50.7306794 -0.665595E-08  0.659E-04    9.26      29.8  T
   4    -50.7306794 -0.128362E-08  0.268E-04    9.26      73.2  T
speedup  0.83
cpu  time for SCC    0.00 s
wall time for SCC    0.00 s
speedup  0.99
cpu  time for grad    0.01 s
wall time for grad    0.01 s
 E :    -50.45262060  G :  0.000205    pred/act E change: -0.182D-06 -0.268D-06
Maxdispl :   0.0100   ||displ|| :   0.0139   Lambda : -0.302D-06
Largest |displ|/coords:  0.0100 (   2)  0.0058 (   1)  0.0037 (  13)
................................................................................
.............................. CYCLE   90 ......................................
................................................................................
   1    -50.7307036 -0.507307E+02  0.599E-03    9.26       0.0  T
   2    -50.7307036 -0.761367E-08  0.448E-03    9.26       4.4  T
   3    -50.7307036 -0.567232E-08  0.529E-04    9.26      37.0  T
   4    -50.7307036 -0.110188E-08  0.241E-04    9.26      81.3  T
speedup  0.83
cpu  time for SCC    0.00 s
wall time for SCC    0.00 s
speedup  0.99
cpu  time for grad    0.01 s
wall time for grad    0.01 s
 E :    -50.45262083  G :  0.000185    pred/act E change: -0.187D-06 -0.223D-06
Maxdispl :   0.0108   ||displ|| :   0.0154   Lambda : -0.279D-06
Largest |displ|/coords:  0.0108 (   2)  0.0074 (   1)  0.0050 (   7)
................................................................................
.............................. CYCLE   91 ......................................
................................................................................
   1    -50.7307238 -0.507307E+02  0.663E-03    9.26       0.0  T
   2    -50.7307238 -0.100438E-07  0.498E-03    9.26       3.9  T
   3    -50.7307238 -0.615778E-08  0.571E-04    9.26      34.3  T
   4    -50.7307238 -0.169676E-08  0.230E-04    9.26      85.2  T
speedup  0.79
cpu  time for SCC    0.00 s
wall time for SCC    0.00 s
speedup  0.98
cpu  time for grad    0.01 s
wall time for grad    0.01 s
 E :    -50.45262103  G :  0.000187    pred/act E change: -0.151D-06 -0.202D-06
Maxdispl :   0.0107   ||displ|| :   0.0149   Lambda : -0.251D-06
Largest |displ|/coords:  0.0107 (   2)  0.0079 (   1)  0.0045 (   7)
................................................................................
.............................. CYCLE   92 ......................................
................................................................................
   1    -50.7307266 -0.507307E+02  0.654E-03    9.26       0.0  T
   2    -50.7307266 -0.718880E-08  0.491E-03    9.26       4.0  T
   3    -50.7307267 -0.479548E-08  0.471E-04    9.26      41.6  T
   4    -50.7307267 -0.122223E-08  0.186E-04    9.26     105.5  T
speedup  1.08
cpu  time for SCC    0.00 s
wall time for SCC    0.00 s
speedup  0.98
cpu  time for grad    0.01 s
wall time for grad    0.01 s
 E :    -50.45262121  G :  0.000194    pred/act E change: -0.139D-06 -0.184D-06
Maxdispl :   0.0129   ||displ|| :   0.0194   Lambda : -0.284D-06
Largest |displ|/coords:  0.0129 (   2)  0.0112 (   1)  0.0060 (   7)
................................................................................
.............................. CYCLE   93 ......................................
................................................................................
   1    -50.7307112 -0.507307E+02  0.868E-03    9.26       0.0  T
   2    -50.7307112 -0.122116E-07  0.652E-03    9.26       3.0  T
   3    -50.7307112 -0.789285E-08  0.682E-04    9.26      28.7  T
   4    -50.7307112 -0.215080E-08  0.232E-04    9.26      84.5  T
speedup  1.08
cpu  time for SCC    0.00 s
wall time for SCC    0.00 s
speedup  0.98
cpu  time for grad    0.01 s
wall time for grad    0.01 s
 E :    -50.45262140  G :  0.000191    pred/act E change: -0.125D-06 -0.191D-06
Maxdispl :   0.0086   ||displ|| :   0.0141   Lambda : -0.206D-06
Largest |displ|/coords:  0.0086 (   2)  0.0080 (   1)  0.0039 (   7)
................................................................................
.............................. CYCLE   94 ......................................
................................................................................
   1    -50.7306979 -0.507307E+02  0.672E-03    9.26       0.0  T
   2    -50.7306979 -0.598354E-08  0.505E-03    9.26       3.9  T
   3    -50.7306979 -0.514955E-08  0.467E-04    9.26      42.0  T
   4    -50.7306979 -0.835001E-09  0.188E-04    9.26     104.5  T
speedup  1.08
cpu  time for SCC    0.00 s
wall time for SCC    0.00 s
speedup  0.98
cpu  time for grad    0.01 s
wall time for grad    0.01 s
 E :    -50.45262154  G :  0.000165    pred/act E change: -0.142D-06 -0.142D-06
Maxdispl :   0.0065   ||displ|| :   0.0104   Lambda : -0.155D-06
Largest |displ|/coords:  0.0065 (   1)  0.0046 (   2)  0.0028 (   4)
................................................................................
.............................. CYCLE   95 ......................................
................................................................................
   1    -50.7306930 -0.507307E+02  0.474E-03    9.26       0.0  T
   2    -50.7306930 -0.313724E-08  0.356E-03    9.26       5.5  T
   3    -50.7306930 -0.301267E-08  0.326E-04    9.26      60.2  T
   4    -50.7306930 -0.354412E-09  0.150E-04    9.26     131.0  T
speedup  1.03
cpu  time for SCC    0.00 s
wall time for SCC    0.00 s
speedup  1.04
cpu  time for grad    0.01 s
wall time for grad    0.01 s
 E :    -50.45262166  G :  0.000129    pred/act E change: -0.103D-06 -0.114D-06
Maxdispl :   0.0063   ||displ|| :   0.0096   Lambda : -0.100D-06
Largest |displ|/coords:  0.0063 (   1)  0.0040 (   2)  0.0022 (   7)
................................................................................
.............................. CYCLE   96 ......................................
................................................................................
   1    -50.7307024 -0.507307E+02  0.423E-03    9.26       0.0  T
   2    -50.7307024 -0.255166E-08  0.318E-03    9.26       6.2  T
   3    -50.7307024 -0.259909E-08  0.297E-04    9.26      66.1  T
   4    -50.7307024 -0.259845E-09  0.118E-04    9.26     166.3  T
speedup  0.81
cpu  time for SCC    0.00 s
wall time for SCC    0.00 s
speedup  0.98
cpu  time for grad    0.01 s
wall time for grad    0.01 s
 E :    -50.45262173  G :  0.000092    pred/act E change: -0.813D-07 -0.696D-07
Maxdispl :   0.0032   ||displ|| :   0.0047   Lambda : -0.501D-07
Largest |displ|/coords:  0.0032 (   1)  0.0013 (   4)  0.0012 (  12)

   *** GEOMETRY OPTIMIZATION CONVERGED AFTER 96 ITERATIONS ***

------------------------------------------------------------------------
 total energy gain (kcal):     -0.0031
------------------------------------------------------------------------
================
 final structure:
================
$coord
       -2.54239670367135        0.21968700574413        1.11274060878016      S 
       -1.92855828530648       -2.48044881606514        1.02011042840937      O 
       -2.74456744293163        1.17507719305615        3.66081425806975      O 
       -0.75043551024996        1.64755485333308       -0.42645166547832      O 
       -5.18485349465826        0.45870102119815       -0.20796568731208      O 
        4.90837837589661       -2.58226263451313       -0.48755466714744      O 
        5.98432332948360       -3.93038012465449        0.06428040574196      H 
       -0.25932186692532        0.11753047549219       -5.14789805410018      O 
       -1.01567638945355        0.91977987097244       -3.65637227884256      H 
       -6.40751056402342        4.34944632253359        2.67150756613949      O 
       -7.79668048561880        4.09736569466101        3.81049511976617      H 
       -4.93825065487088        3.53253438140351        3.44884372009612      H 
       -5.94704263021159        2.00980501378529        0.46040968704180      H 
        0.68158719750280       -3.76677238691861       -2.63233353544031      O 
        2.43385852789179       -3.41698843050256       -1.93516525734421      H 
       -0.54170716901366       -3.36558795979452       -1.08705829572138      H 
        0.27652231515399       -2.27955566623032       -3.92843381557053      H 
        3.91283288704927        2.07104679838346       -3.06577190851198      O 
        4.81935564312827        0.66805758630878       -2.33763188620085      H 
        1.40405263798748        0.92531690145918       -5.23960052586559      H 
        2.57632958765780        2.46994558094116       -1.88433102365935      H 
        2.60603088775695       -0.49148679353363        3.36301543835917      N 
        3.41509779978469        0.31612704324126        4.89888962058946      H 
        4.15675321698663       -1.78141575736306        1.08110216552466      H 
        1.29614210596402       -1.74677303636474        3.98231697036244      H 
        1.58573668467930        0.86369586342752        2.46204259338559      H 
$end
 
 Bond Distances (Angstroems)
 ---------------------------
S1-O2=1.4661         S1-O3=1.4440         S1-O4=1.4607         S1-O5=1.5684         O2-S1=1.4661         O3-S1=1.4440         
O4-S1=1.4607         O5-S1=1.5684         O5-H13=0.9806        O6-H7=0.9583         O6-H24=1.0133        H7-O6=0.9583         
O8-H9=0.9815         O8-H20=0.9797        H9-O8=0.9815         O10-H11=0.9599       O10-H12=0.9801       H11-O10=0.9599       
H12-O10=0.9801       H13-O5=0.9806        O14-H15=1.0150       O14-H16=1.0643       O14-H17=1.0657       H15-O14=1.0150       
H16-O14=1.0643       H17-O14=1.0657       O18-H19=0.9643       O18-H21=0.9673       H19-O18=0.9643       H20-O8=0.9797        
H21-O18=0.9673       N22-H23=1.0132       N22-H25=1.0145       N22-H26=1.0164       H23-N22=1.0132       H24-O6=1.0133        
H25-N22=1.0145       H26-N22=1.0164       
 N  H  Rav=1.0147 sigma=0.0013  Rmin=1.0132  Rmax=1.0164     3
 O  H  Rav=0.9942 sigma=0.0361  Rmin=0.9583  Rmax=1.0657    12
 S  O  Rav=1.4848 sigma=0.0489  Rmin=1.4440  Rmax=1.5684     4
 
 selected bond angles (degree)
 --------------------
O3-S1-O2=112.88                O4-S1-O2=109.98                O4-S1-O3=112.81                O5-S1-O2=105.14                
O5-S1-O3=108.77                O5-S1-O4=106.77                H13-O5-S1=105.87               H24-O6-H7=107.15               
H20-O8-H9=102.56               H12-O10-H11=106.42             
 
 selected dihedral angles (degree)
 ---------------------------------
H13-O5-S1-O2=155.90           H13-O5-S1-O3= 34.74           H13-O5-S1-O4=272.73           
 
 CMA Distance (Angstroems)
 ---------------------------
R(CMA):  2.0779

========================================================================
 FINAL SINGLEPOINT CALCULATION ON OPTIMIZED GEOMETRY
========================================================================

 Ncao       : 65
 Nao        : 64
 Nshell     : 38
 Nel        : 80
 T(el)      :   300.0
 intcut     :    25.0
 scfconv/Eh :  0.100E-05
   qconv/e  :  0.100E-03
 intneglect :  0.100E-07
 broydamp   :      0.250
 iter      E             dE          RMSdq      gap      omega  full diag
   1    -50.7307024 -0.507307E+02  0.440E-05    9.26       0.0  T
   2    -50.7307024 -0.184031E-11  0.279E-05    9.26     702.4  T
   3    -50.7307024 -0.108002E-11  0.646E-06    9.26    3035.8  T
speedup  1.07
cpu  time for SCC    0.00 s
wall time for SCC    0.00 s

   *** convergence criteria satisfied after 3 iterations ***

          eigenvalues
 #    :          28         29         30         31         32         33         34         35
 occ. :        2.000      2.000      2.000      2.000      2.000      2.000      2.000      2.000
 eps  :       -13.670    -13.211    -12.915    -12.688    -12.572    -12.400    -12.341    -12.231
 #    :          36         37         38         39         40         41         42         43
 occ. :        2.000      2.000      2.000      2.000      2.000      0.000      0.000      0.000
 eps  :       -12.093    -12.035    -11.909    -11.837    -11.638     -2.380     -0.756     -0.240
 #    :          44         45         46         47         48         49         50         51
 occ. :        0.000      0.000      0.000      0.000      0.000      0.000      0.000      0.000
 eps  :         0.677      0.990      1.179      2.147      2.612      2.935      4.865      5.151


   #   Z            q   n(s)   n(p)   n(d)      C6AA      α(0)
   1  16 S      1.699  1.586  1.767  0.948    88.783    15.859
   2   8 O     -0.732  1.765  4.966  0.000    29.518     7.287
   3   8 O     -0.743  1.771  4.972  0.000    29.903     7.332
   4   8 O     -0.778  1.770  5.008  0.000    30.925     7.456
   5   8 O     -0.622  1.759  4.863  0.000    25.688     6.842
   6   8 O     -0.621  1.746  4.876  0.000    25.710     6.843
   7   1 H      0.291  0.709  0.000  0.000     0.750     1.360
   8   8 O     -0.592  1.756  4.836  0.000    24.969     6.745
   9   1 H      0.331  0.669  0.000  0.000     0.636     1.253
  10   8 O     -0.608  1.748  4.860  0.000    25.375     6.799
  11   1 H      0.294  0.706  0.000  0.000     0.740     1.351
  12   1 H      0.322  0.678  0.000  0.000     0.658     1.274
  13   1 H      0.373  0.627  0.000  0.000     0.532     1.143
  14   8 O     -0.515  1.732  4.783  0.000    23.159     6.499
  15   1 H      0.377  0.623  0.000  0.000     0.531     1.145
  16   1 H      0.388  0.612  0.000  0.000     0.501     1.109
  17   1 H      0.386  0.614  0.000  0.000     0.509     1.119
  18   8 O     -0.611  1.749  4.862  0.000    25.449     6.809
  19   1 H      0.307  0.693  0.000  0.000     0.701     1.315
  20   1 H      0.339  0.661  0.000  0.000     0.615     1.232
  21   1 H      0.312  0.688  0.000  0.000     0.687     1.302
  22   7 N     -0.455  1.364  4.091  0.000    31.948     8.394
  23   1 H      0.173  0.827  0.000  0.000     1.257     1.756
  24   1 H      0.330  0.670  0.000  0.000     0.636     1.251
  25   1 H      0.176  0.824  0.000  0.000     1.239     1.744
  26   1 H      0.180  0.820  0.000  0.000     1.214     1.726

 Mol. C6AA /au·bohr⁶  :       5479.341717
 Mol. C8AA /au·bohr⁸  :     118404.339128
 Mol. α(0) /au        :        106.943818

 
 Wiberg/Mayer (AO) data. WBOs > 0.1 written file <wbo>
 largest (>0.05) Wiberg bond orders for each atom
           total WBO             WBO to atom ...
     1  S   4.832    O    3 1.339    O    4 1.267    O    2 1.255    O    5 0.930
     2  O   1.773    S    1 1.255    H   16 0.182    O    4 0.107    O    3 0.095    O    5 0.063    O   14 0.053
     3  O   1.720    S    1 1.339    O    4 0.107    O    2 0.095    O    5 0.084    H   12 0.055
     4  O   1.680    S    1 1.267    O    3 0.107    O    2 0.107    O    5 0.077
     5  O   1.958    S    1 0.930    H   13 0.771    O    3 0.084    O    4 0.077    O    2 0.063
     6  O   1.914    H    7 0.908    H   24 0.761    H   15 0.115    N   22 0.055
     7  H   0.916    O    6 0.908
     8  O   1.999    H   20 0.840    H    9 0.838    H   17 0.200    O   14 0.070
     9  H   0.891    O    8 0.838
    10  O   1.879    H   11 0.911    H   12 0.837    H   13 0.072
    11  H   0.914    O   10 0.911
    12  H   0.896    O   10 0.837    O    3 0.055
    13  H   0.861    O    5 0.771    O   10 0.072
    14  O   2.232    H   15 0.739    H   16 0.658    H   17 0.647    O    8 0.070    O    2 0.053
    15  H   0.858    O   14 0.739    O    6 0.115
    16  H   0.849    O   14 0.658    O    2 0.182
    17  H   0.851    O   14 0.647    O    8 0.200
    18  O   1.857    H   19 0.886    H   21 0.881
    19  H   0.906    O   18 0.886
    20  H   0.885    O    8 0.840
    21  H   0.903    O   18 0.881
    22  N   3.073    H   23 0.964    H   25 0.960    H   26 0.941    H   24 0.128    O    6 0.055
    23  H   0.970    N   22 0.964
    24  H   0.891    O    6 0.761    N   22 0.128
    25  H   0.969    N   22 0.960
    26  H   0.968    N   22 0.941
 MOs/occ written to file <molden.input>
 
molecular dipole:
                 x           y           z       tot (Debye)
 q only:        1.356      -1.078       0.122
   full:        0.922      -0.831       1.234       4.448
molecular quadrupole (traceless):
                xx          xy          yy          xz          yz          zz
 q only:        6.099      -9.137      -3.647       1.800       2.962      -2.452
  q+dip:        8.618     -10.320      -5.834       0.893       2.470      -2.784
   full:        9.106     -10.902      -6.107       0.853       2.390      -3.000

SCC energy    :     -50.7307024
rep           :       0.2778723
ES            :       0.2478428
AES           :      -0.0700850
AXC           :      -0.0074014
disp          :      -0.0198891
XB            :       0.0000000
fix           :       0.0000000
total E       :     -50.4526217
atomizationE  :       4.9829259     3126.83
(atE without considering molecular charge,
 total energy contains solvation terms)
H-L gap (eV)  :          9.2580
optimized geometry written to: xtbopt.xyz


------------------------------------------------------------------------
 * finished run on 2019/09/16 at 11:44:34.653     
------------------------------------------------------------------------
 total:
 * wall-time:     0 d,  0 h,  0 min,  2.182 sec
 *  cpu-time:     0 d,  0 h,  0 min,  2.164 sec
 * ratio c/w:     0.992 speedup
 SCF:
 * wall-time:     0 d,  0 h,  0 min,  0.137 sec
 *  cpu-time:     0 d,  0 h,  0 min,  0.134 sec
 * ratio c/w:     0.978 speedup
 ANC optimizer:
 * wall-time:     0 d,  0 h,  0 min,  2.022 sec
 *  cpu-time:     0 d,  0 h,  0 min,  2.011 sec
 * ratio c/w:     0.995 speedup

