      -----------------------------------------------------------      
     |                   =====================                   |     
     |                           x T B                           |     
     |                   =====================                   |     
     |                         S. Grimme                         |     
     |          Mulliken Center for Theoretical Chemistry        |     
     |                    University of Bonn                     |     
     |                 Version 6.0.1 (SAW181210)                 |     
      -----------------------------------------------------------      

   This program is distributed in the hope that it will be useful,
   but WITHOUT ANY WARRANTY; without even the implied warranty of
   MERCHANTABILITY or FITNESS FOR A PARTICULAR PURPOSE.
   
   FOR NON-COMMERCIAL, ACADEMIA USE ONLY.
   
   Cite this work as:
   S. Grimme, C. Bannwarth, P. Shushkov, J. Comput. Theory Chem., 2017,
   13, 1989-2009.
   C. Bannwarth, S. Ehlert and S. Grimme., ChemRxiv, 2018, preprint.
   http://doi.org/10.26434/chemrxiv.7246238.v1
   
   for sTDA-xTB:
   S. Grimme and C. Bannwarth, J. Chem. Phys., 2016, 145, 054103.
   
   in the mass-spec context:
   V. Asgeirsson, C. Bauer and S. Grimme, Chem. Sci., 2017, 8, 4879.
   
   if GBSA is used:
   P. Shushkov, F. März and S. Grimme, unpublished.
   
   for ANC optimizer:
   S. Grimme, unpublished.
   Rational Function algorithm used in ANCopt:
   F. Eckert, P. Pulay, H.-J. Werner, J. Comput. Chem., 1997, 18, 1473.
   
   with help from (in alphabetical order)
   C. Bannwarth, F. Bohle, G. Brandenburg, E. Caldeweyher, M. Checinski,
   S. Dohm, S. Ehlert, S. Ehrlich, F. März, H. Neugebauer, J. Pisarek,
   P. Pracht, P. Shushkov, and S. Spicher.
   
 * started run on 2019/09/16 at 11:19:16.397     
========================================================================
 # omp threads = 1
========================================================================
number of atoms            : 23
number of electrons        : 72
charge                     : 0
spin                       : .0
first test random number   : .1001

########################################################################
# WARNING! Please study the warnings concerning your input carefully
#  - XTBPATH is not set, using XTBHOME instead
#  - the use of '-opt' is discouraged, please use '--opt' next time
#  - the use of '-chrg' is discouraged, please use '--chrg' next time
#  - the use of '-uhf' is discouraged, please use '--uhf' next time
########################################################################

           ------------------------------------------------- 
          |                 G F N 2 - x T B                 |
          | Geometry, Frequencies, Noncovalent interactions |
          |            JCTC 2018 parametrisation            |
           ------------------------------------------------- 
      method parameters     
 k(s)        :  1.8500
 k(p)        :  2.2300
 k(d)        :  2.2300
 k(f)        :  2.0000
 kEN (H0ij)  : -2.0000
 D4 a1       :  0.5200
 D4 a2       :  5.0000
 D4 s6       :  1.0000
 D4 s8       :  2.7000
 D4 s9       :  5.0000
 alphaj      :  2.0000


            Z     q(EN)     CN     RAES       Cart. coordinates
     1  S   6.0    0.58    4.29    4.21     3.86037     2.30070     2.35016
     2  O   6.0   -0.31    1.12    1.80     3.26116     2.04789    -0.32537
     3  O   6.0   -0.27    1.09    1.80     4.75053     4.62834     3.45801
     4  O   6.0   -0.24    2.06    1.83     1.42509     1.23623     3.92551
     5  O   6.0   -0.22    2.05    1.83     5.85762     0.16816     3.20513
     6  H   1.0    0.16    1.16    1.46     5.43361    -1.42485     2.38729
     7  H   1.0    0.18    1.31    1.50    -0.07496     1.61495     2.92912
     8  O   6.0   -0.40    1.60    1.81    -2.30024     2.11137     1.31026
     9  H   1.0    0.18    0.94    1.42    -3.66384     3.10150     2.11275
    10  O   6.0   -0.30    2.02    1.83    -2.84381    -2.55408     0.78453
    11  H   1.0    0.15    0.97    1.43    -3.51682    -3.10317     2.38459
    12  H   1.0    0.18    1.12    1.45    -2.62961    -0.75323     0.94481
    13  O   6.0   -0.29    2.02    1.83    -3.86610    -2.04514    -4.22050
    14  H   1.0    0.15    0.97    1.43    -5.35915    -3.02106    -4.58520
    15  H   1.0    0.16    1.03    1.43    -3.43684    -2.44756    -2.49759
    16  O   6.0   -0.28    1.99    1.83     3.43501    -3.83933     1.03555
    17  H   1.0    0.15    0.97    1.43     3.59298    -5.30572    -0.03186
    18  H   1.0    0.15    0.97    1.43     1.64736    -3.51103     1.14114
    19  N   5.0   -0.14    3.96    2.75    -1.11447     2.15921    -3.26167
    20  H   1.0    0.10    1.05    1.44    -1.85390     0.52134    -4.00670
    21  H   1.0    0.11    1.01    1.43     0.82787     2.05087    -3.25805
    22  H   1.0    0.08    0.99    1.43    -1.67736     3.67534    -4.34285
    23  H   1.0    0.13    1.17    1.46    -1.75450     2.38928    -1.43907

  Z AO/shell   Hii/eV     exponent
  1     Wed Apr 25 08:07:45 CEST 2018   EN: 2.200 GM2: 0.406  GM3: 0.0800  RAES: 1.40
     1s    -10.707211    1.230000
  7     Wed Apr 25 08:07:45 CEST 2018   EN: 3.040 GM2: 0.461  GM3:-0.0640  RAES: 1.90
     2s    -16.686243    2.339881
     2p    -12.523956    2.014332
  8     Wed Apr 25 08:07:45 CEST 2018   EN: 3.440 GM2: 0.452  GM3:-0.0517  RAES: 1.80
     2s    -20.229985    2.439742
     2p    -15.503117    2.137023
 16     Tue Apr 24 11:44:34 CEST 2018   EN: 2.580 GM2: 0.340  GM3:-0.0502  RAES: 3.10
     3s    -20.029654    1.981333
     3p    -11.377694    2.025643
     3d     -0.420282    1.702555
 no old-style atom pair restraining (fixing) potential

molecular fragmentation (1/2 indicates fragments):
11111112222222222222222
# atoms in fragment 1/2:     7    16
 fragment masses (1/2) :       98.07       89.09
CMA distance (Bohr)    :   6.847
constraining FC (au)   :  0.0500
           ------------------------------------------------- 
          |        Self-Consistent Charge Iterations        |
           ------------------------------------------------- 

 Ncao       : 59
 Nao        : 58
 Nshell     : 34
 Nel        : 72
 T(el)      :   300.0
 intcut     :    25.0
 scfconv/Eh :  0.100E-05
   qconv/e  :  0.100E-03
 intneglect :  0.100E-07
 broydamp   :      0.250
 iter      E             dE          RMSdq      gap      omega  full diag
   1    -45.4804524 -0.454805E+02  0.722E+00    8.17       0.0  T
   2    -45.5250190 -0.445666E-01  0.508E+00    7.43       1.0  T
   3    -45.5606324 -0.356134E-01  0.121E+00    5.45       1.0  T
   4    -45.5637266 -0.309413E-02  0.660E-01    5.61       1.0  T
   5    -45.5650441 -0.131754E-02  0.267E-01    5.68       1.0  T
   6    -45.5653304 -0.286312E-03  0.160E-01    5.71       1.0  T
   7    -45.5654743 -0.143859E-03  0.427E-02    5.71       1.0  T
   8    -45.5654823 -0.801398E-05  0.236E-02    5.71       1.0  T
   9    -45.5654849 -0.257500E-05  0.889E-03    5.72       2.3  T
  10    -45.5654852 -0.306855E-06  0.280E-03    5.72       7.4  T
  11    -45.5654852 -0.202864E-07  0.111E-03    5.72      18.9  T
  12    -45.5654852 -0.460781E-08  0.394E-04    5.72      52.9  T
  13    -45.5654852 -0.466024E-09  0.191E-04    5.72     109.5  T
speedup  1.05
cpu  time for SCC    0.01 s
wall time for SCC    0.01 s

   *** convergence criteria satisfied after 13 iterations ***

          eigenvalues
 #    :          24         25         26         27         28         29         30         31
 occ. :        2.000      2.000      2.000      2.000      2.000      2.000      2.000      2.000
 eps  :       -13.266    -12.873    -12.518    -12.417    -12.346    -12.288    -12.100    -11.922
 #    :          32         33         34         35         36         37         38         39
 occ. :        2.000      2.000      2.000      2.000      2.000      0.000      0.000      0.000
 eps  :       -11.788    -11.743    -11.599     -9.980     -9.768     -4.051     -1.457     -1.092
 #    :          40         41         42         43         44         45         46         47
 occ. :        0.000      0.000      0.000      0.000      0.000      0.000      0.000      0.000
 eps  :        -0.193      0.995      1.622      1.765      2.513      3.752      4.123      4.845


   #   Z            q   n(s)   n(p)   n(d)      C6AA      α(0)
   1  16 S      1.601  1.633  1.828  0.938    91.054    16.060
   2   8 O     -0.678  1.760  4.918  0.000    28.127     7.111
   3   8 O     -0.618  1.768  4.850  0.000    26.574     6.912
   4   8 O     -0.617  1.770  4.847  0.000    25.558     6.825
   5   8 O     -0.569  1.752  4.817  0.000    24.428     6.672
   6   1 H      0.375  0.625  0.000  0.000     0.531     1.144
   7   1 H      0.379  0.621  0.000  0.000     0.520     1.130
   8   8 O     -0.870  1.839  5.031  0.000    33.797     7.795
   9   1 H      0.205  0.795  0.000  0.000     1.091     1.641
  10   8 O     -0.664  1.750  4.913  0.000    26.759     6.982
  11   1 H      0.274  0.726  0.000  0.000     0.805     1.409
  12   1 H      0.338  0.662  0.000  0.000     0.616     1.233
  13   8 O     -0.616  1.734  4.882  0.000    25.570     6.825
  14   1 H      0.285  0.715  0.000  0.000     0.768     1.376
  15   1 H      0.335  0.665  0.000  0.000     0.623     1.240
  16   8 O     -0.593  1.742  4.851  0.000    25.008     6.749
  17   1 H      0.293  0.707  0.000  0.000     0.743     1.354
  18   1 H      0.320  0.680  0.000  0.000     0.663     1.279
  19   7 N     -0.301  1.259  4.043  0.000    27.743     7.823
  20   1 H      0.294  0.706  0.000  0.000     0.731     1.340
  21   1 H      0.275  0.725  0.000  0.000     0.793     1.395
  22   1 H      0.229  0.771  0.000  0.000     0.968     1.541
  23   1 H      0.323  0.677  0.000  0.000     0.648     1.260

 Mol. C6AA /au·bohr⁶  :       4495.079253
 Mol. C8AA /au·bohr⁸  :      99059.500207
 Mol. α(0) /au        :         97.094504

 
 Wiberg/Mayer (AO) data. WBOs > 0.1 written file <wbo>
 largest (>0.05) Wiberg bond orders for each atom
           total WBO             WBO to atom ...
     1  S   4.809    O    3 1.489    O    2 1.390    O    5 0.953    O    4 0.950
     2  O   1.751    S    1 1.390    O    3 0.140    O    4 0.103    O    5 0.090
     3  O   1.823    S    1 1.489    O    2 0.140    O    4 0.102    O    5 0.079
     4  O   1.953    S    1 0.950    H    7 0.681    O    2 0.103    O    3 0.102    O    5 0.058    O    8 0.051
     5  O   2.009    S    1 0.953    H    6 0.803    O    2 0.090    O    3 0.079    O    4 0.058
     6  H   0.859    O    5 0.803
     7  H   0.856    O    4 0.681    O    8 0.159
     8  O   1.570    H    9 0.945    H   23 0.169    H    7 0.159    H   12 0.116    N   19 0.071    O    4 0.051
     9  H   0.958    O    8 0.945
    10  O   1.806    H   11 0.915    H   12 0.768
    11  H   0.925    O   10 0.915
    12  H   0.886    O   10 0.768    O    8 0.116
    13  O   1.841    H   14 0.906    H   15 0.842
    14  H   0.919    O   13 0.906
    15  H   0.887    O   13 0.842
    16  O   1.851    H   17 0.908    H   18 0.889
    17  H   0.914    O   16 0.908
    18  H   0.898    O   16 0.889
    19  N   3.544    H   22 0.943    H   21 0.901    H   20 0.858    H   23 0.720    O    8 0.071
    20  H   0.913    N   19 0.858
    21  H   0.924    N   19 0.901
    22  H   0.947    N   19 0.943
    23  H   0.896    N   19 0.720    O    8 0.169
 MOs/occ written to file <molden.input>
 
molecular dipole:
                 x           y           z       tot (Debye)
 q only:       -1.575      -1.105      -3.003
   full:       -2.138      -1.341      -2.805       9.590
molecular quadrupole (traceless):
                xx          xy          yy          xz          yz          zz
 q only:       -4.768     -10.034       3.449      -5.645     -13.300       1.319
  q+dip:       -4.125     -10.847       4.918      -8.913     -13.289      -0.792
   full:       -3.870     -11.018       4.959      -8.971     -13.272      -1.089

SCC energy    :     -45.5654852
rep           :       0.2573884
ES            :       0.2621026
AES           :      -0.0462656
AXC           :      -0.0046457
disp          :      -0.0151608
XB            :       0.0000000
fix           :       0.0000000
total E       :     -45.3078634
atomizationE  :       4.3909259     2755.35
(atE without considering molecular charge,
 total energy contains solvation terms)
H-L gap (eV)  :          5.7162
           ------------------------------------------------- 
          |                 ===============                 |
          |                   A N C O P T                   |
          |                 ===============                 |
          |          Approximate Normal Coordinate          |
          |           Rational Function Optimizer           |
           ------------------------------------------------- 
dumping coords to <xtbopt.coord> and <xtbopt.log>
 optlevel               2
 Maxcycle             460
 Maxmicro              25
 Econv         1.000000000000000E-007
 Gconv         2.000000000000000E-004
 Maxdispl       1.00000000000000     
 Hlow          5.000000000000000E-003
 S6             20.0000000000000     
 Nvar               63

generating ANC from model Hessian ...
 Shifting diagonal of input Hessian by   5.167490298956457E-003
 Lowest  eigenvalues of input Hessian
    0.005000    0.005133   -0.000000   -0.000000   -0.000000   -0.000000
    0.000000    0.000000    0.005499    0.005578    0.005787    0.005922
    0.006101    0.006256    0.006671    0.007172    0.007603    0.007699
 Highest eigenvalues
    1.427164    1.436712    1.444016    1.950237    2.765519    3.588303
 
cpu  time for ANC gen    0.01 s
wall time for ANC gen    0.01 s
................................................................................
.............................. CYCLE    1 ......................................
................................................................................
   1    -45.5654852 -0.455655E+02  0.564E-05    5.72       0.0  T
   2    -45.5654852 -0.422062E-11  0.446E-05    5.72     467.7  T
   3    -45.5654852 -0.559197E-11  0.172E-05    5.72    1213.3  T
speedup  0.83
cpu  time for SCC    0.00 s
wall time for SCC    0.00 s
speedup  0.97
cpu  time for grad    0.01 s
wall time for grad    0.01 s
 E :    -45.30786336  G :  0.151532    pred/act E change:  0.000D+00  0.278D-07
Maxdispl :   0.1187   ||displ|| :   0.2839   Lambda : -0.205D-01
Largest |displ|/coords:  0.1187 (  18)  0.0780 (  23)  0.0681 (  11)
................................................................................
.............................. CYCLE    2 ......................................
................................................................................
   1    -45.5752669 -0.455753E+02  0.320E-01    6.51       0.0  T
   2    -45.5754403 -0.173383E-03  0.238E-01    6.61       1.0  T
   3    -45.5755118 -0.715048E-04  0.694E-02    6.79       1.0  T
   4    -45.5755287 -0.169785E-04  0.275E-02    6.78       1.0  T
   5    -45.5755298 -0.105688E-05  0.640E-03    6.77       3.3  T
   6    -45.5755299 -0.716832E-07  0.361E-03    6.77       5.8  T
   7    -45.5755299 -0.172884E-07  0.149E-03    6.77      14.0  T
speedup  0.93
cpu  time for SCC    0.00 s
wall time for SCC    0.01 s
speedup  0.93
cpu  time for grad    0.01 s
wall time for grad    0.01 s
 E :    -45.32351223  G :  0.083651    pred/act E change:  0.000D+00 -0.156D-01
Maxdispl :   0.1263   ||displ|| :   0.3392   Lambda : -0.889D-02
Largest |displ|/coords:  0.1263 (   3)  0.1114 (   6)  0.1000 (  18)
................................................................................
.............................. CYCLE    3 ......................................
................................................................................
   1    -45.5819258 -0.455819E+02  0.267E-01    7.39       0.0  T
   2    -45.5820872 -0.161403E-03  0.196E-01    7.48       1.0  T
   3    -45.5821437 -0.564512E-04  0.672E-02    7.64       1.0  T
   4    -45.5821549 -0.112030E-04  0.210E-02    7.64       1.0  T
   5    -45.5821556 -0.709348E-06  0.449E-03    7.63       4.6  T
   6    -45.5821556 -0.367419E-07  0.266E-03    7.62       7.8  T
speedup  0.98
cpu  time for SCC    0.00 s
wall time for SCC    0.01 s
speedup  0.94
cpu  time for grad    0.01 s
wall time for grad    0.01 s
 E :    -45.33080064  G :  0.053899    pred/act E change: -0.111D-01 -0.729D-02
Maxdispl :   0.1731   ||displ|| :   0.3890   Lambda : -0.518D-02
Largest |displ|/coords:  0.1731 (   3)  0.1444 (   6)  0.1247 (  13)
................................................................................
.............................. CYCLE    4 ......................................
................................................................................
   1    -45.5862347 -0.455862E+02  0.238E-01    8.06       0.0  T
   2    -45.5863685 -0.133769E-03  0.173E-01    8.14       1.0  T
   3    -45.5864129 -0.444372E-04  0.609E-02    8.27       1.0  T
   4    -45.5864211 -0.817165E-05  0.163E-02    8.27       1.3  T
   5    -45.5864215 -0.459500E-06  0.333E-03    8.26       6.3  T
   6    -45.5864215 -0.179168E-07  0.203E-03    8.26      10.3  T
speedup  0.85
cpu  time for SCC    0.00 s
wall time for SCC    0.00 s
speedup  0.99
cpu  time for grad    0.01 s
wall time for grad    0.01 s
 E :    -45.33519915  G :  0.035676    pred/act E change: -0.496D-02 -0.440D-02
Maxdispl :   0.2916   ||displ|| :   0.6249   Lambda : -0.625D-02
Largest |displ|/coords:  0.2916 (   3)  0.2494 (   6)  0.1969 (  13)
................................................................................
.............................. CYCLE    5 ......................................
................................................................................
   1    -45.5907255 -0.455907E+02  0.396E-01    8.83       0.0  T
   2    -45.5910842 -0.358686E-03  0.285E-01    8.95       1.0  T
   3    -45.5911997 -0.115472E-03  0.998E-02    9.08       1.0  T
   4    -45.5912223 -0.226038E-04  0.257E-02    9.08       1.0  T
   5    -45.5912233 -0.107093E-05  0.560E-03    9.07       3.7  T
   6    -45.5912234 -0.443177E-07  0.342E-03    9.07       6.1  T
speedup  1.09
cpu  time for SCC    0.00 s
wall time for SCC    0.00 s
speedup  1.07
cpu  time for grad    0.01 s
wall time for grad    0.01 s
 E :    -45.33950426  G :  0.020631    pred/act E change: -0.298D-02 -0.431D-02
Maxdispl :   0.2861   ||displ|| :   0.6102   Lambda : -0.316D-02
Largest |displ|/coords:  0.2861 (   3)  0.2215 (  11)  0.2159 (   8)
................................................................................
.............................. CYCLE    6 ......................................
................................................................................
   1    -45.5832855 -0.455833E+02  0.471E-01    9.17       0.0  T
   2    -45.5834828 -0.197261E-03  0.349E-01    9.17       1.0  T
   3    -45.5835537 -0.708742E-04  0.821E-02    9.15       1.0  T
   4    -45.5835809 -0.272562E-04  0.198E-02    9.16       1.1  T
   5    -45.5835818 -0.923151E-06  0.513E-03    9.16       4.1  T
   6    -45.5835819 -0.185850E-07  0.311E-03    9.16       6.7  T
speedup  0.85
cpu  time for SCC    0.00 s
wall time for SCC    0.00 s
speedup  0.96
cpu  time for grad    0.01 s
wall time for grad    0.01 s
 E :    -45.33967677  G :  0.044401    pred/act E change: -0.434D-02 -0.173D-03
Maxdispl :   0.1307   ||displ|| :   0.3154   Lambda : -0.480D-02
Largest |displ|/coords:  0.1307 (   3)  0.0957 (   6)  0.0929 (  21)
................................................................................
.............................. CYCLE    7 ......................................
................................................................................
   1    -45.5934930 -0.455935E+02  0.337E-01    9.09       0.0  T
   2    -45.5935308 -0.377375E-04  0.255E-01    9.09       1.0  T
   3    -45.5935597 -0.289706E-04  0.399E-02    9.09       1.0  T
   4    -45.5935647 -0.496825E-05  0.124E-02    9.09       1.7  T
   5    -45.5935650 -0.245340E-06  0.411E-03    9.09       5.1  T
   6    -45.5935650 -0.617512E-08  0.232E-03    9.09       9.0  T
speedup  0.78
cpu  time for SCC    0.00 s
wall time for SCC    0.01 s
speedup  0.85
cpu  time for grad    0.01 s
wall time for grad    0.01 s
 E :    -45.34172918  G :  0.024118    pred/act E change: -0.217D-02 -0.205D-02
Maxdispl :   0.1914   ||displ|| :   0.3823   Lambda : -0.208D-02
Largest |displ|/coords:  0.1914 (   9)  0.1788 (   6)  0.1291 (  10)
................................................................................
.............................. CYCLE    8 ......................................
................................................................................
   1    -45.5781965 -0.455782E+02  0.648E-01    9.01       0.0  T
   2    -45.5784721 -0.275662E-03  0.479E-01    9.01       1.0  T
   3    -45.5785893 -0.117195E-03  0.108E-01    9.02       1.0  T
   4    -45.5786238 -0.344633E-04  0.204E-02    9.01       1.0  T
   5    -45.5786251 -0.131870E-05  0.709E-03    9.01       2.9  T
   6    -45.5786252 -0.807875E-07  0.470E-03    9.01       4.4  T
   7    -45.5786252 -0.259796E-07  0.105E-03    9.01      19.9  T
speedup  1.13
cpu  time for SCC    0.01 s
wall time for SCC    0.01 s
speedup  1.02
cpu  time for grad    0.01 s
wall time for grad    0.01 s
 E :    -45.33849808  G :  0.072012    pred/act E change: -0.264D-02  0.323D-02
Maxdispl :   0.2343   ||displ|| :   0.5462   Lambda : -0.200D-01
Largest |displ|/coords:  0.2343 (   9)  0.2075 (   8)  0.2028 (   3)
................................................................................
.............................. CYCLE    9 ......................................
................................................................................
   1    -45.6000504 -0.456001E+02  0.990E-01    9.09       0.0  T
   2    -45.6005700 -0.519577E-03  0.745E-01    9.09       1.0  T
   3    -45.6008778 -0.307762E-03  0.147E-01    9.10       1.0  T
   4    -45.6009502 -0.724202E-04  0.316E-02    9.09       1.0  T
   5    -45.6009529 -0.273598E-05  0.133E-02    9.09       1.6  T
   6    -45.6009530 -0.121208E-06  0.688E-03    9.09       3.0  T
   7    -45.6009531 -0.901815E-07  0.123E-03    9.10      17.0  T
   8    -45.6009531 -0.508112E-08  0.592E-04    9.10      35.2  T
speedup  0.97
cpu  time for SCC    0.01 s
wall time for SCC    0.01 s
speedup  1.02
cpu  time for grad    0.01 s
wall time for grad    0.01 s
 E :    -45.34031005  G :  0.054064    pred/act E change: -0.119D-02 -0.181D-02
Maxdispl :   0.1013   ||displ|| :   0.2526   Lambda : -0.346D-02
Largest |displ|/coords:  0.1013 (  16)  0.0796 (  15)  0.0772 (   5)
................................................................................
.............................. CYCLE   10 ......................................
................................................................................
   1    -45.5951864 -0.455952E+02  0.267E-01    9.03       0.0  T
   2    -45.5952185 -0.320858E-04  0.201E-01    9.03       1.0  T
   3    -45.5952404 -0.218512E-04  0.368E-02    9.02       1.0  T
   4    -45.5952444 -0.396930E-05  0.958E-03    9.02       2.2  T
   5    -45.5952446 -0.236870E-06  0.321E-03    9.02       6.5  T
   6    -45.5952446 -0.811696E-08  0.191E-03    9.02      10.9  T
speedup  1.09
cpu  time for SCC    0.00 s
wall time for SCC    0.00 s
speedup  1.08
cpu  time for grad    0.01 s
wall time for grad    0.01 s
 E :    -45.34240018  G :  0.015871    pred/act E change: -0.130D-01 -0.209D-02
Maxdispl :   0.0880   ||displ|| :   0.2362   Lambda : -0.117D-02
Largest |displ|/coords:  0.0880 (   7)  0.0864 (   3)  0.0853 (  14)
................................................................................
.............................. CYCLE   11 ......................................
................................................................................
   1    -45.5897211 -0.455897E+02  0.306E-01    8.98       0.0  T
   2    -45.5897494 -0.282897E-04  0.231E-01    8.98       1.0  T
   3    -45.5897679 -0.184461E-04  0.340E-02    8.98       1.0  T
   4    -45.5897721 -0.420719E-05  0.903E-03    8.98       2.3  T
   5    -45.5897722 -0.138104E-06  0.299E-03    8.98       7.0  T
   6    -45.5897722 -0.774562E-08  0.167E-03    8.98      12.5  T
speedup  1.04
cpu  time for SCC    0.01 s
wall time for SCC    0.00 s
speedup  1.06
cpu  time for grad    0.01 s
wall time for grad    0.01 s
 E :    -45.34286107  G :  0.021977    pred/act E change: -0.184D-02 -0.461D-03
Maxdispl :   0.1249   ||displ|| :   0.2322   Lambda : -0.885D-03
Largest |displ|/coords:  0.1249 (   2)  0.0972 (   7)  0.0917 (  11)
................................................................................
.............................. CYCLE   12 ......................................
................................................................................
   1    -45.5915708 -0.455916E+02  0.215E-01    8.97       0.0  T
   2    -45.5915828 -0.119740E-04  0.162E-01    8.98       1.0  T
   3    -45.5915918 -0.900838E-05  0.218E-02    8.98       1.0  T
   4    -45.5915935 -0.166731E-05  0.705E-03    8.98       3.0  T
   5    -45.5915936 -0.908301E-07  0.262E-03    8.98       8.0  T
   6    -45.5915936 -0.392384E-08  0.145E-03    8.98      14.4  T
speedup  1.06
cpu  time for SCC    0.00 s
wall time for SCC    0.00 s
speedup  1.06
cpu  time for grad    0.01 s
wall time for grad    0.01 s
 E :    -45.34329876  G :  0.021723    pred/act E change: -0.618D-03 -0.438D-03
Maxdispl :   0.1104   ||displ|| :   0.1913   Lambda : -0.810D-03
Largest |displ|/coords:  0.1104 (   2)  0.0872 (  11)  0.0455 (  15)
................................................................................
.............................. CYCLE   13 ......................................
................................................................................
   1    -45.5952570 -0.455953E+02  0.141E-01    9.01       0.0  T
   2    -45.5952703 -0.133541E-04  0.105E-01    9.01       1.0  T
   3    -45.5952776 -0.722633E-05  0.223E-02    9.02       1.0  T
   4    -45.5952792 -0.162222E-05  0.654E-03    9.01       3.2  T
   5    -45.5952793 -0.109224E-06  0.192E-03    9.01      10.9  T
   6    -45.5952793 -0.187921E-08  0.118E-03    9.01      17.7  T
speedup  0.85
cpu  time for SCC    0.00 s
wall time for SCC    0.00 s
speedup  0.98
cpu  time for grad    0.01 s
wall time for grad    0.01 s
 E :    -45.34361031  G :  0.011384    pred/act E change: -0.466D-03 -0.312D-03
Maxdispl :   0.1172   ||displ|| :   0.2027   Lambda : -0.504D-03
Largest |displ|/coords:  0.1172 (   2)  0.0877 (   4)  0.0826 (   3)
................................................................................
.............................. CYCLE   14 ......................................
................................................................................
   1    -45.5946260 -0.455946E+02  0.153E-01    9.01       0.0  T
   2    -45.5946316 -0.559237E-05  0.116E-01    9.01       1.0  T
   3    -45.5946355 -0.387962E-05  0.154E-02    9.01       1.4  T
   4    -45.5946364 -0.894710E-06  0.650E-03    9.01       3.2  T
   5    -45.5946364 -0.489513E-07  0.165E-03    9.01      12.6  T
   6    -45.5946364 -0.268651E-08  0.101E-03    9.01      20.7  T
speedup  1.06
cpu  time for SCC    0.00 s
wall time for SCC    0.00 s
speedup  0.97
cpu  time for grad    0.01 s
wall time for grad    0.01 s
 E :    -45.34394825  G :  0.009883    pred/act E change: -0.420D-03 -0.338D-03
Maxdispl :   0.1812   ||displ|| :   0.3452   Lambda : -0.593D-03
Largest |displ|/coords:  0.1812 (   2)  0.1316 (   3)  0.1289 (  11)
................................................................................
.............................. CYCLE   15 ......................................
................................................................................
   1    -45.5923442 -0.455923E+02  0.238E-01    8.99       0.0  T
   2    -45.5923611 -0.169624E-04  0.180E-01    9.00       1.0  T
   3    -45.5923725 -0.113935E-04  0.271E-02    9.00       1.0  T
   4    -45.5923751 -0.257525E-05  0.930E-03    9.00       2.2  T
   5    -45.5923753 -0.151069E-06  0.270E-03    9.00       7.7  T
   6    -45.5923753 -0.568404E-08  0.164E-03    9.00      12.7  T
speedup  1.04
cpu  time for SCC    0.00 s
wall time for SCC    0.00 s
speedup  0.96
cpu  time for grad    0.01 s
wall time for grad    0.01 s
 E :    -45.34417729  G :  0.020319    pred/act E change: -0.262D-03 -0.229D-03
Maxdispl :   0.1114   ||displ|| :   0.1929   Lambda : -0.615D-03
Largest |displ|/coords:  0.1114 (   2)  0.0709 (   1)  0.0665 (  16)
................................................................................
.............................. CYCLE   16 ......................................
................................................................................
   1    -45.5966637 -0.455967E+02  0.984E-02    9.00       0.0  T
   2    -45.5966742 -0.105081E-04  0.727E-02    9.00       1.0  T
   3    -45.5966794 -0.513134E-05  0.203E-02    9.00       1.0  T
   4    -45.5966805 -0.109297E-05  0.721E-03    9.00       2.9  T
   5    -45.5966806 -0.850564E-07  0.171E-03    9.00      12.2  T
   6    -45.5966806 -0.292436E-08  0.101E-03    9.00      20.7  T
speedup  1.06
cpu  time for SCC    0.01 s
wall time for SCC    0.00 s
speedup  0.98
cpu  time for grad    0.01 s
wall time for grad    0.01 s
 E :    -45.34449527  G :  0.014946    pred/act E change: -0.332D-03 -0.318D-03
Maxdispl :   0.1462   ||displ|| :   0.3313   Lambda : -0.749D-03
Largest |displ|/coords:  0.1462 (  11)  0.1327 (   2)  0.1181 (   5)
................................................................................
.............................. CYCLE   17 ......................................
................................................................................
   1    -45.5922258 -0.455922E+02  0.251E-01    9.01       0.0  T
   2    -45.5922384 -0.125733E-04  0.188E-01    9.01       1.0  T
   3    -45.5922455 -0.713257E-05  0.231E-02    9.01       1.0  T
   4    -45.5922475 -0.203857E-05  0.905E-03    9.01       2.3  T
   5    -45.5922477 -0.126292E-06  0.282E-03    9.01       7.4  T
   6    -45.5922477 -0.653343E-08  0.172E-03    9.01      12.1  T
speedup  1.06
cpu  time for SCC    0.00 s
wall time for SCC    0.00 s
speedup  1.05
cpu  time for grad    0.01 s
wall time for grad    0.01 s
 E :    -45.34459598  G :  0.020133    pred/act E change: -0.319D-03 -0.101D-03
Maxdispl :   0.0777   ||displ|| :   0.1199   Lambda : -0.673D-03
Largest |displ|/coords:  0.0777 (   5)  0.0372 (   4)  0.0347 (   1)
................................................................................
.............................. CYCLE   18 ......................................
................................................................................
   1    -45.5937402 -0.455937E+02  0.994E-02    9.00       0.0  T
   2    -45.5937440 -0.382223E-05  0.747E-02    9.00       1.0  T
   3    -45.5937466 -0.263923E-05  0.127E-02    9.00       1.6  T
   4    -45.5937471 -0.514193E-06  0.465E-03    9.00       4.5  T
   5    -45.5937472 -0.268889E-07  0.131E-03    9.00      16.0  T
speedup  1.00
cpu  time for SCC    0.00 s
wall time for SCC    0.00 s
speedup  0.85
cpu  time for grad    0.01 s
wall time for grad    0.01 s
 E :    -45.34499701  G :  0.010284    pred/act E change: -0.416D-03 -0.401D-03
Maxdispl :   0.1072   ||displ|| :   0.2359   Lambda : -0.621D-03
Largest |displ|/coords:  0.1072 (   3)  0.0754 (   2)  0.0695 (  13)
................................................................................
.............................. CYCLE   19 ......................................
................................................................................
   1    -45.5963703 -0.455964E+02  0.191E-01    9.01       0.0  T
   2    -45.5963902 -0.199263E-04  0.145E-01    9.01       1.0  T
   3    -45.5964006 -0.103436E-04  0.301E-02    9.00       1.0  T
   4    -45.5964037 -0.312222E-05  0.978E-03    9.00       2.1  T
   5    -45.5964038 -0.126768E-06  0.230E-03    9.00       9.1  T
   6    -45.5964038 -0.523735E-08  0.138E-03    9.00      15.1  T
speedup  1.25
cpu  time for SCC    0.01 s
wall time for SCC    0.00 s
speedup  1.05
cpu  time for grad    0.01 s
wall time for grad    0.01 s
 E :    -45.34532361  G :  0.017671    pred/act E change: -0.342D-03 -0.327D-03
Maxdispl :   0.1206   ||displ|| :   0.3448   Lambda : -0.841D-03
Largest |displ|/coords:  0.1206 (   1)  0.1159 (  14)  0.1068 (   2)
................................................................................
.............................. CYCLE   20 ......................................
................................................................................
   1    -45.5950484 -0.455950E+02  0.248E-01    9.05       0.0  T
   2    -45.5950895 -0.410685E-04  0.189E-01    9.05       1.0  T
   3    -45.5951128 -0.233422E-04  0.415E-02    9.04       1.0  T
   4    -45.5951192 -0.634864E-05  0.170E-02    9.04       1.2  T
   5    -45.5951196 -0.427168E-06  0.410E-03    9.04       5.1  T
   6    -45.5951196 -0.179590E-07  0.253E-03    9.04       8.2  T
   7    -45.5951197 -0.146171E-07  0.738E-04    9.04      28.3  T
speedup  1.13
cpu  time for SCC    0.01 s
wall time for SCC    0.01 s
speedup  1.01
cpu  time for grad    0.01 s
wall time for grad    0.01 s
 E :    -45.34598068  G :  0.021948    pred/act E change: -0.328D-03 -0.657D-03
Maxdispl :   0.2052   ||displ|| :   0.5631   Lambda : -0.234D-02
Largest |displ|/coords:  0.2052 (  26)  0.1772 (  13)  0.1737 (   6)
................................................................................
.............................. CYCLE   21 ......................................
................................................................................
   1    -45.5949895 -0.455950E+02  0.451E-01    9.18       0.0  T
   2    -45.5951707 -0.181195E-03  0.343E-01    9.16       1.0  T
   3    -45.5952787 -0.108065E-03  0.871E-02    9.10       1.0  T
   4    -45.5953029 -0.241594E-04  0.357E-02    9.10       1.0  T
   5    -45.5953047 -0.179903E-05  0.864E-03    9.11       2.4  T
   6    -45.5953048 -0.807813E-07  0.531E-03    9.11       3.9  T
   7    -45.5953048 -0.603193E-07  0.163E-03    9.11      12.8  T
speedup  0.91
cpu  time for SCC    0.00 s
wall time for SCC    0.01 s
speedup  0.99
cpu  time for grad    0.01 s
wall time for grad    0.01 s
 E :    -45.34761964  G :  0.032419    pred/act E change: -0.470D-03 -0.164D-02
Maxdispl :   0.1032   ||displ|| :   0.3429   Lambda : -0.265D-02
Largest |displ|/coords:  0.1032 (  13)  0.0978 (  26)  0.0940 (  17)
................................................................................
.............................. CYCLE   22 ......................................
................................................................................
   1    -45.6034122 -0.456034E+02  0.278E-01    9.17       0.0  T
   2    -45.6035197 -0.107468E-03  0.206E-01    9.14       1.0  T
   3    -45.6035811 -0.614669E-04  0.688E-02    9.08       1.0  T
   4    -45.6035902 -0.907817E-05  0.244E-02    9.08       1.0  T
   5    -45.6035912 -0.990257E-06  0.675E-03    9.08       3.1  T
   6    -45.6035913 -0.590497E-07  0.396E-03    9.08       5.3  T
   7    -45.6035913 -0.241457E-07  0.115E-03    9.08      18.2  T
speedup  0.93
cpu  time for SCC    0.01 s
wall time for SCC    0.01 s
speedup  1.00
cpu  time for grad    0.01 s
wall time for grad    0.01 s
 E :    -45.34910391  G :  0.035853    pred/act E change: -0.154D-02 -0.148D-02
Maxdispl :   0.1571   ||displ|| :   0.4774   Lambda : -0.377D-02
Largest |displ|/coords:  0.1571 (  14)  0.1554 (   3)  0.1378 (   4)
................................................................................
.............................. CYCLE   23 ......................................
................................................................................
   1    -45.6033326 -0.456033E+02  0.334E-01    9.02       0.0  T
   2    -45.6034340 -0.101449E-03  0.252E-01    9.00       1.0  T
   3    -45.6034946 -0.606172E-04  0.743E-02    8.95       1.0  T
   4    -45.6035061 -0.114655E-04  0.256E-02    8.95       1.0  T
   5    -45.6035070 -0.941402E-06  0.662E-03    8.95       3.1  T
   6    -45.6035071 -0.493275E-07  0.409E-03    8.95       5.1  T
   7    -45.6035071 -0.258083E-07  0.982E-04    8.95      21.2  T
speedup  1.11
cpu  time for SCC    0.01 s
wall time for SCC    0.01 s
speedup  1.07
cpu  time for grad    0.01 s
wall time for grad    0.01 s
 E :    -45.35146577  G :  0.044676    pred/act E change: -0.148D-02 -0.236D-02
Maxdispl :   0.2331   ||displ|| :   0.5295   Lambda : -0.784D-02
Largest |displ|/coords:  0.2331 (  25)  0.2048 (  26)  0.1752 (  28)
................................................................................
.............................. CYCLE   24 ......................................
................................................................................
   1    -45.6109700 -0.456110E+02  0.430E-01    8.68       0.0  T
   2    -45.6111523 -0.182370E-03  0.312E-01    8.69       1.0  T
   3    -45.6112236 -0.713055E-04  0.886E-02    8.69       1.0  T
   4    -45.6112405 -0.168761E-04  0.333E-02    8.68       1.0  T
   5    -45.6112413 -0.824368E-06  0.622E-03    8.68       3.4  T
   6    -45.6112414 -0.655628E-07  0.338E-03    8.68       6.2  T
   7    -45.6112414 -0.140338E-07  0.122E-03    8.68      17.2  T
speedup  1.11
cpu  time for SCC    0.01 s
wall time for SCC    0.01 s
speedup  1.01
cpu  time for grad    0.01 s
wall time for grad    0.01 s
 E :    -45.35218986  G :  0.052927    pred/act E change: -0.231D-02 -0.724D-03
Maxdispl :   0.1634   ||displ|| :   0.4907   Lambda : -0.905D-02
Largest |displ|/coords:  0.1634 (  19)  0.1632 (  26)  0.1568 (  24)
................................................................................
.............................. CYCLE   25 ......................................
................................................................................
   1    -45.6189787 -0.456190E+02  0.447E-01    9.10       0.0  T
   2    -45.6191616 -0.182857E-03  0.336E-01    9.09       1.0  T
   3    -45.6193107 -0.149148E-03  0.817E-02    9.07       1.0  T
   4    -45.6193324 -0.216890E-04  0.295E-02    9.07       1.0  T
   5    -45.6193335 -0.111681E-05  0.889E-03    9.07       2.3  T
   6    -45.6193336 -0.762277E-07  0.463E-03    9.07       4.5  T
   7    -45.6193337 -0.287851E-07  0.155E-03    9.07      13.4  T
speedup  0.91
cpu  time for SCC    0.00 s
wall time for SCC    0.01 s
speedup  0.91
cpu  time for grad    0.01 s
wall time for grad    0.01 s
 E :    -45.35174853  G :  0.061177    pred/act E change: -0.502D-02  0.441D-03
Maxdispl :   0.1673   ||displ|| :   0.4277   Lambda : -0.155D-01
Largest |displ|/coords:  0.1673 (  24)  0.1229 (  13)  0.1187 (  28)

generating ANC from model Hessian ...
 Shifting diagonal of input Hessian by   5.306522988649875E-003
 Lowest  eigenvalues of input Hessian
    0.005000   -0.000000   -0.000000   -0.000000    0.000000    0.000000
    0.000000    0.005430    0.005903    0.006066    0.006249    0.007237
    0.007588    0.008693    0.009692    0.009897    0.011428    0.014161
 Highest eigenvalues
    1.418306    1.420146    1.422715    2.723081    3.222800    3.686276
 
cpu  time for ANC gen    0.01 s
wall time for ANC gen    0.02 s
................................................................................
.............................. CYCLE   26 ......................................
................................................................................
   1    -45.5972984 -0.455973E+02  0.395E-01    8.59       0.0  T
   2    -45.5975328 -0.234449E-03  0.300E-01    8.64       1.0  T
   3    -45.5977481 -0.215258E-03  0.872E-02    8.76       1.0  T
   4    -45.5977662 -0.181112E-04  0.326E-02    8.76       1.0  T
   5    -45.5977680 -0.176955E-05  0.109E-02    8.75       1.9  T
   6    -45.5977682 -0.191826E-06  0.576E-03    8.75       3.6  T
   7    -45.5977682 -0.276480E-07  0.166E-03    8.75      12.5  T
   8    -45.5977682 -0.672258E-08  0.401E-04    8.75      52.0  T
   9    -45.5977682 -0.221881E-09  0.168E-04    8.75     124.0  T
speedup  1.01
cpu  time for SCC    0.01 s
wall time for SCC    0.01 s
speedup  1.00
cpu  time for grad    0.01 s
wall time for grad    0.01 s
 E :    -45.35152168  G :  0.044359    pred/act E change:  0.000D+00  0.227D-03
Maxdispl :   0.1019   ||displ|| :   0.2433   Lambda : -0.430D-02
Largest |displ|/coords:  0.1019 (   4)  0.0931 (   6)  0.0912 (  27)
................................................................................
.............................. CYCLE   27 ......................................
................................................................................
   1    -45.6056759 -0.456057E+02  0.190E-01    8.94       0.0  T
   2    -45.6056878 -0.119065E-04  0.143E-01    8.94       1.0  T
   3    -45.6056975 -0.962679E-05  0.197E-02    8.92       1.1  T
   4    -45.6056986 -0.111144E-05  0.606E-03    8.92       3.4  T
   5    -45.6056987 -0.763823E-07  0.217E-03    8.92       9.6  T
   6    -45.6056987 -0.694996E-08  0.117E-03    8.92      17.8  T
speedup  1.09
cpu  time for SCC    0.00 s
wall time for SCC    0.00 s
speedup  0.97
cpu  time for grad    0.01 s
wall time for grad    0.01 s
 E :    -45.35443404  G :  0.024680    pred/act E change:  0.000D+00 -0.291D-02
Maxdispl :   0.2146   ||displ|| :   0.4009   Lambda : -0.300D-02
Largest |displ|/coords:  0.2146 (   1)  0.1437 (   9)  0.1417 (   7)
................................................................................
.............................. CYCLE   28 ......................................
................................................................................
   1    -45.6101323 -0.456101E+02  0.350E-01    9.05       0.0  T
   2    -45.6101779 -0.456277E-04  0.266E-01    9.04       1.0  T
   3    -45.6102150 -0.371196E-04  0.414E-02    9.02       1.0  T
   4    -45.6102205 -0.551186E-05  0.163E-02    9.02       1.3  T
   5    -45.6102209 -0.419775E-06  0.441E-03    9.02       4.7  T
   6    -45.6102209 -0.155663E-07  0.251E-03    9.02       8.3  T
speedup  1.09
cpu  time for SCC    0.00 s
wall time for SCC    0.00 s
speedup  0.97
cpu  time for grad    0.01 s
wall time for grad    0.01 s
 E :    -45.35498219  G :  0.023333    pred/act E change: -0.228D-02 -0.548D-03
Maxdispl :   0.1062   ||displ|| :   0.2473   Lambda : -0.224D-02
Largest |displ|/coords:  0.1062 (   3)  0.0916 (   5)  0.0891 (   4)
................................................................................
.............................. CYCLE   29 ......................................
................................................................................
   1    -45.6130547 -0.456131E+02  0.187E-01    9.04       0.0  T
   2    -45.6130633 -0.864828E-05  0.140E-01    9.03       1.0  T
   3    -45.6130684 -0.504394E-05  0.173E-02    9.01       1.2  T
   4    -45.6130698 -0.148217E-05  0.554E-03    9.02       3.8  T
   5    -45.6130699 -0.411083E-07  0.221E-03    9.02       9.4  T
speedup  1.03
cpu  time for SCC    0.00 s
wall time for SCC    0.00 s
speedup  1.04
cpu  time for grad    0.01 s
wall time for grad    0.01 s
 E :    -45.35611898  G :  0.019179    pred/act E change: -0.174D-02 -0.114D-02
Maxdispl :   0.0665   ||displ|| :   0.1688   Lambda : -0.108D-02
Largest |displ|/coords:  0.0665 (   8)  0.0532 (  27)  0.0518 (  21)
................................................................................
.............................. CYCLE   30 ......................................
................................................................................
   1    -45.6130421 -0.456130E+02  0.989E-02    8.96       0.0  T
   2    -45.6130505 -0.842598E-05  0.718E-02    8.96       1.0  T
   3    -45.6130551 -0.457972E-05  0.190E-02    8.95       1.1  T
   4    -45.6130559 -0.760017E-06  0.562E-03    8.95       3.7  T
   5    -45.6130559 -0.506758E-07  0.166E-03    8.95      12.6  T
   6    -45.6130559 -0.449906E-08  0.894E-04    8.95      23.3  T
speedup  0.83
cpu  time for SCC    0.00 s
wall time for SCC    0.00 s
speedup  0.96
cpu  time for grad    0.01 s
wall time for grad    0.01 s
 E :    -45.35671000  G :  0.009568    pred/act E change: -0.119D-02 -0.591D-03
Maxdispl :   0.1639   ||displ|| :   0.3348   Lambda : -0.924D-03
Largest |displ|/coords:  0.1639 (   4)  0.1350 (   1)  0.1154 (   7)
................................................................................
.............................. CYCLE   31 ......................................
................................................................................
   1    -45.6097985 -0.456098E+02  0.260E-01    8.94       0.0  T
   2    -45.6098158 -0.172692E-04  0.197E-01    8.93       1.0  T
   3    -45.6098316 -0.158231E-04  0.244E-02    8.92       1.0  T
   4    -45.6098338 -0.220170E-05  0.896E-03    8.92       2.3  T
   5    -45.6098339 -0.777830E-07  0.342E-03    8.92       6.1  T
   6    -45.6098339 -0.144447E-07  0.184E-03    8.92      11.3  T
   7    -45.6098339 -0.494092E-08  0.340E-04    8.92      61.3  T
speedup  1.11
cpu  time for SCC    0.01 s
wall time for SCC    0.01 s
speedup  0.99
cpu  time for grad    0.01 s
wall time for grad    0.01 s
 E :    -45.35709395  G :  0.026773    pred/act E change: -0.554D-03 -0.384D-03
Maxdispl :   0.1519   ||displ|| :   0.2891   Lambda : -0.126D-02
Largest |displ|/coords:  0.1519 (   1)  0.1023 (   8)  0.0955 (  24)
................................................................................
.............................. CYCLE   32 ......................................
................................................................................
   1    -45.6148499 -0.456148E+02  0.228E-01    8.95       0.0  T
   2    -45.6148712 -0.212451E-04  0.172E-01    8.94       1.0  T
   3    -45.6148894 -0.181690E-04  0.284E-02    8.92       1.0  T
   4    -45.6148920 -0.268728E-05  0.884E-03    8.92       2.4  T
   5    -45.6148921 -0.929303E-07  0.340E-03    8.92       6.1  T
   6    -45.6148921 -0.104889E-07  0.184E-03    8.92      11.3  T
speedup  1.06
cpu  time for SCC    0.00 s
wall time for SCC    0.00 s
speedup  0.97
cpu  time for grad    0.01 s
wall time for grad    0.01 s
 E :    -45.35767155  G :  0.013058    pred/act E change: -0.514D-03 -0.578D-03
Maxdispl :   0.0591   ||displ|| :   0.1438   Lambda : -0.414D-03
Largest |displ|/coords:  0.0591 (   5)  0.0521 (   1)  0.0457 (   8)
................................................................................
.............................. CYCLE   33 ......................................
................................................................................
   1    -45.6173363 -0.456173E+02  0.115E-01    8.95       0.0  T
   2    -45.6173391 -0.278602E-05  0.872E-02    8.95       1.0  T
   3    -45.6173420 -0.290333E-05  0.100E-02    8.96       2.1  T
   4    -45.6173423 -0.277041E-06  0.313E-03    8.95       6.7  T
   5    -45.6173423 -0.113929E-07  0.130E-03    8.95      16.1  T
   6    -45.6173423 -0.198702E-08  0.627E-04    8.95      33.2  T
speedup  0.85
cpu  time for SCC    0.00 s
wall time for SCC    0.00 s
speedup  0.97
cpu  time for grad    0.01 s
wall time for grad    0.01 s
 E :    -45.35797918  G :  0.011024    pred/act E change: -0.685D-03 -0.308D-03
Maxdispl :   0.1287   ||displ|| :   0.2925   Lambda : -0.648D-03
Largest |displ|/coords:  0.1287 (   8)  0.0966 (   1)  0.0832 (  24)
................................................................................
.............................. CYCLE   34 ......................................
................................................................................
   1    -45.6162038 -0.456162E+02  0.234E-01    8.97       0.0  T
   2    -45.6162135 -0.971586E-05  0.177E-01    8.97       1.0  T
   3    -45.6162240 -0.105320E-04  0.186E-02    8.99       1.1  T
   4    -45.6162249 -0.888359E-06  0.668E-03    8.99       3.1  T
   5    -45.6162250 -0.458133E-07  0.252E-03    8.98       8.3  T
   6    -45.6162250 -0.934313E-08  0.130E-03    8.98      16.1  T
speedup  1.09
cpu  time for SCC    0.01 s
wall time for SCC    0.00 s
speedup  0.97
cpu  time for grad    0.01 s
wall time for grad    0.01 s
 E :    -45.35834979  G :  0.016548    pred/act E change: -0.211D-03 -0.371D-03
Maxdispl :   0.0702   ||displ|| :   0.1520   Lambda : -0.428D-03
Largest |displ|/coords:  0.0702 (   8)  0.0591 (   1)  0.0487 (  24)
................................................................................
.............................. CYCLE   35 ......................................
................................................................................
   1    -45.6192832 -0.456193E+02  0.107E-01    9.01       0.0  T
   2    -45.6192883 -0.507042E-05  0.808E-02    9.01       1.0  T
   3    -45.6192912 -0.285514E-05  0.140E-02    9.02       1.5  T
   4    -45.6192920 -0.795927E-06  0.359E-03    9.02       5.8  T
   5    -45.6192920 -0.335469E-07  0.141E-03    9.02      14.8  T
   6    -45.6192920 -0.212955E-08  0.774E-04    9.02      27.0  T
speedup  1.04
cpu  time for SCC    0.01 s
wall time for SCC    0.00 s
speedup  1.04
cpu  time for grad    0.01 s
wall time for grad    0.01 s
 E :    -45.35860125  G :  0.010105    pred/act E change: -0.352D-03 -0.251D-03
Maxdispl :   0.1583   ||displ|| :   0.3282   Lambda : -0.440D-03
Largest |displ|/coords:  0.1583 (   8)  0.1533 (   1)  0.1079 (  24)
................................................................................
.............................. CYCLE   36 ......................................
................................................................................
   1    -45.6179557 -0.456180E+02  0.251E-01    9.03       0.0  T
   2    -45.6179655 -0.973581E-05  0.190E-01    9.04       1.0  T
   3    -45.6179769 -0.114224E-04  0.196E-02    9.04       1.1  T
   4    -45.6179776 -0.679494E-06  0.632E-03    9.04       3.3  T
   5    -45.6179776 -0.380801E-07  0.273E-03    9.04       7.6  T
   6    -45.6179776 -0.994537E-08  0.149E-03    9.04      14.0  T
speedup  0.87
cpu  time for SCC    0.00 s
wall time for SCC    0.00 s
speedup  0.97
cpu  time for grad    0.01 s
wall time for grad    0.01 s
 E :    -45.35883089  G :  0.014760    pred/act E change: -0.219D-03 -0.230D-03
Maxdispl :   0.0874   ||displ|| :   0.1761   Lambda : -0.417D-03
Largest |displ|/coords:  0.0874 (   4)  0.0758 (   2)  0.0665 (   3)
................................................................................
.............................. CYCLE   37 ......................................
................................................................................
   1    -45.6193908 -0.456194E+02  0.120E-01    9.08       0.0  T
   2    -45.6193954 -0.465759E-05  0.903E-02    9.08       1.0  T
   3    -45.6193985 -0.308954E-05  0.135E-02    9.09       1.5  T
   4    -45.6193992 -0.657992E-06  0.438E-03    9.09       4.8  T
   5    -45.6193992 -0.443136E-07  0.127E-03    9.09      16.4  T
   6    -45.6193992 -0.137547E-08  0.752E-04    9.09      27.7  T
speedup  1.06
cpu  time for SCC    0.00 s
wall time for SCC    0.00 s
speedup  0.96
cpu  time for grad    0.01 s
wall time for grad    0.01 s
 E :    -45.35904758  G :  0.012007    pred/act E change: -0.244D-03 -0.217D-03
Maxdispl :   0.1062   ||displ|| :   0.1969   Lambda : -0.420D-03
Largest |displ|/coords:  0.1062 (   2)  0.0695 (  15)  0.0665 (   6)
................................................................................
.............................. CYCLE   38 ......................................
................................................................................
   1    -45.6198698 -0.456199E+02  0.159E-01    9.14       0.0  T
   2    -45.6198753 -0.548385E-05  0.120E-01    9.14       1.0  T
   3    -45.6198798 -0.449238E-05  0.142E-02    9.14       1.5  T
   4    -45.6198805 -0.732036E-06  0.461E-03    9.14       4.5  T
   5    -45.6198806 -0.334084E-07  0.154E-03    9.14      13.5  T
   6    -45.6198806 -0.113719E-08  0.785E-04    9.14      26.6  T
speedup  1.06
cpu  time for SCC    0.00 s
wall time for SCC    0.00 s
speedup  1.04
cpu  time for grad    0.01 s
wall time for grad    0.01 s
 E :    -45.35928896  G :  0.011983    pred/act E change: -0.215D-03 -0.241D-03
Maxdispl :   0.1383   ||displ|| :   0.2612   Lambda : -0.413D-03
Largest |displ|/coords:  0.1383 (   2)  0.1039 (   4)  0.0640 (   1)
................................................................................
.............................. CYCLE   39 ......................................
................................................................................
   1    -45.6173882 -0.456174E+02  0.201E-01    9.15       0.0  T
   2    -45.6173957 -0.745796E-05  0.153E-01    9.15       1.0  T
   3    -45.6174033 -0.761802E-05  0.150E-02    9.15       1.4  T
   4    -45.6174041 -0.810041E-06  0.615E-03    9.15       3.4  T
   5    -45.6174041 -0.284956E-07  0.185E-03    9.15      11.3  T
   6    -45.6174041 -0.339121E-08  0.101E-03    9.15      20.6  T
speedup  1.04
cpu  time for SCC    0.01 s
wall time for SCC    0.00 s
speedup  1.04
cpu  time for grad    0.01 s
wall time for grad    0.01 s
 E :    -45.35951240  G :  0.012998    pred/act E change: -0.218D-03 -0.223D-03
Maxdispl :   0.0887   ||displ|| :   0.1962   Lambda : -0.398D-03
Largest |displ|/coords:  0.0887 (   2)  0.0766 (  14)  0.0613 (   4)
................................................................................
.............................. CYCLE   40 ......................................
................................................................................
   1    -45.6213371 -0.456213E+02  0.128E-01    9.23       0.0  T
   2    -45.6213421 -0.500106E-05  0.962E-02    9.22       1.0  T
   3    -45.6213453 -0.324576E-05  0.148E-02    9.21       1.4  T
   4    -45.6213460 -0.714965E-06  0.403E-03    9.21       5.2  T
   5    -45.6213461 -0.301232E-07  0.139E-03    9.21      15.0  T
   6    -45.6213461 -0.221735E-08  0.727E-04    9.21      28.7  T
speedup  0.85
cpu  time for SCC    0.00 s
wall time for SCC    0.00 s
speedup  0.95
cpu  time for grad    0.01 s
wall time for grad    0.01 s
 E :    -45.35974167  G :  0.010962    pred/act E change: -0.220D-03 -0.229D-03
Maxdispl :   0.1378   ||displ|| :   0.3125   Lambda : -0.422D-03
Largest |displ|/coords:  0.1378 (  14)  0.1282 (   1)  0.1136 (   4)
................................................................................
.............................. CYCLE   41 ......................................
................................................................................
   1    -45.6211524 -0.456212E+02  0.243E-01    9.17       0.0  T
   2    -45.6211617 -0.930644E-05  0.183E-01    9.17       1.0  T
   3    -45.6211717 -0.993232E-05  0.208E-02    9.15       1.0  T
   4    -45.6211724 -0.767862E-06  0.578E-03    9.16       3.6  T
   5    -45.6211725 -0.444392E-07  0.241E-03    9.16       8.6  T
   6    -45.6211725 -0.858948E-08  0.112E-03    9.16      18.6  T
speedup  1.06
cpu  time for SCC    0.01 s
wall time for SCC    0.00 s
speedup  0.96
cpu  time for grad    0.01 s
wall time for grad    0.01 s
 E :    -45.35993218  G :  0.017021    pred/act E change: -0.207D-03 -0.191D-03
Maxdispl :   0.0981   ||displ|| :   0.1572   Lambda : -0.437D-03
Largest |displ|/coords:  0.0981 (  14)  0.0531 (  21)  0.0503 (   1)
................................................................................
.............................. CYCLE   42 ......................................
................................................................................
   1    -45.6216842 -0.456217E+02  0.116E-01    9.12       0.0  T
   2    -45.6216892 -0.494891E-05  0.865E-02    9.11       1.0  T
   3    -45.6216929 -0.369199E-05  0.152E-02    9.10       1.4  T
   4    -45.6216934 -0.536164E-06  0.538E-03    9.10       3.9  T
   5    -45.6216935 -0.359731E-07  0.156E-03    9.10      13.4  T
   6    -45.6216935 -0.222285E-08  0.882E-04    9.10      23.6  T
speedup  1.04
cpu  time for SCC    0.00 s
wall time for SCC    0.00 s
speedup  0.96
cpu  time for grad    0.01 s
wall time for grad    0.01 s
 E :    -45.36017319  G :  0.010881    pred/act E change: -0.232D-03 -0.241D-03
Maxdispl :   0.1522   ||displ|| :   0.2608   Lambda : -0.440D-03
Largest |displ|/coords:  0.1522 (  14)  0.1170 (   1)  0.0872 (  24)
................................................................................
.............................. CYCLE   43 ......................................
................................................................................
   1    -45.6187206 -0.456187E+02  0.233E-01    9.12       0.0  T
   2    -45.6187318 -0.111665E-04  0.176E-01    9.12       1.0  T
   3    -45.6187421 -0.102993E-04  0.216E-02    9.12       1.0  T
   4    -45.6187433 -0.120073E-05  0.560E-03    9.12       3.7  T
   5    -45.6187433 -0.349756E-07  0.255E-03    9.12       8.2  T
   6    -45.6187433 -0.681145E-08  0.112E-03    9.12      18.6  T
speedup  1.04
cpu  time for SCC    0.00 s
wall time for SCC    0.00 s
speedup  1.04
cpu  time for grad    0.01 s
wall time for grad    0.01 s
 E :    -45.36031576  G :  0.018533    pred/act E change: -0.224D-03 -0.143D-03
Maxdispl :   0.1373   ||displ|| :   0.2911   Lambda : -0.836D-03
Largest |displ|/coords:  0.1373 (  14)  0.1167 (  10)  0.1147 (   9)
................................................................................
.............................. CYCLE   44 ......................................
................................................................................
   1    -45.6247585 -0.456248E+02  0.234E-01    9.19       0.0  T
   2    -45.6247835 -0.250088E-04  0.175E-01    9.19       1.0  T
   3    -45.6247988 -0.152873E-04  0.362E-02    9.21       1.0  T
   4    -45.6248023 -0.343931E-05  0.120E-02    9.20       1.7  T
   5    -45.6248025 -0.206275E-06  0.357E-03    9.20       5.8  T
   6    -45.6248025 -0.921042E-08  0.203E-03    9.20      10.3  T
   7    -45.6248025 -0.635950E-08  0.461E-04    9.20      45.2  T
speedup  0.93
cpu  time for SCC    0.01 s
wall time for SCC    0.01 s
speedup  0.98
cpu  time for grad    0.01 s
wall time for grad    0.01 s
 E :    -45.35972836  G :  0.035922    pred/act E change: -0.235D-03  0.587D-03
Maxdispl :   0.0693   ||displ|| :   0.1852   Lambda : -0.186D-02
Largest |displ|/coords:  0.0693 (   5)  0.0677 (   6)  0.0629 (  10)
................................................................................
.............................. CYCLE   45 ......................................
................................................................................
   1    -45.6192684 -0.456193E+02  0.159E-01    9.06       0.0  T
   2    -45.6192818 -0.134264E-04  0.117E-01    9.06       1.0  T
   3    -45.6192900 -0.811732E-05  0.282E-02    9.06       1.0  T
   4    -45.6192915 -0.156201E-05  0.816E-03    9.06       2.6  T
   5    -45.6192916 -0.101412E-06  0.249E-03    9.06       8.4  T
   6    -45.6192916 -0.542936E-08  0.141E-03    9.06      14.8  T
speedup  1.04
cpu  time for SCC    0.00 s
wall time for SCC    0.00 s
speedup  1.04
cpu  time for grad    0.01 s
wall time for grad    0.01 s
 E :    -45.36064370  G :  0.010613    pred/act E change: -0.453D-03 -0.915D-03
Maxdispl :   0.0633   ||displ|| :   0.1011   Lambda : -0.276D-03
Largest |displ|/coords:  0.0633 (  14)  0.0342 (   4)  0.0339 (   8)
................................................................................
.............................. CYCLE   46 ......................................
................................................................................
   1    -45.6201685 -0.456202E+02  0.895E-02    9.12       0.0  T
   2    -45.6201712 -0.272166E-05  0.676E-02    9.12       1.0  T
   3    -45.6201733 -0.208993E-05  0.999E-03    9.12       2.1  T
   4    -45.6201736 -0.338711E-06  0.399E-03    9.12       5.2  T
   5    -45.6201736 -0.259669E-07  0.109E-03    9.12      19.2  T
   6    -45.6201736 -0.131201E-08  0.619E-04    9.12      33.7  T
speedup  1.06
cpu  time for SCC    0.00 s
wall time for SCC    0.00 s
speedup  0.96
cpu  time for grad    0.01 s
wall time for grad    0.01 s
 E :    -45.36076538  G :  0.010657    pred/act E change: -0.963D-03 -0.122D-03
Maxdispl :   0.1185   ||displ|| :   0.1823   Lambda : -0.189D-03
Largest |displ|/coords:  0.1185 (  14)  0.0727 (   1)  0.0497 (   6)
................................................................................
.............................. CYCLE   47 ......................................
................................................................................
   1    -45.6194391 -0.456194E+02  0.149E-01    9.12       0.0  T
   2    -45.6194416 -0.251575E-05  0.112E-01    9.13       1.0  T
   3    -45.6194441 -0.251184E-05  0.102E-02    9.13       2.0  T
   4    -45.6194443 -0.237932E-06  0.271E-03    9.13       7.7  T
   5    -45.6194443 -0.625606E-08  0.127E-03    9.13      16.4  T
speedup  1.03
cpu  time for SCC    0.00 s
wall time for SCC    0.00 s
speedup  1.00
cpu  time for grad    0.01 s
wall time for grad    0.01 s
 E :    -45.36091455  G :  0.012359    pred/act E change: -0.140D-03 -0.149D-03
Maxdispl :   0.1981   ||displ|| :   0.3306   Lambda : -0.587D-03
Largest |displ|/coords:  0.1981 (  14)  0.1134 (   1)  0.0875 (  23)
................................................................................
.............................. CYCLE   48 ......................................
................................................................................
   1    -45.6244704 -0.456245E+02  0.254E-01    9.23       0.0  T
   2    -45.6244788 -0.836329E-05  0.191E-01    9.23       1.0  T
   3    -45.6244851 -0.635086E-05  0.192E-02    9.25       1.1  T
   4    -45.6244862 -0.108717E-05  0.777E-03    9.25       2.7  T
   5    -45.6244863 -0.620211E-07  0.216E-03    9.25       9.7  T
   6    -45.6244863 -0.357559E-08  0.124E-03    9.25      16.8  T
speedup  1.06
cpu  time for SCC    0.00 s
wall time for SCC    0.00 s
speedup  1.03
cpu  time for grad    0.01 s
wall time for grad    0.01 s
 E :    -45.36108991  G :  0.014461    pred/act E change: -0.978D-04 -0.175D-03
Maxdispl :   0.1754   ||displ|| :   0.3378   Lambda : -0.438D-03
Largest |displ|/coords:  0.1754 (  14)  0.1475 (   1)  0.1119 (   4)
................................................................................
.............................. CYCLE   49 ......................................
................................................................................
   1    -45.6170847 -0.456171E+02  0.263E-01    9.15       0.0  T
   2    -45.6170994 -0.147007E-04  0.198E-01    9.15       1.0  T
   3    -45.6171129 -0.135472E-04  0.249E-02    9.15       1.0  T
   4    -45.6171146 -0.168767E-05  0.770E-03    9.15       2.7  T
   5    -45.6171147 -0.817655E-07  0.270E-03    9.15       7.7  T
   6    -45.6171147 -0.652668E-08  0.153E-03    9.15      13.7  T
speedup  0.85
cpu  time for SCC    0.00 s
wall time for SCC    0.00 s
speedup  0.96
cpu  time for grad    0.01 s
wall time for grad    0.01 s
 E :    -45.36119804  G :  0.020065    pred/act E change: -0.325D-03 -0.108D-03
Maxdispl :   0.0705   ||displ|| :   0.1357   Lambda : -0.657D-03
Largest |displ|/coords:  0.0705 (  14)  0.0485 (  17)  0.0379 (   9)
................................................................................
.............................. CYCLE   50 ......................................
................................................................................
   1    -45.6215122 -0.456215E+02  0.148E-01    9.17       0.0  T
   2    -45.6215192 -0.697911E-05  0.110E-01    9.17       1.0  T
   3    -45.6215244 -0.518129E-05  0.177E-02    9.16       1.2  T
   4    -45.6215252 -0.805302E-06  0.551E-03    9.16       3.8  T
   5    -45.6215252 -0.318222E-07  0.187E-03    9.16      11.1  T
speedup  1.00
cpu  time for SCC    0.00 s
wall time for SCC    0.00 s
speedup  1.03
cpu  time for grad    0.01 s
wall time for grad    0.01 s
 E :    -45.36131162  G :  0.015855    pred/act E change: -0.244D-03 -0.114D-03
Maxdispl :   0.0767   ||displ|| :   0.1384   Lambda : -0.488D-03
Largest |displ|/coords:  0.0767 (  14)  0.0447 (   8)  0.0428 (  21)
................................................................................
.............................. CYCLE   51 ......................................
................................................................................
   1    -45.6240093 -0.456240E+02  0.114E-01    9.23       0.0  T
   2    -45.6240127 -0.339455E-05  0.858E-02    9.23       1.0  T
   3    -45.6240155 -0.283792E-05  0.129E-02    9.23       1.6  T
   4    -45.6240159 -0.418321E-06  0.529E-03    9.23       3.9  T
   5    -45.6240159 -0.232843E-07  0.140E-03    9.23      14.9  T
   6    -45.6240159 -0.174472E-08  0.805E-04    9.23      25.9  T
speedup  1.04
cpu  time for SCC    0.00 s
wall time for SCC    0.00 s
speedup  1.04
cpu  time for grad    0.01 s
wall time for grad    0.01 s
 E :    -45.36156897  G :  0.008890    pred/act E change: -0.335D-03 -0.257D-03
Maxdispl :   0.1738   ||displ|| :   0.3130   Lambda : -0.345D-03
Largest |displ|/coords:  0.1738 (  14)  0.1347 (   1)  0.0798 (  24)
................................................................................
.............................. CYCLE   52 ......................................
................................................................................
   1    -45.6217010 -0.456217E+02  0.217E-01    9.21       0.0  T
   2    -45.6217077 -0.669887E-05  0.164E-01    9.22       1.0  T
   3    -45.6217151 -0.736891E-05  0.169E-02    9.22       1.2  T
   4    -45.6217156 -0.561166E-06  0.505E-03    9.22       4.1  T
   5    -45.6217156 -0.312298E-07  0.211E-03    9.22       9.9  T
   6    -45.6217157 -0.591140E-08  0.112E-03    9.22      18.7  T
speedup  0.85
cpu  time for SCC    0.00 s
wall time for SCC    0.00 s
speedup  0.96
cpu  time for grad    0.01 s
wall time for grad    0.01 s
 E :    -45.36180772  G :  0.012535    pred/act E change: -0.249D-03 -0.239D-03
Maxdispl :   0.2158   ||displ|| :   0.4050   Lambda : -0.396D-03
Largest |displ|/coords:  0.2158 (  14)  0.1752 (   1)  0.1227 (  21)

generating ANC from model Hessian ...
 Shifting diagonal of input Hessian by   7.060978637369198E-003
 Lowest  eigenvalues of input Hessian
    0.005000    0.006919   -0.000000   -0.000000   -0.000000   -0.000000
    0.000000    0.000000    0.007139    0.007369    0.007688    0.007925
    0.008519    0.008892    0.008985    0.009411    0.011184    0.012878
 Highest eigenvalues
    1.404155    1.414634    1.454972    2.707968    3.199684    3.656464
 
cpu  time for ANC gen    0.02 s
wall time for ANC gen    0.02 s
................................................................................
.............................. CYCLE   53 ......................................
................................................................................
   1    -45.6189130 -0.456189E+02  0.270E-01    9.20       0.0  T
   2    -45.6189232 -0.102961E-04  0.205E-01    9.20       1.0  T
   3    -45.6189357 -0.124851E-04  0.184E-02    9.20       1.1  T
   4    -45.6189364 -0.677104E-06  0.649E-03    9.20       3.2  T
   5    -45.6189365 -0.470893E-07  0.251E-03    9.20       8.3  T
   6    -45.6189365 -0.817904E-08  0.136E-03    9.20      15.3  T
   7    -45.6189365 -0.362718E-08  0.326E-04    9.20      64.1  T
   8    -45.6189365 -0.346162E-09  0.158E-04    9.20     131.8  T
speedup  1.13
cpu  time for SCC    0.01 s
wall time for SCC    0.01 s
speedup  1.04
cpu  time for grad    0.01 s
wall time for grad    0.01 s
 E :    -45.36211165  G :  0.017399    pred/act E change:  0.000D+00 -0.304D-03
Maxdispl :   0.0923   ||displ|| :   0.2236   Lambda : -0.989D-03
Largest |displ|/coords:  0.0923 (  15)  0.0872 (   1)  0.0807 (   2)
................................................................................
.............................. CYCLE   54 ......................................
................................................................................
   1    -45.6219228 -0.456219E+02  0.270E-01    9.22       0.0  T
   2    -45.6219335 -0.107286E-04  0.206E-01    9.22       1.0  T
   3    -45.6219472 -0.136578E-04  0.154E-02    9.22       1.4  T
   4    -45.6219477 -0.505533E-06  0.588E-03    9.22       3.5  T
   5    -45.6219477 -0.285895E-07  0.232E-03    9.22       9.0  T
   6    -45.6219477 -0.390181E-08  0.108E-03    9.22      19.3  T
speedup  0.85
cpu  time for SCC    0.00 s
wall time for SCC    0.00 s
speedup  0.96
cpu  time for grad    0.01 s
wall time for grad    0.01 s
 E :    -45.36274532  G :  0.010289    pred/act E change:  0.000D+00 -0.634D-03
Maxdispl :   0.1958   ||displ|| :   0.3934   Lambda : -0.108D-02
Largest |displ|/coords:  0.1958 (   2)  0.1666 (   6)  0.1422 (   7)
................................................................................
.............................. CYCLE   55 ......................................
................................................................................
   1    -45.6251203 -0.456251E+02  0.264E-01    9.26       0.0  T
   2    -45.6251321 -0.118223E-04  0.201E-01    9.26       1.0  T
   3    -45.6251463 -0.141697E-04  0.185E-02    9.26       1.1  T
   4    -45.6251471 -0.881634E-06  0.799E-03    9.26       2.6  T
   5    -45.6251472 -0.682258E-07  0.290E-03    9.26       7.2  T
   6    -45.6251472 -0.962594E-08  0.163E-03    9.26      12.8  T
speedup  1.09
cpu  time for SCC    0.00 s
wall time for SCC    0.00 s
speedup  0.96
cpu  time for grad    0.01 s
wall time for grad    0.01 s
 E :    -45.36360076  G :  0.016722    pred/act E change: -0.519D-03 -0.855D-03
Maxdispl :   0.4158   ||displ|| :   0.7395   Lambda : -0.190D-02
Largest |displ|/coords:  0.4158 (   2)  0.3238 (   7)  0.2608 (   6)
................................................................................
.............................. CYCLE   56 ......................................
................................................................................
   1    -45.6236627 -0.456237E+02  0.434E-01    9.24       0.0  T
   2    -45.6236869 -0.241923E-04  0.328E-01    9.24       1.0  T
   3    -45.6237198 -0.328759E-04  0.268E-02    9.23       1.0  T
   4    -45.6237209 -0.114268E-05  0.110E-02    9.23       1.9  T
   5    -45.6237211 -0.141288E-06  0.452E-03    9.23       4.6  T
   6    -45.6237211 -0.331869E-07  0.259E-03    9.23       8.1  T
   7    -45.6237211 -0.103540E-07  0.535E-04    9.23      39.0  T
speedup  1.11
cpu  time for SCC    0.01 s
wall time for SCC    0.01 s
speedup  0.98
cpu  time for grad    0.01 s
wall time for grad    0.01 s
 E :    -45.36535367  G :  0.030655    pred/act E change: -0.623D-03 -0.175D-02
Maxdispl :   0.4173   ||displ|| :   0.7540   Lambda : -0.274D-02
Largest |displ|/coords:  0.4173 (   2)  0.3656 (   7)  0.2458 (   6)
................................................................................
.............................. CYCLE   57 ......................................
................................................................................
   1    -45.6220875 -0.456221E+02  0.393E-01    9.18       0.0  T
   2    -45.6221229 -0.354824E-04  0.295E-01    9.18       1.0  T
   3    -45.6221522 -0.292979E-04  0.375E-02    9.17       1.0  T
   4    -45.6221567 -0.449756E-05  0.133E-02    9.17       1.6  T
   5    -45.6221570 -0.296622E-06  0.498E-03    9.17       4.2  T
   6    -45.6221571 -0.250814E-07  0.301E-03    9.17       6.9  T
speedup  1.06
cpu  time for SCC    0.00 s
wall time for SCC    0.00 s
speedup  1.05
cpu  time for grad    0.01 s
wall time for grad    0.01 s
 E :    -45.36690898  G :  0.033626    pred/act E change: -0.147D-02 -0.156D-02
Maxdispl :   0.2674   ||displ|| :   0.4385   Lambda : -0.337D-02
Largest |displ|/coords:  0.2674 (   2)  0.1527 (   8)  0.1354 (  12)
................................................................................
.............................. CYCLE   58 ......................................
................................................................................
   1    -45.6276854 -0.456277E+02  0.305E-01    9.20       0.0  T
   2    -45.6277139 -0.285349E-04  0.231E-01    9.20       1.0  T
   3    -45.6277406 -0.267243E-04  0.323E-02    9.20       1.0  T
   4    -45.6277441 -0.349847E-05  0.146E-02    9.20       1.4  T
   5    -45.6277444 -0.219604E-06  0.356E-03    9.20       5.9  T
   6    -45.6277444 -0.881229E-08  0.204E-03    9.20      10.2  T
speedup  0.85
cpu  time for SCC    0.00 s
wall time for SCC    0.00 s
speedup  0.96
cpu  time for grad    0.01 s
wall time for grad    0.01 s
 E :    -45.36836550  G :  0.027489    pred/act E change: -0.215D-02 -0.146D-02
Maxdispl :   0.1522   ||displ|| :   0.2894   Lambda : -0.204D-02
Largest |displ|/coords:  0.1522 (   1)  0.1151 (   2)  0.0933 (  11)
................................................................................
.............................. CYCLE   59 ......................................
................................................................................
   1    -45.6400640 -0.456401E+02  0.279E-01    9.37       0.0  T
   2    -45.6400959 -0.318840E-04  0.210E-01    9.37       1.0  T
   3    -45.6401248 -0.289050E-04  0.370E-02    9.37       1.0  T
   4    -45.6401283 -0.351172E-05  0.898E-03    9.37       2.3  T
   5    -45.6401285 -0.113971E-06  0.459E-03    9.37       4.5  T
   6    -45.6401285 -0.244342E-07  0.163E-03    9.37      12.8  T
speedup  1.06
cpu  time for SCC    0.00 s
wall time for SCC    0.00 s
speedup  1.03
cpu  time for grad    0.01 s
wall time for grad    0.01 s
 E :    -45.36783290  G :  0.041744    pred/act E change: -0.201D-02  0.533D-03
Maxdispl :   0.2429   ||displ|| :   0.4933   Lambda : -0.505D-02
Largest |displ|/coords:  0.2429 (   2)  0.2004 (   6)  0.1805 (   7)
................................................................................
.............................. CYCLE   60 ......................................
................................................................................
   1    -45.6157240 -0.456157E+02  0.432E-01    9.27       0.0  T
   2    -45.6157997 -0.757651E-04  0.324E-01    9.27       1.0  T
   3    -45.6158527 -0.529912E-04  0.564E-02    9.27       1.0  T
   4    -45.6158634 -0.106179E-04  0.131E-02    9.27       1.6  T
   5    -45.6158635 -0.190604E-06  0.640E-03    9.27       3.3  T
   6    -45.6158636 -0.457271E-07  0.285E-03    9.27       7.3  T
   7    -45.6158636 -0.164341E-07  0.741E-04    9.27      28.2  T
speedup  0.93
cpu  time for SCC    0.00 s
wall time for SCC    0.01 s
speedup  0.98
cpu  time for grad    0.01 s
wall time for grad    0.01 s
 E :    -45.36826458  G :  0.050061    pred/act E change: -0.111D-02 -0.432D-03
Maxdispl :   0.1713   ||displ|| :   0.4682   Lambda : -0.857D-02
Largest |displ|/coords:  0.1713 (   6)  0.1674 (  12)  0.1388 (   5)
................................................................................
.............................. CYCLE   61 ......................................
................................................................................
   1    -45.6421964 -0.456422E+02  0.506E-01    9.32       0.0  T
   2    -45.6423180 -0.121620E-03  0.380E-01    9.32       1.0  T
   3    -45.6423932 -0.751896E-04  0.732E-02    9.32       1.0  T
   4    -45.6424094 -0.161500E-04  0.191E-02    9.32       1.1  T
   5    -45.6424100 -0.679811E-06  0.674E-03    9.32       3.1  T
   6    -45.6424100 -0.103116E-07  0.361E-03    9.32       5.8  T
   7    -45.6424101 -0.194616E-07  0.643E-04    9.32      32.5  T
speedup  0.93
cpu  time for SCC    0.00 s
wall time for SCC    0.01 s
speedup  0.98
cpu  time for grad    0.01 s
wall time for grad    0.01 s
 E :    -45.36736384  G :  0.064302    pred/act E change: -0.314D-02  0.901D-03
Maxdispl :   0.1254   ||displ|| :   0.3593   Lambda : -0.806D-02
Largest |displ|/coords:  0.1254 (  18)  0.1223 (   5)  0.1107 (  11)
................................................................................
.............................. CYCLE   62 ......................................
................................................................................
   1    -45.6243775 -0.456244E+02  0.404E-01    9.24       0.0  T
   2    -45.6244583 -0.807948E-04  0.304E-01    9.24       1.0  T
   3    -45.6245115 -0.532109E-04  0.571E-02    9.25       1.0  T
   4    -45.6245217 -0.102017E-04  0.168E-02    9.25       1.2  T
   5    -45.6245221 -0.319303E-06  0.564E-03    9.25       3.7  T
   6    -45.6245221 -0.388775E-07  0.322E-03    9.25       6.5  T
speedup  0.83
cpu  time for SCC    0.00 s
wall time for SCC    0.00 s
speedup  0.96
cpu  time for grad    0.01 s
wall time for grad    0.01 s
 E :    -45.36890365  G :  0.044555    pred/act E change: -0.523D-02 -0.154D-02
Maxdispl :   0.1039   ||displ|| :   0.2061   Lambda : -0.313D-02
Largest |displ|/coords:  0.1039 (   2)  0.0700 (  18)  0.0678 (  19)
................................................................................
.............................. CYCLE   63 ......................................
................................................................................
   1    -45.6285482 -0.456285E+02  0.233E-01    9.33       0.0  T
   2    -45.6285711 -0.229072E-04  0.176E-01    9.33       1.0  T
   3    -45.6285906 -0.194191E-04  0.281E-02    9.32       1.0  T
   4    -45.6285930 -0.245130E-05  0.103E-02    9.33       2.0  T
   5    -45.6285932 -0.139734E-06  0.351E-03    9.32       5.9  T
   6    -45.6285932 -0.158409E-07  0.181E-03    9.32      11.6  T
speedup  1.06
cpu  time for SCC    0.00 s
wall time for SCC    0.00 s
speedup  1.05
cpu  time for grad    0.01 s
wall time for grad    0.01 s
 E :    -45.37021410  G :  0.020757    pred/act E change: -0.455D-02 -0.131D-02
Maxdispl :   0.1608   ||displ|| :   0.2260   Lambda : -0.885D-03
Largest |displ|/coords:  0.1608 (   1)  0.0825 (   8)  0.0685 (   3)
................................................................................
.............................. CYCLE   64 ......................................
................................................................................
   1    -45.6322022 -0.456322E+02  0.179E-01    9.27       0.0  T
   2    -45.6322229 -0.207381E-04  0.133E-01    9.27       1.0  T
   3    -45.6322353 -0.123895E-04  0.292E-02    9.28       1.0  T
   4    -45.6322376 -0.231640E-05  0.732E-03    9.28       2.8  T
   5    -45.6322378 -0.136764E-06  0.258E-03    9.28       8.1  T
   6    -45.6322378 -0.361038E-08  0.139E-03    9.28      15.0  T
speedup  1.06
cpu  time for SCC    0.01 s
wall time for SCC    0.00 s
speedup  1.04
cpu  time for grad    0.01 s
wall time for grad    0.01 s
 E :    -45.37007962  G :  0.022570    pred/act E change: -0.163D-02  0.134D-03
Maxdispl :   0.1147   ||displ|| :   0.2196   Lambda : -0.116D-02
Largest |displ|/coords:  0.1147 (   2)  0.1119 (   1)  0.0620 (  15)
................................................................................
.............................. CYCLE   65 ......................................
................................................................................
   1    -45.6334293 -0.456334E+02  0.144E-01    9.30       0.0  T
   2    -45.6334375 -0.823407E-05  0.108E-01    9.30       1.0  T
   3    -45.6334429 -0.540126E-05  0.179E-02    9.30       1.2  T
   4    -45.6334440 -0.108460E-05  0.462E-03    9.30       4.5  T
   5    -45.6334440 -0.298900E-07  0.191E-03    9.30      10.9  T
speedup  1.03
cpu  time for SCC    0.00 s
[...]
 
cpu  time for ANC gen    0.01 s
wall time for ANC gen    0.01 s
................................................................................
.............................. CYCLE  113 ......................................
................................................................................
   1    -45.6344489 -0.456344E+02  0.669E-03    9.46       0.0  T
   2    -45.6344490 -0.821855E-08  0.500E-03    9.46       4.2  T
   3    -45.6344490 -0.766774E-08  0.705E-04    9.46      29.6  T
   4    -45.6344490 -0.926470E-09  0.325E-04    9.46      64.1  T
speedup  0.94
cpu  time for SCC    0.00 s
wall time for SCC    0.00 s
speedup  1.06
cpu  time for grad    0.01 s
wall time for grad    0.01 s
 E :    -45.37470188  G :  0.000379    pred/act E change:  0.000D+00 -0.360D-06
Maxdispl :   0.0058   ||displ|| :   0.0107   Lambda : -0.119D-05
Largest |displ|/coords:  0.0058 (   4)  0.0058 (   6)  0.0031 (   9)
................................................................................
.............................. CYCLE  114 ......................................
................................................................................
   1    -45.6344414 -0.456344E+02  0.851E-03    9.46       0.0  T
   2    -45.6344414 -0.101623E-07  0.646E-03    9.46       3.2  T
   3    -45.6344414 -0.130873E-07  0.521E-04    9.46      40.0  T
   4    -45.6344414 -0.624446E-09  0.263E-04    9.46      79.3  T
speedup  0.94
cpu  time for SCC    0.00 s
wall time for SCC    0.00 s
speedup  0.94
cpu  time for grad    0.01 s
wall time for grad    0.01 s
 E :    -45.37470276  G :  0.000267    pred/act E change:  0.000D+00 -0.882D-06
Maxdispl :   0.0136   ||displ|| :   0.0243   Lambda : -0.199D-05
Largest |displ|/coords:  0.0136 (   4)  0.0108 (   6)  0.0082 (   1)
................................................................................
.............................. CYCLE  115 ......................................
................................................................................
   1    -45.6344125 -0.456344E+02  0.189E-02    9.47       0.0  T
   2    -45.6344125 -0.340507E-07  0.143E-02    9.47       1.5  T
   3    -45.6344125 -0.436938E-07  0.990E-04    9.47      21.1  T
   4    -45.6344125 -0.204502E-08  0.485E-04    9.47      43.0  T
speedup  1.18
cpu  time for SCC    0.00 s
wall time for SCC    0.00 s
speedup  1.05
cpu  time for grad    0.01 s
wall time for grad    0.01 s
 E :    -45.37470400  G :  0.000358    pred/act E change: -0.594D-06 -0.124D-05
Maxdispl :   0.0090   ||displ|| :   0.0151   Lambda : -0.796D-06
Largest |displ|/coords:  0.0090 (   4)  0.0063 (   1)  0.0056 (   6)
................................................................................
.............................. CYCLE  116 ......................................
................................................................................
   1    -45.6343986 -0.456344E+02  0.114E-02    9.47       0.0  T
   2    -45.6343986 -0.132767E-07  0.859E-03    9.47       2.4  T
   3    -45.6343986 -0.158623E-07  0.611E-04    9.47      34.1  T
   4    -45.6343986 -0.107858E-08  0.280E-04    9.47      74.6  T
speedup  0.94
cpu  time for SCC    0.00 s
wall time for SCC    0.00 s
speedup  0.96
cpu  time for grad    0.01 s
wall time for grad    0.01 s
 E :    -45.37470465  G :  0.000365    pred/act E change: -0.994D-06 -0.651D-06
Maxdispl :   0.0147   ||displ|| :   0.0269   Lambda : -0.128D-05
Largest |displ|/coords:  0.0147 (   4)  0.0130 (   1)  0.0073 (   6)
................................................................................
.............................. CYCLE  117 ......................................
................................................................................
   1    -45.6343706 -0.456344E+02  0.187E-02    9.47       0.0  T
   2    -45.6343707 -0.382622E-07  0.141E-02    9.47       1.5  T
   3    -45.6343707 -0.445074E-07  0.106E-03    9.47      19.6  T
   4    -45.6343707 -0.329443E-08  0.441E-04    9.47      47.3  T
   5    -45.6343707 -0.206498E-09  0.149E-04    9.47     139.8  T
speedup  1.03
cpu  time for SCC    0.00 s
wall time for SCC    0.00 s
speedup  0.99
cpu  time for grad    0.01 s
wall time for grad    0.01 s
 E :    -45.37470548  G :  0.000313    pred/act E change: -0.398D-06 -0.831D-06
Maxdispl :   0.0079   ||displ|| :   0.0144   Lambda : -0.492D-06
Largest |displ|/coords:  0.0079 (   1)  0.0064 (   4)  0.0046 (   3)
................................................................................
.............................. CYCLE  118 ......................................
................................................................................
   1    -45.6343703 -0.456344E+02  0.909E-03    9.47       0.0  T
   2    -45.6343703 -0.967784E-08  0.687E-03    9.47       3.0  T
   3    -45.6343703 -0.118424E-07  0.545E-04    9.47      38.3  T
   4    -45.6343703 -0.662801E-09  0.186E-04    9.47     112.3  T
speedup  0.94
cpu  time for SCC    0.00 s
wall time for SCC    0.00 s
speedup  0.96
cpu  time for grad    0.01 s
wall time for grad    0.01 s
 E :    -45.37470584  G :  0.000236    pred/act E change: -0.638D-06 -0.358D-06
Maxdispl :   0.0097   ||displ|| :   0.0170   Lambda : -0.501D-06
Largest |displ|/coords:  0.0097 (   1)  0.0081 (   3)  0.0057 (   4)
................................................................................
.............................. CYCLE  119 ......................................
................................................................................
   1    -45.6343744 -0.456344E+02  0.102E-02    9.47       0.0  T
   2    -45.6343744 -0.111548E-07  0.768E-03    9.47       2.7  T
   3    -45.6343744 -0.140496E-07  0.596E-04    9.47      35.0  T
   4    -45.6343744 -0.667356E-09  0.215E-04    9.47      96.9  T
speedup  0.91
cpu  time for SCC    0.00 s
wall time for SCC    0.00 s
speedup  0.95
cpu  time for grad    0.01 s
wall time for grad    0.01 s
 E :    -45.37470619  G :  0.000191    pred/act E change: -0.246D-06 -0.348D-06
Maxdispl :   0.0088   ||displ|| :   0.0149   Lambda : -0.372D-06
Largest |displ|/coords:  0.0088 (   1)  0.0088 (   3)  0.0034 (  13)
................................................................................
.............................. CYCLE  120 ......................................
................................................................................
   1    -45.6343778 -0.456344E+02  0.847E-03    9.47       0.0  T
   2    -45.6343778 -0.736291E-08  0.638E-03    9.47       3.3  T
   3    -45.6343778 -0.851944E-08  0.502E-04    9.47      41.5  T
   4    -45.6343778 -0.557328E-09  0.239E-04    9.47      87.1  T
speedup  0.94
cpu  time for SCC    0.00 s
wall time for SCC    0.00 s
speedup  0.96
cpu  time for grad    0.01 s
wall time for grad    0.01 s
 E :    -45.37470645  G :  0.000216    pred/act E change: -0.251D-06 -0.262D-06
Maxdispl :   0.0086   ||displ|| :   0.0132   Lambda : -0.287D-06
Largest |displ|/coords:  0.0086 (   3)  0.0077 (   1)  0.0020 (  13)
................................................................................
.............................. CYCLE  121 ......................................
................................................................................
   1    -45.6343776 -0.456344E+02  0.762E-03    9.47       0.0  T
   2    -45.6343776 -0.458685E-08  0.573E-03    9.47       3.6  T
   3    -45.6343776 -0.526472E-08  0.404E-04    9.47      51.6  T
   4    -45.6343776 -0.369056E-09  0.180E-04    9.47     116.0  T
speedup  0.94
cpu  time for SCC    0.00 s
wall time for SCC    0.00 s
speedup  0.95
cpu  time for grad    0.01 s
wall time for grad    0.01 s
 E :    -45.37470665  G :  0.000236    pred/act E change: -0.186D-06 -0.201D-06
Maxdispl :   0.0074   ||displ|| :   0.0109   Lambda : -0.202D-06
Largest |displ|/coords:  0.0074 (   3)  0.0064 (   1)  0.0018 (  13)
................................................................................
.............................. CYCLE  122 ......................................
................................................................................
   1    -45.6343698 -0.456344E+02  0.678E-03    9.47       0.0  T
   2    -45.6343698 -0.385519E-08  0.510E-03    9.47       4.1  T
   3    -45.6343698 -0.449552E-08  0.388E-04    9.47      53.7  T
   4    -45.6343698 -0.276387E-09  0.162E-04    9.47     128.7  T
speedup  0.91
cpu  time for SCC    0.00 s
wall time for SCC    0.00 s
speedup  0.93
cpu  time for grad    0.01 s
wall time for grad    0.01 s
 E :    -45.37470679  G :  0.000200    pred/act E change: -0.144D-06 -0.137D-06
Maxdispl :   0.0046   ||displ|| :   0.0071   Lambda : -0.111D-06
Largest |displ|/coords:  0.0046 (   3)  0.0042 (   1)  0.0020 (   5)
................................................................................
.............................. CYCLE  123 ......................................
................................................................................
   1    -45.6343660 -0.456344E+02  0.443E-03    9.47       0.0  T
   2    -45.6343660 -0.153398E-08  0.332E-03    9.47       6.3  T
   3    -45.6343660 -0.157281E-08  0.246E-04    9.47      84.9  T
   4    -45.6343660 -0.151751E-09  0.118E-04    9.47     177.1  T
speedup  0.94
cpu  time for SCC    0.00 s
wall time for SCC    0.00 s
speedup  1.06
cpu  time for grad    0.01 s
wall time for grad    0.01 s
 E :    -45.37470686  G :  0.000128    pred/act E change: -0.101D-06 -0.723D-07
Maxdispl :   0.0021   ||displ|| :   0.0033   Lambda : -0.471D-07
Largest |displ|/coords:  0.0021 (   3)  0.0018 (   1)  0.0008 (  11)

   *** GEOMETRY OPTIMIZATION CONVERGED AFTER 123 ITERATIONS ***

------------------------------------------------------------------------
 total energy gain (kcal):     -0.0031
------------------------------------------------------------------------
================
 final structure:
================
$coord
        2.68378086750898        1.21724715428514        1.75378654724321      S 
        2.89726573838828        0.21603934704316       -0.83792761120081      O 
        2.42227713082305        3.92222044705743        1.80135570823303      O 
        0.61786439673680       -0.09067716501373        3.04448159131433      O 
        5.20797538434552        0.53316250211625        3.15081726532468      O 
        5.39747111619961       -1.28417253970567        2.98355466932834      H 
       -2.79922909730666        2.57766416655838        2.54251054071806      H 
       -2.50212336898724        4.02215959378299        1.47554276305705      O 
       -0.73539889797447        4.47100824287616        1.83444983531180      H 
       -2.06668955793849       -3.39182582509009        0.38088597049257      O 
       -0.88028026781972       -4.75461177007747        0.20253044337534      H 
       -1.20471459678221       -2.09337721385009        1.39347018334432      H 
       -4.05435180236195       -1.67612698741894       -3.87962102778355      O 
       -5.84440156891718       -1.55603805044199       -3.62794620777666      H 
       -3.37398793669275       -2.52040924418954       -2.35997884888792      H 
        3.63843788447241       -4.13280668592432        1.71472948649262      O 
        3.47894009274389       -3.02407760269778        0.25986975361769      H 
        2.32914202224414       -3.60938809786607        2.87168964196502      H 
       -1.05401572779856        2.25908770317430       -2.99165355231579      N 
       -2.26543815742918        0.81778908279407       -3.63858086769171      H 
        0.65899651289416        1.42275142557777       -2.35053202350276      H 
       -0.69017018972517        3.55732805745834       -4.35435823019845      H 
       -1.86134999553587        3.11705345959826       -1.36907604933732      H 
$end
 
 Bond Distances (Angstroems)
 ---------------------------
S1-O2=1.4746         S1-O3=1.4383         S1-O4=1.4631         S1-O5=1.5690         O2-S1=1.4746         O3-S1=1.4383         
O4-S1=1.4631         O5-S1=1.5690         O5-H6=0.9709         H6-O5=0.9709         H7-O8=0.9632         O8-H7=0.9632         
O8-H9=0.9831         H9-O8=0.9831         O10-H11=0.9608       O10-H12=0.9835       H11-O10=0.9608       H12-O10=0.9835       
O13-H14=0.9587       O13-H15=0.9879       H14-O13=0.9587       H15-O13=0.9879       O16-H17=0.9716       O16-H18=0.9652       
H17-O16=0.9716       H18-O16=0.9652       N19-H20=1.0535       N19-H21=1.0643       N19-H22=1.0144       N19-H23=1.0611       
H20-N19=1.0535       H21-N19=1.0643       H22-N19=1.0144       H23-N19=1.0611       
 N  H  Rav=1.0483 sigma=0.0200  Rmin=1.0144  Rmax=1.0643     4
 O  H  Rav=0.9717 sigma=0.0102  Rmin=0.9587  Rmax=0.9879     9
 S  O  Rav=1.4863 sigma=0.0495  Rmin=1.4383  Rmax=1.5690     4
 
 selected bond angles (degree)
 --------------------
O3-S1-O2=112.41                O4-S1-O2=108.75                O4-S1-O3=113.00                O5-S1-O2=106.86                
O5-S1-O3=107.65                O5-S1-O4=107.88                H6-O5-S1=105.87                H9-O8-H7=103.52                
H12-O10-H11=105.95             
 
 selected dihedral angles (degree)
 ---------------------------------
H6-O5-S1-O2=304.99            H6-O5-S1-O3=184.03            H6-O5-S1-O4= 61.79            
 
 CMA Distance (Angstroems)
 ---------------------------
R(CMA):  2.6132

========================================================================
 FINAL SINGLEPOINT CALCULATION ON OPTIMIZED GEOMETRY
========================================================================

 Ncao       : 59
 Nao        : 58
 Nshell     : 34
 Nel        : 72
 T(el)      :   300.0
 intcut     :    25.0
 scfconv/Eh :  0.100E-05
   qconv/e  :  0.100E-03
 intneglect :  0.100E-07
 broydamp   :      0.250
 iter      E             dE          RMSdq      gap      omega  full diag
   1    -45.6343660 -0.456344E+02  0.355E-05    9.47       0.0  T
   2    -45.6343660 -0.682121E-12  0.227E-05    9.47     918.6  T
   3    -45.6343660 -0.348166E-12  0.528E-06    9.47    3949.3  T
speedup  0.83
cpu  time for SCC    0.00 s
wall time for SCC    0.00 s

   *** convergence criteria satisfied after 3 iterations ***

          eigenvalues
 #    :          24         25         26         27         28         29         30         31
 occ. :        2.000      2.000      2.000      2.000      2.000      2.000      2.000      2.000
 eps  :       -13.830    -13.736    -13.335    -12.739    -12.549    -12.501    -12.417    -12.357
 #    :          32         33         34         35         36         37         38         39
 occ. :        2.000      2.000      2.000      2.000      2.000      0.000      0.000      0.000
 eps  :       -12.349    -12.230    -12.035    -12.028    -11.828     -2.361     -1.015     -0.162
 #    :          40         41         42         43         44         45         46         47
 occ. :        0.000      0.000      0.000      0.000      0.000      0.000      0.000      0.000
 eps  :         0.655      1.074      1.410      2.031      2.612      3.626      4.989      5.542


   #   Z            q   n(s)   n(p)   n(d)      C6AA      α(0)
   1  16 S      1.692  1.587  1.774  0.947    88.961    15.875
   2   8 O     -0.771  1.777  4.993  0.000    30.702     7.429
   3   8 O     -0.712  1.761  4.951  0.000    29.050     7.226
   4   8 O     -0.778  1.775  5.002  0.000    30.918     7.455
   5   8 O     -0.600  1.757  4.844  0.000    25.159     6.771
   6   1 H      0.367  0.633  0.000  0.000     0.544     1.156
   7   1 H      0.307  0.693  0.000  0.000     0.701     1.315
   8   8 O     -0.599  1.739  4.860  0.000    25.156     6.769
   9   1 H      0.328  0.672  0.000  0.000     0.642     1.259
  10   8 O     -0.621  1.747  4.875  0.000    25.703     6.842
  11   1 H      0.299  0.701  0.000  0.000     0.725     1.338
  12   1 H      0.325  0.675  0.000  0.000     0.650     1.266
  13   8 O     -0.605  1.746  4.859  0.000    25.306     6.789
  14   1 H      0.290  0.710  0.000  0.000     0.753     1.363
  15   1 H      0.339  0.661  0.000  0.000     0.614     1.231
  16   8 O     -0.616  1.745  4.870  0.000    25.570     6.825
  17   1 H      0.307  0.693  0.000  0.000     0.699     1.313
  18   1 H      0.301  0.699  0.000  0.000     0.719     1.332
  19   7 N     -0.352  1.277  4.076  0.000    29.052     8.005
  20   1 H      0.293  0.707  0.000  0.000     0.735     1.343
  21   1 H      0.287  0.713  0.000  0.000     0.752     1.359
  22   1 H      0.233  0.767  0.000  0.000     0.953     1.529
  23   1 H      0.286  0.714  0.000  0.000     0.756     1.362

 Mol. C6AA /au·bohr⁶  :       4505.817205
 Mol. C8AA /au·bohr⁸  :      99200.687462
 Mol. α(0) /au        :         97.154327

 
 Wiberg/Mayer (AO) data. WBOs > 0.1 written file <wbo>
 largest (>0.05) Wiberg bond orders for each atom
           total WBO             WBO to atom ...
     1  S   4.832    O    3 1.381    O    4 1.268    O    2 1.218    O    5 0.931
     2  O   1.716    S    1 1.218    H   21 0.111    O    3 0.107    O    4 0.106    O    5 0.073
     3  O   1.756    S    1 1.381    O    4 0.109    O    2 0.107    O    5 0.065    H    9 0.057
     4  O   1.682    S    1 1.268    O    3 0.109    O    2 0.106    O    5 0.078    H   12 0.062
     5  O   1.977    S    1 0.931    H    6 0.803    O    4 0.078    O    2 0.073    O    3 0.065
     6  H   0.865    O    5 0.803
     7  H   0.906    O    8 0.896
     8  O   1.929    H    7 0.896    H    9 0.830    H   23 0.111    N   19 0.056
     9  H   0.892    O    8 0.830    O    3 0.057
    10  O   1.868    H   11 0.903    H   12 0.824    H   15 0.071
    11  H   0.911    O   10 0.903
    12  H   0.894    O   10 0.824    O    4 0.062
    13  O   1.907    H   14 0.912    H   15 0.812    H   20 0.099
    14  H   0.916    O   13 0.912
    15  H   0.885    O   13 0.812    O   10 0.071
    16  O   1.854    H   18 0.888    H   17 0.867
    17  H   0.905    O   16 0.867
    18  H   0.910    O   16 0.888
    19  N   3.523    H   22 0.942    H   20 0.812    H   23 0.802    H   21 0.798    O    8 0.056
    20  H   0.914    N   19 0.812    O   13 0.099
    21  H   0.917    N   19 0.798    O    2 0.111
    22  H   0.946    N   19 0.942
    23  H   0.918    N   19 0.802    O    8 0.111
 MOs/occ written to file <molden.input>
 
molecular dipole:
                 x           y           z       tot (Debye)
 q only:       -1.668       0.046      -1.770
   full:       -1.289      -0.091      -1.286       4.633
molecular quadrupole (traceless):
                xx          xy          yy          xz          yz          zz
 q only:       -0.759      -3.307      -3.662       1.292      -9.486       4.421
  q+dip:        0.616      -0.742      -5.896       1.268      -9.797       5.280
   full:        0.815      -1.130      -5.798       1.497     -10.039       4.983

SCC energy    :     -45.6343660
rep           :       0.2594539
ES            :       0.2380305
AES           :      -0.0686469
AXC           :      -0.0087585
disp          :      -0.0172304
XB            :       0.0000000
fix           :       0.0000000
total E       :     -45.3747069
atomizationE  :       4.4577694     2797.29
(atE without considering molecular charge,
 total energy contains solvation terms)
H-L gap (eV)  :          9.4666
optimized geometry written to: xtbopt.xyz


------------------------------------------------------------------------
 * finished run on 2019/09/16 at 11:19:18.746     
------------------------------------------------------------------------
 total:
 * wall-time:     0 d,  0 h,  0 min,  2.346 sec
 *  cpu-time:     0 d,  0 h,  0 min,  2.319 sec
 * ratio c/w:     0.988 speedup
 SCF:
 * wall-time:     0 d,  0 h,  0 min,  0.127 sec
 *  cpu-time:     0 d,  0 h,  0 min,  0.123 sec
 * ratio c/w:     0.966 speedup
 ANC optimizer:
 * wall-time:     0 d,  0 h,  0 min,  2.193 sec
 *  cpu-time:     0 d,  0 h,  0 min,  2.171 sec
 * ratio c/w:     0.990 speedup

