      -----------------------------------------------------------      
     |                   =====================                   |     
     |                           x T B                           |     
     |                   =====================                   |     
     |                         S. Grimme                         |     
     |          Mulliken Center for Theoretical Chemistry        |     
     |                    University of Bonn                     |     
     |                 Version 6.0.1 (SAW181210)                 |     
      -----------------------------------------------------------      

   This program is distributed in the hope that it will be useful,
   but WITHOUT ANY WARRANTY; without even the implied warranty of
   MERCHANTABILITY or FITNESS FOR A PARTICULAR PURPOSE.
   
   FOR NON-COMMERCIAL, ACADEMIA USE ONLY.
   
   Cite this work as:
   S. Grimme, C. Bannwarth, P. Shushkov, J. Comput. Theory Chem., 2017,
   13, 1989-2009.
   C. Bannwarth, S. Ehlert and S. Grimme., ChemRxiv, 2018, preprint.
   http://doi.org/10.26434/chemrxiv.7246238.v1
   
   for sTDA-xTB:
   S. Grimme and C. Bannwarth, J. Chem. Phys., 2016, 145, 054103.
   
   in the mass-spec context:
   V. Asgeirsson, C. Bauer and S. Grimme, Chem. Sci., 2017, 8, 4879.
   
   if GBSA is used:
   P. Shushkov, F. März and S. Grimme, unpublished.
   
   for ANC optimizer:
   S. Grimme, unpublished.
   Rational Function algorithm used in ANCopt:
   F. Eckert, P. Pulay, H.-J. Werner, J. Comput. Chem., 1997, 18, 1473.
   
   with help from (in alphabetical order)
   C. Bannwarth, F. Bohle, G. Brandenburg, E. Caldeweyher, M. Checinski,
   S. Dohm, S. Ehlert, S. Ehrlich, F. März, H. Neugebauer, J. Pisarek,
   P. Pracht, P. Shushkov, and S. Spicher.
   
 * started run on 2019/09/16 at 11:24:02.296     
========================================================================
 # omp threads = 1
========================================================================
number of atoms            : 23
number of electrons        : 72
charge                     : 0
spin                       : .0
first test random number   : .0478

########################################################################
# WARNING! Please study the warnings concerning your input carefully
#  - XTBPATH is not set, using XTBHOME instead
#  - the use of '-opt' is discouraged, please use '--opt' next time
#  - the use of '-chrg' is discouraged, please use '--chrg' next time
#  - the use of '-uhf' is discouraged, please use '--uhf' next time
########################################################################

           ------------------------------------------------- 
          |                 G F N 2 - x T B                 |
          | Geometry, Frequencies, Noncovalent interactions |
          |            JCTC 2018 parametrisation            |
           ------------------------------------------------- 
      method parameters     
 k(s)        :  1.8500
 k(p)        :  2.2300
 k(d)        :  2.2300
 k(f)        :  2.0000
 kEN (H0ij)  : -2.0000
 D4 a1       :  0.5200
 D4 a2       :  5.0000
 D4 s6       :  1.0000
 D4 s8       :  2.7000
 D4 s9       :  5.0000
 alphaj      :  2.0000


            Z     q(EN)     CN     RAES       Cart. coordinates
     1  S   6.0    0.58    4.27    4.18     5.27545     0.51801    -3.85727
     2  O   6.0   -0.32    1.15    1.80     4.73978     0.36015    -1.16105
     3  O   6.0   -0.27    1.09    1.80     6.08307    -1.62526    -5.33773
     4  O   6.0   -0.23    2.04    1.83     2.83477     1.86885    -5.18532
     5  O   6.0   -0.22    2.04    1.83     7.30706     2.71496    -4.41733
     6  H   1.0    0.14    1.11    1.45     6.94070     4.16844    -3.34985
     7  H   1.0    0.16    1.20    1.47     1.34719     1.37063    -4.22342
     8  O   6.0   -0.43    1.72    1.81    -2.29954     1.40966     1.73397
     9  H   1.0    0.18    0.95    1.42    -2.39363     3.25825     1.97407
    10  O   6.0   -0.29    1.97    1.82    -5.77556    -1.30241     0.18829
    11  H   1.0    0.17    1.14    1.45    -4.47486    -0.14327     0.71667
    12  H   1.0    0.14    0.97    1.43    -7.07653    -0.26315    -0.54794
    13  O   6.0   -0.28    1.99    1.83     1.90521    -0.33988     3.11121
    14  H   1.0    0.18    1.02    1.43     3.11537    -0.13310     1.76683
    15  H   1.0    0.17    1.11    1.44     0.41329     0.54369     2.55614
    16  O   6.0   -0.29    2.07    1.83    -1.01260     0.11179    -2.57130
    17  H   1.0    0.15    0.97    1.43    -2.36248    -1.06014    -2.91631
    18  H   1.0    0.18    1.13    1.45    -1.35718     0.76694    -0.90797
    19  N   5.0   -0.14    3.95    2.73    -2.64191    -2.44483     4.48566
    20  H   1.0    0.09    1.00    1.43    -0.80749    -3.07180     4.64779
    21  H   1.0    0.12    1.17    1.46    -2.66677    -0.75445     3.52313
    22  H   1.0    0.09    0.99    1.43    -3.69332    -3.76077     3.51238
    23  H   1.0    0.08    0.99    1.43    -3.40003    -2.19230     6.25933

  Z AO/shell   Hii/eV     exponent
  1     Wed Apr 25 08:07:45 CEST 2018   EN: 2.200 GM2: 0.406  GM3: 0.0800  RAES: 1.40
     1s    -10.707211    1.230000
  7     Wed Apr 25 08:07:45 CEST 2018   EN: 3.040 GM2: 0.461  GM3:-0.0640  RAES: 1.90
     2s    -16.686243    2.339881
     2p    -12.523956    2.014332
  8     Wed Apr 25 08:07:45 CEST 2018   EN: 3.440 GM2: 0.452  GM3:-0.0517  RAES: 1.80
     2s    -20.229985    2.439742
     2p    -15.503117    2.137023
 16     Tue Apr 24 11:44:34 CEST 2018   EN: 2.580 GM2: 0.340  GM3:-0.0502  RAES: 3.10
     3s    -20.029654    1.981333
     3p    -11.377694    2.025643
     3d     -0.420282    1.702555
 no old-style atom pair restraining (fixing) potential

molecular fragmentation (1/2 indicates fragments):
11111112222222222222222
# atoms in fragment 1/2:     7    16
 fragment masses (1/2) :       98.07       89.09
CMA distance (Bohr)    :   9.066
constraining FC (au)   :  0.0500
           ------------------------------------------------- 
          |        Self-Consistent Charge Iterations        |
           ------------------------------------------------- 

 Ncao       : 59
 Nao        : 58
 Nshell     : 34
 Nel        : 72
 T(el)      :   300.0
 intcut     :    25.0
 scfconv/Eh :  0.100E-05
   qconv/e  :  0.100E-03
 intneglect :  0.100E-07
 broydamp   :      0.250
 iter      E             dE          RMSdq      gap      omega  full diag
   1    -45.4465222 -0.454465E+02  0.726E+00    8.21       0.0  T
   2    -45.4943190 -0.477968E-01  0.512E+00    7.39       1.0  T
   3    -45.5329840 -0.386650E-01  0.122E+00    5.27       1.0  T
   4    -45.5360398 -0.305586E-02  0.698E-01    5.36       1.0  T
   5    -45.5375204 -0.148059E-02  0.260E-01    5.41       1.0  T
   6    -45.5377704 -0.249989E-03  0.163E-01    5.43       1.0  T
   7    -45.5379163 -0.145910E-03  0.491E-02    5.44       1.0  T
   8    -45.5379285 -0.121608E-04  0.223E-02    5.43       1.0  T
   9    -45.5379306 -0.211709E-05  0.993E-03    5.44       2.1  T
  10    -45.5379310 -0.435424E-06  0.261E-03    5.44       8.0  T
  11    -45.5379311 -0.144781E-07  0.116E-03    5.44      18.0  T
  12    -45.5379311 -0.536046E-08  0.378E-04    5.44      55.1  T
  13    -45.5379311 -0.416939E-09  0.180E-04    5.44     115.8  T
speedup  0.96
cpu  time for SCC    0.01 s
wall time for SCC    0.01 s

   *** convergence criteria satisfied after 13 iterations ***

          eigenvalues
 #    :          24         25         26         27         28         29         30         31
 occ. :        2.000      2.000      2.000      2.000      2.000      2.000      2.000      2.000
 eps  :       -13.095    -12.859    -12.706    -12.564    -12.373    -12.275    -12.259    -12.016
 #    :          32         33         34         35         36         37         38         39
 occ. :        2.000      2.000      2.000      2.000      2.000      0.000      0.000      0.000
 eps  :       -11.410    -11.184    -10.547    -10.343    -10.031     -4.591     -1.947     -1.863
 #    :          40         41         42         43         44         45         46         47
 occ. :        0.000      0.000      0.000      0.000      0.000      0.000      0.000      0.000
 eps  :        -0.827      0.641      1.412      2.754      2.816      3.048      3.699      4.538


   #   Z            q   n(s)   n(p)   n(d)      C6AA      α(0)
   1  16 S      1.614  1.628  1.819  0.939    90.738    16.032
   2   8 O     -0.651  1.770  4.881  0.000    27.411     7.020
   3   8 O     -0.600  1.767  4.833  0.000    26.127     6.853
   4   8 O     -0.593  1.762  4.831  0.000    24.979     6.747
   5   8 O     -0.549  1.751  4.798  0.000    23.973     6.610
   6   1 H      0.351  0.649  0.000  0.000     0.584     1.200
   7   1 H      0.390  0.610  0.000  0.000     0.502     1.112
   8   8 O     -0.856  1.835  5.022  0.000    33.347     7.742
   9   1 H      0.213  0.787  0.000  0.000     1.053     1.612
  10   8 O     -0.667  1.758  4.909  0.000    26.858     6.995
  11   1 H      0.333  0.667  0.000  0.000     0.627     1.243
  12   1 H      0.259  0.741  0.000  0.000     0.860     1.456
  13   8 O     -0.685  1.755  4.930  0.000    27.310     7.053
  14   1 H      0.298  0.702  0.000  0.000     0.727     1.340
  15   1 H      0.315  0.685  0.000  0.000     0.677     1.292
  16   8 O     -0.669  1.757  4.912  0.000    26.904     7.001
  17   1 H      0.291  0.709  0.000  0.000     0.747     1.358
  18   1 H      0.341  0.659  0.000  0.000     0.607     1.223
  19   7 N     -0.273  1.250  4.023  0.000    27.034     7.722
  20   1 H      0.285  0.715  0.000  0.000     0.759     1.365
  21   1 H      0.345  0.655  0.000  0.000     0.592     1.205
  22   1 H      0.269  0.731  0.000  0.000     0.814     1.414
  23   1 H      0.240  0.760  0.000  0.000     0.924     1.506

 Mol. C6AA /au·bohr⁶  :       4497.094484
 Mol. C8AA /au·bohr⁸  :      99074.453075
 Mol. α(0) /au        :         97.098450

 
 Wiberg/Mayer (AO) data. WBOs > 0.1 written file <wbo>
 largest (>0.05) Wiberg bond orders for each atom
           total WBO             WBO to atom ...
     1  S   4.810    O    3 1.503    O    2 1.412    O    5 0.934    O    4 0.933
     2  O   1.782    S    1 1.412    O    3 0.145    O    4 0.101    O    5 0.090
     3  O   1.840    S    1 1.503    O    2 0.145    O    4 0.100    O    5 0.077
     4  O   1.977    S    1 0.933    H    7 0.757    O    2 0.101    O    3 0.100    O    5 0.053
     5  O   2.019    S    1 0.934    H    6 0.858    O    2 0.090    O    3 0.077    O    4 0.053
     6  H   0.877    O    5 0.858
     7  H   0.848    O    4 0.757    O   16 0.070
     8  O   1.606    H    9 0.936    H   21 0.152    H   18 0.113    H   11 0.108    H   15 0.093    N   19 0.062
     9  H   0.954    O    8 0.936
    10  O   1.774    H   12 0.931    H   11 0.771
    11  H   0.889    O   10 0.771    O    8 0.108
    12  H   0.933    O   10 0.931
    13  O   1.777    H   14 0.881    H   15 0.802
    14  H   0.911    O   13 0.881
    15  H   0.901    O   13 0.802    O    8 0.093
    16  O   1.817    H   17 0.900    H   18 0.763    H    7 0.070
    17  H   0.915    O   16 0.900
    18  H   0.884    O   16 0.763    O    8 0.113
    19  N   3.559    H   23 0.938    H   22 0.920    H   20 0.901    H   21 0.714    O    8 0.062
    20  H   0.919    N   19 0.901
    21  H   0.881    N   19 0.714    O    8 0.152
    22  H   0.928    N   19 0.920
    23  H   0.942    N   19 0.938
 MOs/occ written to file <molden.input>
 
molecular dipole:
                 x           y           z       tot (Debye)
 q only:       -1.922      -0.548       2.845
   full:       -2.269       0.057       2.865       9.292
molecular quadrupole (traceless):
                xx          xy          yy          xz          yz          zz
 q only:       -8.548      13.286       7.693      -2.569     -15.651       0.856
  q+dip:       -7.288      13.201       9.779      -1.203     -15.341      -2.491
   full:       -6.771      13.434       9.721      -1.095     -15.301      -2.950

SCC energy    :     -45.5379311
rep           :       0.2577724
ES            :       0.2795620
AES           :      -0.0472153
AXC           :      -0.0037225
disp          :      -0.0137958
XB            :       0.0000000
fix           :       0.0000000
total E       :     -45.2800672
atomizationE  :       4.3631297     2737.91
(atE without considering molecular charge,
 total energy contains solvation terms)
H-L gap (eV)  :          5.4402
           ------------------------------------------------- 
          |                 ===============                 |
          |                   A N C O P T                   |
          |                 ===============                 |
          |          Approximate Normal Coordinate          |
          |           Rational Function Optimizer           |
           ------------------------------------------------- 
dumping coords to <xtbopt.coord> and <xtbopt.log>
 optlevel               2
 Maxcycle             460
 Maxmicro              25
 Econv         1.000000000000000E-007
 Gconv         2.000000000000000E-004
 Maxdispl       1.00000000000000     
 Hlow          5.000000000000000E-003
 S6             20.0000000000000     
 Nvar               63

generating ANC from model Hessian ...
 Shifting diagonal of input Hessian by   6.461690285638476E-003
 Lowest  eigenvalues of input Hessian
    0.005000    0.005512    0.006328   -0.000000   -0.000000   -0.000000
   -0.000000    0.000000    0.000000    0.006601    0.006775    0.006918
    0.007236    0.007511    0.007918    0.008207    0.008701    0.009034
 Highest eigenvalues
    1.432779    1.441073    1.443141    1.951302    2.768043    3.591399
 
cpu  time for ANC gen    0.01 s
wall time for ANC gen    0.01 s
................................................................................
.............................. CYCLE    1 ......................................
................................................................................
   1    -45.5379311 -0.455379E+02  0.571E-05    5.44       0.0  T
   2    -45.5379311 -0.515143E-11  0.436E-05    5.44     477.8  T
   3    -45.5379311 -0.529354E-11  0.188E-05    5.44    1112.0  T
speedup  0.83
cpu  time for SCC    0.00 s
wall time for SCC    0.00 s
speedup  0.91
cpu  time for grad    0.01 s
wall time for grad    0.01 s
 E :    -45.28006718  G :  0.140502    pred/act E change:  0.000D+00  0.215D-07
Maxdispl :   0.1579   ||displ|| :   0.3370   Lambda : -0.211D-01
Largest |displ|/coords:  0.1579 (  19)  0.1518 (  23)  0.1118 (  28)
................................................................................
.............................. CYCLE    2 ......................................
................................................................................
   1    -45.5499386 -0.455499E+02  0.292E-01    6.17       0.0  T
   2    -45.5500953 -0.156673E-03  0.212E-01    6.15       1.0  T
   3    -45.5501674 -0.720797E-04  0.676E-02    6.14       1.0  T
   4    -45.5501776 -0.102153E-04  0.226E-02    6.15       1.0  T
   5    -45.5501782 -0.639437E-06  0.561E-03    6.15       3.7  T
   6    -45.5501783 -0.437165E-07  0.297E-03    6.15       7.0  T
speedup  1.06
cpu  time for SCC    0.01 s
wall time for SCC    0.00 s
speedup  0.95
cpu  time for grad    0.01 s
wall time for grad    0.01 s
 E :    -45.29546624  G :  0.070053    pred/act E change:  0.000D+00 -0.154D-01
Maxdispl :   0.1878   ||displ|| :   0.3813   Lambda : -0.867D-02
Largest |displ|/coords:  0.1878 (  23)  0.1831 (   2)  0.1474 (  19)
................................................................................
.............................. CYCLE    3 ......................................
................................................................................
   1    -45.5591679 -0.455592E+02  0.301E-01    6.77       0.0  T
   2    -45.5592988 -0.130888E-03  0.220E-01    6.80       1.0  T
   3    -45.5593410 -0.422406E-04  0.657E-02    6.88       1.0  T
   4    -45.5593542 -0.132012E-04  0.161E-02    6.88       1.3  T
   5    -45.5593546 -0.337786E-06  0.384E-03    6.87       5.4  T
   6    -45.5593546 -0.157387E-07  0.207E-03    6.87      10.1  T
speedup  0.87
cpu  time for SCC    0.00 s
wall time for SCC    0.00 s
speedup  0.96
cpu  time for grad    0.01 s
wall time for grad    0.01 s
 E :    -45.30227417  G :  0.047404    pred/act E change: -0.118D-01 -0.681D-02
Maxdispl :   0.3711   ||displ|| :   0.6469   Lambda : -0.126D-01
Largest |displ|/coords:  0.3711 (  23)  0.2613 (  19)  0.1653 (   9)
................................................................................
.............................. CYCLE    4 ......................................
................................................................................
   1    -45.5653397 -0.455653E+02  0.633E-01    7.99       0.0  T
   2    -45.5661260 -0.786328E-03  0.461E-01    8.10       1.0  T
   3    -45.5663690 -0.242994E-03  0.159E-01    8.29       1.0  T
   4    -45.5664312 -0.622166E-04  0.370E-02    8.28       1.0  T
   5    -45.5664329 -0.173038E-05  0.842E-03    8.27       2.5  T
   6    -45.5664330 -0.809434E-07  0.444E-03    8.26       4.7  T
   7    -45.5664330 -0.309483E-07  0.163E-03    8.27      12.8  T
speedup  1.13
cpu  time for SCC    0.01 s
wall time for SCC    0.01 s
speedup  1.07
cpu  time for grad    0.01 s
wall time for grad    0.01 s
 E :    -45.30741732  G :  0.053339    pred/act E change: -0.497D-02 -0.514D-02
Maxdispl :   0.2464   ||displ|| :   0.4816   Lambda : -0.910D-02
Largest |displ|/coords:  0.2464 (   2)  0.1899 (  13)  0.1847 (  12)
................................................................................
.............................. CYCLE    5 ......................................
................................................................................
   1    -45.5685580 -0.455686E+02  0.664E-01    8.07       0.0  T
   2    -45.5686556 -0.976305E-04  0.506E-01    8.10       1.0  T
   3    -45.5687287 -0.730863E-04  0.496E-02    8.18       1.0  T
   4    -45.5687448 -0.161429E-04  0.127E-02    8.16       1.6  T
   5    -45.5687451 -0.237650E-06  0.614E-03    8.16       3.4  T
   6    -45.5687451 -0.128651E-07  0.229E-03    8.15       9.1  T
   7    -45.5687451 -0.111063E-07  0.437E-04    8.15      47.7  T
speedup  0.91
cpu  time for SCC    0.00 s
wall time for SCC    0.01 s
speedup  0.96
cpu  time for grad    0.01 s
wall time for grad    0.01 s
 E :    -45.30989390  G :  0.038459    pred/act E change: -0.892D-02 -0.248D-02
Maxdispl :   0.1771   ||displ|| :   0.3544   Lambda : -0.460D-02
Largest |displ|/coords:  0.1771 (  23)  0.1581 (   1)  0.1057 (  10)
................................................................................
.............................. CYCLE    6 ......................................
................................................................................
   1    -45.5746725 -0.455747E+02  0.334E-01    8.29       0.0  T
   2    -45.5748741 -0.201529E-03  0.244E-01    8.35       1.0  T
   3    -45.5749337 -0.596272E-04  0.806E-02    8.41       1.0  T
   4    -45.5749542 -0.205600E-04  0.137E-02    8.41       1.5  T
   5    -45.5749545 -0.305222E-06  0.449E-03    8.41       4.6  T
   6    -45.5749546 -0.143768E-07  0.216E-03    8.41       9.6  T
speedup  0.89
cpu  time for SCC    0.00 s
wall time for SCC    0.00 s
speedup  0.97
cpu  time for grad    0.01 s
wall time for grad    0.01 s
 E :    -45.31294708  G :  0.036214    pred/act E change: -0.560D-02 -0.305D-02
Maxdispl :   0.2531   ||displ|| :   0.5158   Lambda : -0.677D-02
Largest |displ|/coords:  0.2531 (  23)  0.1871 (   9)  0.1501 (  22)
................................................................................
.............................. CYCLE    7 ......................................
................................................................................
   1    -45.5856105 -0.455856E+02  0.478E-01    8.44       0.0  T
   2    -45.5861017 -0.491179E-03  0.348E-01    8.45       1.0  T
   3    -45.5862747 -0.172992E-03  0.126E-01    8.46       1.0  T
   4    -45.5863147 -0.400215E-04  0.251E-02    8.46       1.0  T
   5    -45.5863155 -0.809732E-06  0.874E-03    8.46       2.4  T
   6    -45.5863156 -0.816183E-07  0.395E-03    8.46       5.3  T
   7    -45.5863156 -0.234605E-07  0.133E-03    8.46      15.7  T
speedup  1.13
cpu  time for SCC    0.01 s
wall time for SCC    0.01 s
speedup  0.99
cpu  time for grad    0.01 s
wall time for grad    0.01 s
 E :    -45.31749520  G :  0.035485    pred/act E change: -0.259D-02 -0.455D-02
Maxdispl :   0.2558   ||displ|| :   0.5335   Lambda : -0.629D-02
Largest |displ|/coords:  0.2558 (  23)  0.1849 (  22)  0.1625 (  28)
................................................................................
.............................. CYCLE    8 ......................................
................................................................................
   1    -45.5982369 -0.455982E+02  0.485E-01    8.24       0.0  T
   2    -45.5987088 -0.471930E-03  0.354E-01    8.22       1.0  T
   3    -45.5989268 -0.218036E-03  0.124E-01    8.13       1.0  T
   4    -45.5989679 -0.410143E-04  0.266E-02    8.15       1.0  T
   5    -45.5989692 -0.129270E-05  0.828E-03    8.14       2.5  T
   6    -45.5989692 -0.310361E-07  0.462E-03    8.14       4.5  T
   7    -45.5989692 -0.452705E-07  0.108E-03    8.14      19.3  T
speedup  0.94
cpu  time for SCC    0.00 s
wall time for SCC    0.01 s
speedup  0.98
cpu  time for grad    0.01 s
wall time for grad    0.01 s
 E :    -45.32174566  G :  0.047240    pred/act E change: -0.429D-02 -0.425D-02
Maxdispl :   0.1852   ||displ|| :   0.4055   Lambda : -0.504D-02
Largest |displ|/coords:  0.1852 (  28)  0.1623 (  24)  0.1155 (   6)
................................................................................
.............................. CYCLE    9 ......................................
................................................................................
   1    -45.5962827 -0.455963E+02  0.373E-01    7.91       0.0  T
   2    -45.5963396 -0.568825E-04  0.279E-01    7.89       1.0  T
   3    -45.5963761 -0.365265E-04  0.445E-02    7.79       1.0  T
   4    -45.5963835 -0.738700E-05  0.134E-02    7.80       1.6  T
   5    -45.5963837 -0.228578E-06  0.443E-03    7.80       4.7  T
   6    -45.5963837 -0.212922E-07  0.231E-03    7.80       9.0  T
speedup  1.09
cpu  time for SCC    0.00 s
wall time for SCC    0.00 s
speedup  0.97
cpu  time for grad    0.01 s
wall time for grad    0.01 s
 E :    -45.32482641  G :  0.044777    pred/act E change: -0.404D-02 -0.308D-02
Maxdispl :   0.1865   ||displ|| :   0.4793   Lambda : -0.523D-02
Largest |displ|/coords:  0.1865 (  28)  0.1507 (   1)  0.1158 (  16)
................................................................................
.............................. CYCLE   10 ......................................
................................................................................
   1    -45.6014826 -0.456015E+02  0.461E-01    7.76       0.0  T
   2    -45.6016295 -0.146853E-03  0.344E-01    7.73       1.0  T
   3    -45.6017242 -0.947700E-04  0.719E-02    7.66       1.0  T
   4    -45.6017416 -0.173785E-04  0.227E-02    7.66       1.0  T
   5    -45.6017425 -0.850923E-06  0.755E-03    7.66       2.8  T
   6    -45.6017425 -0.530563E-07  0.411E-03    7.66       5.1  T
   7    -45.6017425 -0.296404E-07  0.957E-04    7.66      21.8  T
speedup  0.86
cpu  time for SCC    0.00 s
wall time for SCC    0.01 s
speedup  0.92
cpu  time for grad    0.01 s
wall time for grad    0.01 s
 E :    -45.32494918  G :  0.059648    pred/act E change: -0.293D-02 -0.123D-03
Maxdispl :   0.1807   ||displ|| :   0.4235   Lambda : -0.788D-02
Largest |displ|/coords:  0.1807 (   6)  0.1329 (  15)  0.1321 (  16)
................................................................................
.............................. CYCLE   11 ......................................
................................................................................
   1    -45.5994851 -0.455995E+02  0.603E-01    7.93       0.0  T
   2    -45.5996738 -0.188637E-03  0.449E-01    7.92       1.0  T
   3    -45.5997842 -0.110422E-03  0.847E-02    7.90       1.0  T
   4    -45.5998089 -0.246631E-04  0.202E-02    7.92       1.0  T
   5    -45.5998095 -0.671253E-06  0.767E-03    7.92       2.7  T
   6    -45.5998096 -0.649132E-07  0.426E-03    7.92       4.9  T
   7    -45.5998096 -0.296491E-07  0.106E-03    7.92      19.6  T
speedup  0.94
cpu  time for SCC    0.00 s
wall time for SCC    0.01 s
speedup  1.00
cpu  time for grad    0.01 s
wall time for grad    0.01 s
 E :    -45.32524853  G :  0.055619    pred/act E change: -0.322D-02 -0.299D-03
Maxdispl :   0.1932   ||displ|| :   0.4557   Lambda : -0.103D-01
Largest |displ|/coords:  0.1932 (   8)  0.1812 (  16)  0.1578 (   6)
................................................................................
.............................. CYCLE   12 ......................................
................................................................................
   1    -45.6044106 -0.456044E+02  0.747E-01    7.77       0.0  T
   2    -45.6046866 -0.276007E-03  0.564E-01    7.80       1.0  T
   3    -45.6048552 -0.168508E-03  0.102E-01    7.85       1.0  T
   4    -45.6048958 -0.406577E-04  0.292E-02    7.82       1.0  T
   5    -45.6048978 -0.195016E-05  0.103E-02    7.82       2.0  T
   6    -45.6048978 -0.494184E-07  0.511E-03    7.82       4.1  T
   7    -45.6048979 -0.439642E-07  0.115E-03    7.82      18.1  T
speedup  1.13
cpu  time for SCC    0.01 s
wall time for SCC    0.01 s
speedup  0.99
cpu  time for grad    0.01 s
wall time for grad    0.01 s
 E :    -45.32495750  G :  0.067779    pred/act E change: -0.465D-02  0.291D-03
Maxdispl :   0.2050   ||displ|| :   0.3612   Lambda : -0.736D-02
Largest |displ|/coords:  0.2050 (  23)  0.1050 (   7)  0.1028 (   9)
................................................................................
.............................. CYCLE   13 ......................................
................................................................................
   1    -45.5999886 -0.456000E+02  0.390E-01    7.96       0.0  T
   2    -45.6001594 -0.170829E-03  0.292E-01    7.93       1.0  T
   3    -45.6002770 -0.117601E-03  0.813E-02    7.88       1.0  T
   4    -45.6002957 -0.186477E-04  0.260E-02    7.90       1.0  T
   5    -45.6002967 -0.108033E-05  0.786E-03    7.90       2.7  T
   6    -45.6002968 -0.709376E-07  0.413E-03    7.90       5.0  T
   7    -45.6002968 -0.267402E-07  0.118E-03    7.90      17.7  T
speedup  0.93
cpu  time for SCC    0.01 s
wall time for SCC    0.01 s
speedup  0.97
cpu  time for grad    0.01 s
wall time for grad    0.01 s
 E :    -45.32547108  G :  0.056211    pred/act E change: -0.623D-02 -0.514D-03
Maxdispl :   0.1818   ||displ|| :   0.3642   Lambda : -0.861D-02
Largest |displ|/coords:  0.1818 (  23)  0.1353 (   7)  0.1008 (   9)
................................................................................
.............................. CYCLE   14 ......................................
................................................................................
   1    -45.6084773 -0.456085E+02  0.387E-01    7.92       0.0  T
   2    -45.6086698 -0.192498E-03  0.288E-01    7.93       1.0  T
   3    -45.6088093 -0.139459E-03  0.808E-02    7.94       1.0  T
   4    -45.6088285 -0.192126E-04  0.244E-02    7.94       1.0  T
   5    -45.6088295 -0.100252E-05  0.888E-03    7.94       2.3  T
   6    -45.6088296 -0.702140E-07  0.401E-03    7.94       5.2  T
   7    -45.6088296 -0.296415E-07  0.116E-03    7.94      18.0  T
speedup  0.94
cpu  time for SCC    0.00 s
wall time for SCC    0.01 s
speedup  1.00
cpu  time for grad    0.01 s
wall time for grad    0.01 s
 E :    -45.32617458  G :  0.053650    pred/act E change: -0.416D-02 -0.703D-03
Maxdispl :   0.1085   ||displ|| :   0.2892   Lambda : -0.544D-02
Largest |displ|/coords:  0.1085 (   7)  0.0998 (   9)  0.0819 (   1)
................................................................................
.............................. CYCLE   15 ......................................
................................................................................
   1    -45.5966028 -0.455966E+02  0.350E-01    7.96       0.0  T
   2    -45.5967350 -0.132267E-03  0.258E-01    7.97       1.0  T
   3    -45.5968152 -0.801056E-04  0.675E-02    7.97       1.0  T
   4    -45.5968286 -0.134963E-04  0.167E-02    7.97       1.2  T
   5    -45.5968291 -0.456432E-06  0.663E-03    7.97       3.1  T
   6    -45.5968292 -0.600125E-07  0.355E-03    7.97       5.9  T
   7    -45.5968292 -0.167794E-07  0.743E-04    7.97      28.1  T
speedup  0.94
cpu  time for SCC    0.00 s
wall time for SCC    0.01 s
speedup  1.00
cpu  time for grad    0.01 s
wall time for grad    0.01 s
 E :    -45.32705598  G :  0.038489    pred/act E change: -0.488D-02 -0.881D-03
Maxdispl :   0.0511   ||displ|| :   0.1407   Lambda : -0.236D-02
Largest |displ|/coords:  0.0511 (  14)  0.0428 (  40)  0.0409 (  26)
................................................................................
.............................. CYCLE   16 ......................................
................................................................................
   1    -45.6057031 -0.456057E+02  0.174E-01    7.90       0.0  T
   2    -45.6057291 -0.260115E-04  0.129E-01    7.89       1.0  T
   3    -45.6057454 -0.162881E-04  0.297E-02    7.86       1.0  T
   4    -45.6057481 -0.266917E-05  0.673E-03    7.87       3.1  T
   5    -45.6057482 -0.537941E-07  0.320E-03    7.87       6.5  T
   6    -45.6057482 -0.422159E-08  0.122E-03    7.87      17.1  T
speedup  1.09
cpu  time for SCC    0.00 s
wall time for SCC    0.00 s
speedup  1.07
cpu  time for grad    0.01 s
wall time for grad    0.01 s
 E :    -45.32780191  G :  0.021397    pred/act E change: -0.295D-02 -0.746D-03
Maxdispl :   0.0581   ||displ|| :   0.1406   Lambda : -0.123D-02
Largest |displ|/coords:  0.0581 (  18)  0.0568 (  12)  0.0468 (   3)
................................................................................
.............................. CYCLE   17 ......................................
................................................................................
   1    -45.6061010 -0.456061E+02  0.138E-01    7.90       0.0  T
   2    -45.6061126 -0.116004E-04  0.104E-01    7.90       1.0  T
   3    -45.6061218 -0.918379E-05  0.199E-02    7.91       1.0  T
   4    -45.6061230 -0.121393E-05  0.650E-03    7.91       3.2  T
   5    -45.6061230 -0.475330E-07  0.215E-03    7.91       9.7  T
   6    -45.6061230 -0.517854E-08  0.104E-03    7.91      20.1  T
speedup  1.09
cpu  time for SCC    0.00 s
wall time for SCC    0.00 s
speedup  0.97
cpu  time for grad    0.01 s
wall time for grad    0.01 s
 E :    -45.32803483  G :  0.019374    pred/act E change: -0.120D-02 -0.233D-03
Maxdispl :   0.0405   ||displ|| :   0.0982   Lambda : -0.567D-03
Largest |displ|/coords:  0.0405 (  12)  0.0353 (   6)  0.0310 (   1)
................................................................................
.............................. CYCLE   18 ......................................
................................................................................
   1    -45.6042746 -0.456043E+02  0.113E-01    7.92       0.0  T
   2    -45.6042804 -0.582193E-05  0.843E-02    7.91       1.0  T
   3    -45.6042844 -0.399516E-05  0.143E-02    7.91       1.5  T
   4    -45.6042851 -0.721215E-06  0.335E-03    7.91       6.2  T
   5    -45.6042851 -0.110697E-07  0.152E-03    7.91      13.7  T
   6    -45.6042851 -0.215721E-08  0.644E-04    7.91      32.4  T
speedup  0.87
cpu  time for SCC    0.00 s
wall time for SCC    0.00 s
speedup  0.96
cpu  time for grad    0.01 s
wall time for grad    0.01 s
 E :    -45.32832482  G :  0.008519    pred/act E change: -0.627D-03 -0.290D-03
Maxdispl :   0.0598   ||displ|| :   0.1291   Lambda : -0.334D-03
Largest |displ|/coords:  0.0598 (   6)  0.0470 (  12)  0.0374 (  22)
................................................................................
.............................. CYCLE   19 ......................................
................................................................................
   1    -45.6038410 -0.456038E+02  0.111E-01    7.90       0.0  T
   2    -45.6038456 -0.457967E-05  0.831E-02    7.90       1.0  T
   3    -45.6038494 -0.380925E-05  0.137E-02    7.89       1.5  T
   4    -45.6038499 -0.450847E-06  0.460E-03    7.89       4.5  T
   5    -45.6038499 -0.276322E-07  0.142E-03    7.89      14.7  T
   6    -45.6038499 -0.217719E-08  0.753E-04    7.89      27.7  T
speedup  1.09
cpu  time for SCC    0.00 s
wall time for SCC    0.00 s
speedup  1.07
cpu  time for grad    0.01 s
wall time for grad    0.01 s
 E :    -45.32844474  G :  0.011683    pred/act E change: -0.286D-03 -0.120D-03
Maxdispl :   0.0572   ||displ|| :   0.1170   Lambda : -0.265D-03
Largest |displ|/coords:  0.0572 (   6)  0.0417 (   3)  0.0353 (  13)
................................................................................
.............................. CYCLE   20 ......................................
................................................................................
   1    -45.6051131 -0.456051E+02  0.766E-02    7.89       0.0  T
   2    -45.6051142 -0.106085E-05  0.571E-02    7.89       1.0  T
   3    -45.6051151 -0.920087E-06  0.789E-03    7.88       2.6  T
   4    -45.6051152 -0.102028E-06  0.164E-03    7.88      12.7  T
   5    -45.6051152 -0.479965E-08  0.743E-04    7.88      28.0  T
speedup  1.03
cpu  time for SCC    0.00 s
wall time for SCC    0.00 s
speedup  0.94
cpu  time for grad    0.01 s
wall time for grad    0.01 s
 E :    -45.32866247  G :  0.007611    pred/act E change: -0.170D-03 -0.218D-03
Maxdispl :   0.1977   ||displ|| :   0.3697   Lambda : -0.567D-03
Largest |displ|/coords:  0.1977 (   6)  0.1545 (   3)  0.1133 (   8)
................................................................................
.............................. CYCLE   21 ......................................
................................................................................
   1    -45.6054523 -0.456055E+02  0.231E-01    7.88       0.0  T
   2    -45.6054589 -0.651504E-05  0.173E-01    7.88       1.0  T
   3    -45.6054665 -0.761074E-05  0.223E-02    7.86       1.0  T
   4    -45.6054668 -0.301142E-06  0.424E-03    7.87       4.9  T
   5    -45.6054668 -0.247690E-07  0.218E-03    7.87       9.6  T
   6    -45.6054668 -0.568597E-08  0.108E-03    7.87      19.3  T
speedup  0.87
cpu  time for SCC    0.00 s
wall time for SCC    0.00 s
speedup  0.97
cpu  time for grad    0.01 s
wall time for grad    0.01 s
 E :    -45.32899991  G :  0.011030    pred/act E change: -0.134D-03 -0.337D-03
Maxdispl :   0.1365   ||displ|| :   0.2496   Lambda : -0.299D-03
Largest |displ|/coords:  0.1365 (   6)  0.1048 (   3)  0.0823 (   2)
................................................................................
.............................. CYCLE   22 ......................................
................................................................................
   1    -45.6081983 -0.456082E+02  0.145E-01    7.86       0.0  T
   2    -45.6082033 -0.497739E-05  0.107E-01    7.85       1.0  T
   3    -45.6082069 -0.364249E-05  0.163E-02    7.84       1.3  T
   4    -45.6082075 -0.571615E-06  0.406E-03    7.84       5.1  T
   5    -45.6082075 -0.252748E-07  0.173E-03    7.84      12.0  T
   6    -45.6082075 -0.404890E-08  0.935E-04    7.84      22.3  T
speedup  0.87
cpu  time for SCC    0.00 s
wall time for SCC    0.00 s
speedup  0.97
cpu  time for grad    0.01 s
wall time for grad    0.01 s
 E :    -45.32912486  G :  0.010525    pred/act E change: -0.322D-03 -0.125D-03
Maxdispl :   0.1458   ||displ|| :   0.2952   Lambda : -0.354D-03
Largest |displ|/coords:  0.1458 (   6)  0.1345 (   3)  0.1149 (  13)
................................................................................
.............................. CYCLE   23 ......................................
................................................................................
   1    -45.6044287 -0.456044E+02  0.205E-01    7.86       0.0  T
   2    -45.6044412 -0.124846E-04  0.154E-01    7.85       1.0  T
   3    -45.6044503 -0.907586E-05  0.225E-02    7.84       1.0  T
   4    -45.6044519 -0.166232E-05  0.530E-03    7.85       3.9  T
   5    -45.6044519 -0.279627E-07  0.245E-03    7.85       8.5  T
   6    -45.6044519 -0.605651E-08  0.105E-03    7.85      19.9  T
speedup  1.06
cpu  time for SCC    0.00 s
wall time for SCC    0.00 s
speedup  1.06
cpu  time for grad    0.01 s
wall time for grad    0.01 s
 E :    -45.32924153  G :  0.014112    pred/act E change: -0.159D-03 -0.117D-03
Maxdispl :   0.0624   ||displ|| :   0.1137   Lambda : -0.384D-03
Largest |displ|/coords:  0.0624 (   3)  0.0362 (  15)  0.0284 (  17)
................................................................................
.............................. CYCLE   24 ......................................
................................................................................
   1    -45.6075730 -0.456076E+02  0.889E-02    7.87       0.0  T
   2    -45.6075749 -0.191414E-05  0.652E-02    7.87       1.0  T
   3    -45.6075761 -0.126996E-05  0.108E-02    7.88       1.9  T
   4    -45.6075763 -0.199870E-06  0.327E-03    7.88       6.4  T
   5    -45.6075764 -0.146767E-07  0.988E-04    7.88      21.1  T
   6    -45.6075764 -0.100633E-08  0.555E-04    7.88      37.5  T
speedup  1.09
cpu  time for SCC    0.00 s
wall time for SCC    0.00 s
speedup  0.96
cpu  time for grad    0.01 s
wall time for grad    0.01 s
 E :    -45.32948999  G :  0.009406    pred/act E change: -0.193D-03 -0.248D-03
Maxdispl :   0.1647   ||displ|| :   0.2633   Lambda : -0.363D-03
Largest |displ|/coords:  0.1647 (   3)  0.1094 (   6)  0.0692 (  15)
................................................................................
.............................. CYCLE   25 ......................................
................................................................................
   1    -45.6086168 -0.456086E+02  0.162E-01    7.86       0.0  T
   2    -45.6086206 -0.384019E-05  0.120E-01    7.86       1.0  T
   3    -45.6086245 -0.388427E-05  0.150E-02    7.86       1.4  T
   4    -45.6086248 -0.321306E-06  0.525E-03    7.87       4.0  T
   5    -45.6086249 -0.296224E-07  0.167E-03    7.87      12.5  T
   6    -45.6086249 -0.281549E-08  0.989E-04    7.86      21.1  T
speedup  1.09
cpu  time for SCC    0.00 s
wall time for SCC    0.00 s
speedup  0.97
cpu  time for grad    0.01 s
wall time for grad    0.01 s
 E :    -45.32977736  G :  0.009110    pred/act E change: -0.195D-03 -0.287D-03
Maxdispl :   0.3502   ||displ|| :   0.5218   Lambda : -0.625D-03
Largest |displ|/coords:  0.3502 (   3)  0.1921 (   6)  0.1647 (  15)

generating ANC from model Hessian ...
 Shifting diagonal of input Hessian by   5.017582150711871E-003
 Lowest  eigenvalues of input Hessian
    0.005000   -0.000000   -0.000000   -0.000000    0.000000    0.000000
    0.000000    0.005080    0.005366    0.005471    0.005539    0.006037
    0.006188    0.006417    0.006454    0.006811    0.006953    0.007677
 Highest eigenvalues
    1.408783    1.426089    1.433254    2.389646    3.252305    3.881468
 
cpu  time for ANC gen    0.01 s
wall time for ANC gen    0.01 s
................................................................................
.............................. CYCLE   26 ......................................
................................................................................
   1    -45.6070611 -0.456071E+02  0.310E-01    7.80       0.0  T
   2    -45.6070743 -0.132401E-04  0.231E-01    7.80       1.0  T
   3    -45.6070875 -0.132353E-04  0.291E-02    7.81       1.0  T
   4    -45.6070886 -0.103700E-05  0.104E-02    7.81       2.0  T
   5    -45.6070887 -0.957646E-07  0.283E-03    7.81       7.4  T
   6    -45.6070887 -0.711132E-08  0.170E-03    7.81      12.3  T
   7    -45.6070887 -0.323506E-08  0.395E-04    7.81      52.7  T
   8    -45.6070887 -0.523400E-09  0.162E-04    7.81     128.4  T
speedup  0.98
cpu  time for SCC    0.01 s
wall time for SCC    0.01 s
speedup  0.97
cpu  time for grad    0.01 s
wall time for grad    0.01 s
 E :    -45.33019017  G :  0.010682    pred/act E change:  0.000D+00 -0.413D-03
Maxdispl :   0.1017   ||displ|| :   0.1840   Lambda : -0.382D-03
Largest |displ|/coords:  0.1017 (   2)  0.0605 (  15)  0.0574 (   6)
................................................................................
.............................. CYCLE   27 ......................................
................................................................................
   1    -45.6070071 -0.456070E+02  0.144E-01    7.86       0.0  T
   2    -45.6070096 -0.256829E-05  0.108E-01    7.87       1.0  T
   3    -45.6070119 -0.223630E-05  0.108E-02    7.87       1.9  T
   4    -45.6070122 -0.290575E-06  0.421E-03    7.86       4.9  T
   5    -45.6070122 -0.187272E-07  0.124E-03    7.86      16.8  T
   6    -45.6070122 -0.171503E-08  0.734E-04    7.86      28.4  T
speedup  1.04
cpu  time for SCC    0.00 s
wall time for SCC    0.00 s
speedup  1.04
cpu  time for grad    0.01 s
wall time for grad    0.01 s
 E :    -45.33046877  G :  0.005136    pred/act E change:  0.000D+00 -0.279D-03
Maxdispl :   0.2338   ||displ|| :   0.4094   Lambda : -0.531D-03
Largest |displ|/coords:  0.2338 (   2)  0.1580 (   6)  0.1282 (   3)
................................................................................
.............................. CYCLE   28 ......................................
................................................................................
   1    -45.6045686 -0.456046E+02  0.345E-01    7.90       0.0  T
   2    -45.6045844 -0.158323E-04  0.261E-01    7.90       1.0  T
   3    -45.6046011 -0.166761E-04  0.255E-02    7.90       1.0  T
   4    -45.6046023 -0.124849E-05  0.860E-03    7.89       2.4  T
   5    -45.6046024 -0.697262E-07  0.284E-03    7.90       7.4  T
   6    -45.6046024 -0.922687E-08  0.160E-03    7.90      13.0  T
speedup  1.09
cpu  time for SCC    0.00 s
wall time for SCC    0.00 s
speedup  1.07
cpu  time for grad    0.01 s
wall time for grad    0.01 s
 E :    -45.33065146  G :  0.014022    pred/act E change: -0.197D-03 -0.183D-03
Maxdispl :   0.1488   ||displ|| :   0.2771   Lambda : -0.575D-03
Largest |displ|/coords:  0.1488 (   2)  0.1229 (   4)  0.1037 (   3)
................................................................................
.............................. CYCLE   29 ......................................
................................................................................
   1    -45.6060766 -0.456061E+02  0.197E-01    7.90       0.0  T
   2    -45.6060856 -0.901540E-05  0.148E-01    7.90       1.0  T
   3    -45.6060933 -0.771190E-05  0.209E-02    7.91       1.0  T
   4    -45.6060943 -0.102307E-05  0.704E-03    7.91       3.0  T
   5    -45.6060944 -0.657374E-07  0.217E-03    7.91       9.6  T
   6    -45.6060944 -0.374816E-08  0.125E-03    7.91      16.7  T
speedup  0.87
cpu  time for SCC    0.00 s
wall time for SCC    0.00 s
speedup  0.96
cpu  time for grad    0.01 s
wall time for grad    0.01 s
 E :    -45.33091701  G :  0.011299    pred/act E change: -0.310D-03 -0.266D-03
Maxdispl :   0.1659   ||displ|| :   0.3260   Lambda : -0.515D-03
Largest |displ|/coords:  0.1659 (   2)  0.1381 (   1)  0.1370 (   3)
................................................................................
.............................. CYCLE   30 ......................................
................................................................................
   1    -45.6067967 -0.456068E+02  0.228E-01    7.87       0.0  T
   2    -45.6068044 -0.762768E-05  0.172E-01    7.87       1.0  T
   3    -45.6068127 -0.833552E-05  0.196E-02    7.86       1.1  T
   4    -45.6068132 -0.460930E-06  0.709E-03    7.86       2.9  T
   5    -45.6068132 -0.404684E-07  0.206E-03    7.86      10.1  T
   6    -45.6068132 -0.343339E-08  0.115E-03    7.86      18.1  T
speedup  0.87
cpu  time for SCC    0.00 s
wall time for SCC    0.00 s
speedup  0.96
cpu  time for grad    0.01 s
wall time for grad    0.01 s
 E :    -45.33115499  G :  0.010073    pred/act E change: -0.310D-03 -0.238D-03
Maxdispl :   0.2386   ||displ|| :   0.4120   Lambda : -0.511D-03
Largest |displ|/coords:  0.2386 (   2)  0.1744 (   1)  0.1612 (   6)
................................................................................
.............................. CYCLE   31 ......................................
................................................................................
   1    -45.6049231 -0.456049E+02  0.244E-01    7.80       0.0  T
   2    -45.6049325 -0.936163E-05  0.183E-01    7.80       1.0  T
   3    -45.6049421 -0.962969E-05  0.230E-02    7.79       1.0  T
   4    -45.6049428 -0.710758E-06  0.633E-03    7.79       3.3  T
   5    -45.6049429 -0.507297E-07  0.237E-03    7.79       8.8  T
   6    -45.6049429 -0.745753E-08  0.137E-03    7.79      15.2  T
speedup  1.09
cpu  time for SCC    0.00 s
wall time for SCC    0.00 s
speedup  1.05
cpu  time for grad    0.01 s
wall time for grad    0.01 s
 E :    -45.33158501  G :  0.008729    pred/act E change: -0.285D-03 -0.430D-03
Maxdispl :   0.3065   ||displ|| :   0.5700   Lambda : -0.688D-03
Largest |displ|/coords:  0.3065 (   2)  0.2649 (   1)  0.2326 (   6)
................................................................................
.............................. CYCLE   32 ......................................
................................................................................
   1    -45.6039829 -0.456040E+02  0.328E-01    7.71       0.0  T
   2    -45.6040029 -0.199626E-04  0.245E-01    7.70       1.0  T
   3    -45.6040206 -0.177025E-04  0.335E-02    7.69       1.0  T
   4    -45.6040227 -0.211468E-05  0.104E-02    7.70       2.0  T
   5    -45.6040228 -0.114745E-06  0.331E-03    7.70       6.3  T
   6    -45.6040228 -0.133697E-07  0.192E-03    7.70      10.8  T
   7    -45.6040228 -0.531691E-08  0.584E-04    7.70      35.7  T
speedup  0.94
cpu  time for SCC    0.01 s
wall time for SCC    0.01 s
speedup  0.99
cpu  time for grad    0.01 s
wall time for grad    0.01 s
 E :    -45.33198816  G :  0.016541    pred/act E change: -0.299D-03 -0.403D-03
Maxdispl :   0.2345   ||displ|| :   0.4315   Lambda : -0.593D-03
Largest |displ|/coords:  0.2345 (   2)  0.2025 (   1)  0.1634 (   3)
................................................................................
.............................. CYCLE   33 ......................................
................................................................................
   1    -45.6048762 -0.456049E+02  0.240E-01    7.67       0.0  T
   2    -45.6048877 -0.114608E-04  0.180E-01    7.67       1.0  T
   3    -45.6048996 -0.118629E-04  0.240E-02    7.68       1.0  T
   4    -45.6049004 -0.866979E-06  0.677E-03    7.68       3.1  T
   5    -45.6049005 -0.548575E-07  0.277E-03    7.68       7.5  T
   6    -45.6049005 -0.913990E-08  0.153E-03    7.68      13.6  T
speedup  1.09
cpu  time for SCC    0.01 s
wall time for SCC    0.00 s
speedup  1.05
cpu  time for grad    0.01 s
wall time for grad    0.01 s
 E :    -45.33213189  G :  0.017781    pred/act E change: -0.456D-03 -0.144D-03
Maxdispl :   0.1314   ||displ|| :   0.2642   Lambda : -0.693D-03
Largest |displ|/coords:  0.1314 (   2)  0.1194 (   1)  0.0867 (  14)
................................................................................
.............................. CYCLE   34 ......................................
................................................................................
   1    -45.6061943 -0.456062E+02  0.150E-01    7.66       0.0  T
   2    -45.6061983 -0.395546E-05  0.112E-01    7.67       1.0  T
   3    -45.6062017 -0.345080E-05  0.123E-02    7.67       1.7  T
   4    -45.6062022 -0.416323E-06  0.306E-03    7.67       6.8  T
   5    -45.6062022 -0.717987E-08  0.161E-03    7.67      12.9  T
   6    -45.6062022 -0.340268E-08  0.546E-04    7.67      38.2  T
speedup  0.82
cpu  time for SCC    0.00 s
wall time for SCC    0.00 s
speedup  0.93
cpu  time for grad    0.01 s
wall time for grad    0.01 s
 E :    -45.33258216  G :  0.009196    pred/act E change: -0.352D-03 -0.450D-03
Maxdispl :   0.2323   ||displ|| :   0.5363   Lambda : -0.645D-03
Largest |displ|/coords:  0.2323 (   2)  0.2290 (   6)  0.2228 (   1)
................................................................................
.............................. CYCLE   35 ......................................
................................................................................
   1    -45.6000918 -0.456001E+02  0.307E-01    7.67       0.0  T
   2    -45.6001066 -0.148029E-04  0.229E-01    7.67       1.0  T
   3    -45.6001175 -0.109171E-04  0.254E-02    7.67       1.0  T
   4    -45.6001195 -0.198791E-05  0.699E-03    7.67       3.0  T
   5    -45.6001195 -0.568360E-07  0.345E-03    7.67       6.0  T
   6    -45.6001196 -0.131835E-07  0.174E-03    7.67      12.0  T
   7    -45.6001196 -0.558946E-08  0.432E-04    7.67      48.3  T
speedup  0.94
cpu  time for SCC    0.00 s
wall time for SCC    0.01 s
speedup  0.96
cpu  time for grad    0.01 s
wall time for grad    0.01 s
 E :    -45.33261594  G :  0.021869    pred/act E change: -0.371D-03 -0.338D-04
Maxdispl :   0.1032   ||displ|| :   0.2053   Lambda : -0.889D-03
Largest |displ|/coords:  0.1032 (   1)  0.0799 (  12)  0.0562 (  15)
................................................................................
.............................. CYCLE   36 ......................................
................................................................................
   1    -45.6086137 -0.456086E+02  0.126E-01    7.75       0.0  T
   2    -45.6086186 -0.499426E-05  0.932E-02    7.76       1.0  T
   3    -45.6086218 -0.318994E-05  0.144E-02    7.76       1.5  T
   4    -45.6086225 -0.613582E-06  0.410E-03    7.76       5.1  T
   5    -45.6086225 -0.297723E-07  0.165E-03    7.76      12.6  T
speedup  1.03
cpu  time for SCC    0.00 s
wall time for SCC    0.00 s
speedup  1.01
cpu  time for grad    0.01 s
wall time for grad    0.01 s
 E :    -45.33302820  G :  0.010609    pred/act E change: -0.415D-03 -0.412D-03
Maxdispl :   0.3255   ||displ|| :   0.5082   Lambda : -0.625D-03
Largest |displ|/coords:  0.3255 (   2)  0.2158 (   1)  0.1871 (   3)
................................................................................
.............................. CYCLE   37 ......................................
................................................................................
   1    -45.5981515 -0.455982E+02  0.317E-01    7.56       0.0  T
   2    -45.5981720 -0.205484E-04  0.236E-01    7.56       1.0  T
   3    -45.5981922 -0.201941E-04  0.306E-02    7.56       1.0  T
   4    -45.5981938 -0.159824E-05  0.798E-03    7.56       2.6  T
   5    -45.5981939 -0.698144E-07  0.392E-03    7.56       5.3  T
   6    -45.5981939 -0.221343E-07  0.173E-03    7.56      12.1  T
   7    -45.5981939 -0.386966E-08  0.526E-04    7.56      39.7  T
speedup  0.93
cpu  time for SCC    0.00 s
wall time for SCC    0.01 s
speedup  0.96
cpu  time for grad    0.01 s
wall time for grad    0.01 s
 E :    -45.33258576  G :  0.029793    pred/act E change: -0.463D-03  0.442D-03
Maxdispl :   0.0798   ||displ|| :   0.1701   Lambda : -0.159D-02
Largest |displ|/coords:  0.0798 (   9)  0.0671 (  20)  0.0536 (   7)
................................................................................
.............................. CYCLE   38 ......................................
................................................................................
   1    -45.6044648 -0.456045E+02  0.232E-01    7.63       0.0  T
   2    -45.6044778 -0.129876E-04  0.176E-01    7.63       1.0  T
   3    -45.6044892 -0.114050E-04  0.207E-02    7.65       1.0  T
   4    -45.6044907 -0.146832E-05  0.485E-03    7.64       4.3  T
   5    -45.6044907 -0.189016E-07  0.268E-03    7.64       7.8  T
speedup  0.98
cpu  time for SCC    0.00 s
wall time for SCC    0.00 s
speedup  0.97
cpu  time for grad    0.01 s
wall time for grad    0.01 s
 E :    -45.33322949  G :  0.014028    pred/act E change: -0.393D-03 -0.644D-03
Maxdispl :   0.1236   ||displ|| :   0.2791   Lambda : -0.925D-03
Largest |displ|/coords:  0.1236 (   2)  0.0991 (   4)  0.0990 (  11)
................................................................................
.............................. CYCLE   39 ......................................
................................................................................
   1    -45.6127175 -0.456127E+02  0.268E-01    8.01       0.0  T
   2    -45.6127368 -0.193174E-04  0.198E-01    8.00       1.0  T
   3    -45.6127492 -0.124110E-04  0.318E-02    7.99       1.0  T
   4    -45.6127515 -0.223501E-05  0.867E-03    8.01       2.4  T
   5    -45.6127515 -0.917585E-07  0.306E-03    8.01       6.8  T
   6    -45.6127516 -0.995558E-08  0.152E-03    8.01      13.7  T
   7    -45.6127516 -0.452350E-08  0.478E-04    8.01      43.7  T
speedup  1.11
cpu  time for SCC    0.01 s
wall time for SCC    0.01 s
speedup  0.94
cpu  time for grad    0.01 s
wall time for grad    0.01 s
 E :    -45.33268398  G :  0.028179    pred/act E change: -0.817D-03  0.546D-03
Maxdispl :   0.1317   ||displ|| :   0.2163   Lambda : -0.146D-02
Largest |displ|/coords:  0.1317 (   2)  0.0907 (  11)  0.0581 (  24)
................................................................................
.............................. CYCLE   40 ......................................
................................................................................
   1    -45.6066481 -0.456066E+02  0.183E-01    7.77       0.0  T
   2    -45.6066566 -0.847679E-05  0.134E-01    7.77       1.0  T
   3    -45.6066625 -0.590147E-05  0.200E-02    7.78       1.0  T
   4    -45.6066633 -0.859348E-06  0.625E-03    7.77       3.3  T
   5    -45.6066634 -0.393157E-07  0.204E-03    7.77      10.2  T
   6    -45.6066634 -0.522245E-08  0.106E-03    7.77      19.7  T
speedup  0.87
cpu  time for SCC    0.00 s
wall time for SCC    0.00 s
speedup  0.95
cpu  time for grad    0.01 s
wall time for grad    0.01 s
 E :    -45.33347529  G :  0.007505    pred/act E change: -0.499D-03 -0.791D-03
Maxdispl :   0.1915   ||displ|| :   0.3500   Lambda : -0.239D-03
Largest |displ|/coords:  0.1915 (   2)  0.1591 (   1)  0.1411 (   6)
................................................................................
.............................. CYCLE   41 ......................................
................................................................................
   1    -45.6041947 -0.456042E+02  0.170E-01    7.69       0.0  T
   2    -45.6041985 -0.382149E-05  0.127E-01    7.69       1.0  T
   3    -45.6042029 -0.444660E-05  0.141E-02    7.70       1.5  T
   4    -45.6042032 -0.238732E-06  0.407E-03    7.70       5.1  T
   5    -45.6042032 -0.253181E-07  0.181E-03    7.70      11.5  T
   6    -45.6042032 -0.380311E-08  0.108E-03    7.70      19.3  T
speedup  0.85
cpu  time for SCC    0.00 s
wall time for SCC    0.00 s
speedup  0.93
cpu  time for grad    0.01 s
wall time for grad    0.01 s
 E :    -45.33355336  G :  0.010249    pred/act E change: -0.765D-03 -0.781D-04
Maxdispl :   0.1533   ||displ|| :   0.3218   Lambda : -0.246D-03
Largest |displ|/coords:  0.1533 (   2)  0.1469 (   1)  0.1394 (   6)
................................................................................
.............................. CYCLE   42 ......................................
................................................................................
   1    -45.6029891 -0.456030E+02  0.149E-01    7.69       0.0  T
   2    -45.6029917 -0.258935E-05  0.110E-01    7.69       1.0  T
   3    -45.6029944 -0.271982E-05  0.115E-02    7.70       1.8  T
   4    -45.6029946 -0.179099E-06  0.275E-03    7.70       7.6  T
   5    -45.6029946 -0.108879E-07  0.150E-03    7.70      13.9  T
speedup  1.03
cpu  time for SCC    0.00 s
wall time for SCC    0.00 s
speedup  1.02
cpu  time for grad    0.01 s
wall time for grad    0.01 s
 E :    -45.33369067  G :  0.010605    pred/act E change: -0.134D-03 -0.137D-03
Maxdispl :   0.0834   ||displ|| :   0.1831   Lambda : -0.282D-03
Largest |displ|/coords:  0.0834 (   6)  0.0702 (   9)  0.0530 (   1)
................................................................................
.............................. CYCLE   43 ......................................
................................................................................
   1    -45.6058803 -0.456059E+02  0.107E-01    7.79       0.0  T
   2    -45.6058841 -0.384908E-05  0.800E-02    7.79       1.0  T
   3    -45.6058872 -0.306641E-05  0.129E-02    7.79       1.6  T
   4    -45.6058877 -0.449081E-06  0.297E-03    7.79       7.0  T
   5    -45.6058877 -0.120979E-07  0.141E-03    7.79      14.8  T
speedup  1.03
cpu  time for SCC    0.00 s
wall time for SCC    0.00 s
speedup  1.02
cpu  time for grad    0.01 s
wall time for grad    0.01 s
 E :    -45.33373254  G :  0.011433    pred/act E change: -0.136D-03 -0.419D-04
Maxdispl :   0.1011   ||displ|| :   0.1811   Lambda : -0.376D-03
Largest |displ|/coords:  0.1011 (   6)  0.0681 (   5)  0.0534 (   2)
................................................................................
.............................. CYCLE   44 ......................................
................................................................................
   1    -45.6090879 -0.456091E+02  0.138E-01    7.88       0.0  T
   2    -45.6090925 -0.462725E-05  0.103E-01    7.88       1.0  T
   3    -45.6090952 -0.269698E-05  0.135E-02    7.88       1.5  T
   4    -45.6090959 -0.684660E-06  0.347E-03    7.89       6.0  T
   5    -45.6090959 -0.169041E-07  0.147E-03    7.89      14.2  T
   6    -45.6090959 -0.224112E-08  0.815E-04    7.89      25.6  T
speedup  0.87
cpu  time for SCC    0.00 s
wall time for SCC    0.00 s
speedup  0.94
cpu  time for grad    0.01 s
wall time for grad    0.01 s
 E :    -45.33388302  G :  0.009567    pred/act E change: -0.146D-03 -0.150D-03
Maxdispl :   0.2421   ||displ|| :   0.4253   Lambda : -0.353D-03
Largest |displ|/coords:  0.2421 (   2)  0.1861 (   6)  0.1695 (   1)
................................................................................
.............................. CYCLE   45 ......................................
................................................................................
   1    -45.6026397 -0.456026E+02  0.235E-01    7.71       0.0  T
   2    -45.6026491 -0.947156E-05  0.175E-01    7.71       1.0  T
   3    -45.6026572 -0.810579E-05  0.224E-02    7.70       1.0  T
   4    -45.6026582 -0.971940E-06  0.477E-03    7.70       4.4  T
   5    -45.6026583 -0.355831E-07  0.254E-03    7.70       8.2  T
   6    -45.6026583 -0.113917E-07  0.123E-03    7.70      17.0  T
speedup  0.85
cpu  time for SCC    0.00 s
wall time for SCC    0.00 s
speedup  0.94
cpu  time for grad    0.01 s
wall time for grad    0.01 s
 E :    -45.33390736  G :  0.017858    pred/act E change: -0.194D-03 -0.243D-04
Maxdispl :   0.0539   ||displ|| :   0.1025   Lambda : -0.386D-03
Largest |displ|/coords:  0.0539 (   4)  0.0528 (   9)  0.0269 (  12)
................................................................................
.............................. CYCLE   46 ......................................
................................................................................
   1    -45.6045658 -0.456046E+02  0.909E-02    7.75       0.0  T
   2    -45.6045700 -0.419840E-05  0.683E-02    7.76       1.0  T
   3    -45.6045729 -0.287603E-05  0.123E-02    7.77       1.7  T
   4    -45.6045734 -0.555003E-06  0.382E-03    7.76       5.5  T
   5    -45.6045735 -0.205101E-07  0.131E-03    7.76      15.9  T
   6    -45.6045735 -0.177481E-08  0.662E-04    7.76      31.5  T
speedup  0.85
cpu  time for SCC    0.00 s
wall time for SCC    0.00 s
speedup  0.93
cpu  time for grad    0.01 s
wall time for grad    0.01 s
 E :    -45.33404622  G :  0.009891    pred/act E change: -0.208D-03 -0.139D-03
Maxdispl :   0.0580   ||displ|| :   0.1289   Lambda : -0.279D-03
Largest |displ|/coords:  0.0580 (   8)  0.0444 (   5)  0.0382 (   9)
................................................................................
.............................. CYCLE   47 ......................................
................................................................................
   1    -45.6088116 -0.456088E+02  0.996E-02    7.78       0.0  T
   2    -45.6088140 -0.239274E-05  0.741E-02    7.77       1.0  T
   3    -45.6088154 -0.145512E-05  0.102E-02    7.76       2.1  T
   4    -45.6088158 -0.339013E-06  0.282E-03    7.77       7.4  T
   5    -45.6088158 -0.111786E-07  0.112E-03    7.77      18.5  T
speedup  1.03
cpu  time for SCC    0.00 s
wall time for SCC    0.00 s
speedup  0.92
cpu  time for grad    0.01 s
wall time for grad    0.01 s
 E :    -45.33405780  G :  0.010723    pred/act E change: -0.195D-03 -0.116D-04
Maxdispl :   0.0834   ||displ|| :   0.1914   Lambda : -0.314D-03
Largest |displ|/coords:  0.0834 (   6)  0.0758 (   9)  0.0696 (   4)
................................................................................
.............................. CYCLE   48 ......................................
................................................................................
   1    -45.6080402 -0.456080E+02  0.150E-01    7.87       0.0  T
   2    -45.6080436 -0.341714E-05  0.112E-01    7.87       1.0  T
   3    -45.6080464 -0.282334E-05  0.128E-02    7.88       1.6  T
   4    -45.6080468 -0.377168E-06  0.371E-03    7.88       5.6  T
   5    -45.6080468 -0.166408E-07  0.154E-03    7.88      13.5  T
   6    -45.6080468 -0.281403E-08  0.695E-04    7.88      30.0  T
speedup  0.87
cpu  time for SCC    0.00 s
wall time for SCC    0.00 s
speedup  0.94
cpu  time for grad    0.01 s
wall time for grad    0.01 s
 E :    -45.33415206  G :  0.010331    pred/act E change: -0.142D-03 -0.943D-04
Maxdispl :   0.1946   ||displ|| :   0.2889   Lambda : -0.290D-03
Largest |displ|/coords:  0.1946 (   2)  0.1216 (   6)  0.0849 (   3)
................................................................................
.............................. CYCLE   49 ......................................
................................................................................
   1    -45.6032703 -0.456033E+02  0.166E-01    7.73       0.0  T
   2    -45.6032741 -0.377192E-05  0.123E-01    7.73       1.0  T
   3    -45.6032774 -0.334073E-05  0.154E-02    7.73       1.4  T
   4    -45.6032778 -0.344434E-06  0.358E-03    7.73       5.8  T
   5    -45.6032778 -0.214281E-07  0.148E-03    7.73      14.1  T
   6    -45.6032778 -0.305661E-08  0.895E-04    7.73      23.3  T
speedup  0.87
cpu  time for SCC    0.00 s
wall time for SCC    0.00 s
speedup  0.95
cpu  time for grad    0.01 s
wall time for grad    0.01 s
 E :    -45.33421191  G :  0.012326    pred/act E change: -0.163D-03 -0.598D-04
Maxdispl :   0.0574   ||displ|| :   0.1157   Lambda : -0.244D-03
Largest |displ|/coords:  0.0574 (   2)  0.0480 (   8)  0.0472 (   7)
................................................................................
.............................. CYCLE   50 ......................................
................................................................................
   1    -45.6049949 -0.456050E+02  0.119E-01    7.70       0.0  T
   2    -45.6049977 -0.282928E-05  0.902E-02    7.69       1.0  T
   3    -45.6050002 -0.253243E-05  0.104E-02    7.69       2.0  T
   4    -45.6050005 -0.318565E-06  0.258E-03    7.69       8.1  T
   5    -45.6050005 -0.700431E-08  0.129E-03    7.69      16.2  T
speedup  1.00
cpu  time for SCC    0.00 s
wall time for SCC    0.00 s
speedup  1.01
cpu  time for grad    0.01 s
wall time for grad    0.01 s
 E :    -45.33424759  G :  0.012056    pred/act E change: -0.157D-03 -0.357D-04
Maxdispl :   0.0620   ||displ|| :   0.1230   Lambda : -0.279D-03
Largest |displ|/coords:  0.0620 (   4)  0.0448 (   2)  0.0405 (  18)
................................................................................
.............................. CYCLE   51 ......................................
................................................................................
   1    -45.6105764 -0.456106E+02  0.873E-02    7.82       0.0  T
   2    -45.6105790 -0.257308E-05  0.648E-02    7.81       1.0  T
   3    -45.6105810 -0.199560E-05  0.106E-02    7.81       2.0  T
   4    -45.6105812 -0.271070E-06  0.261E-03    7.81       8.0  T
   5    -45.6105813 -0.138819E-07  0.108E-03    7.81      19.3  T
speedup  1.03
cpu  time for SCC    0.00 s
wall time for SCC    0.00 s
speedup  1.02
cpu  time for grad    0.01 s
wall time for grad    0.01 s
 E :    -45.33429167  G :  0.008207    pred/act E change: -0.124D-03 -0.441D-04
Maxdispl :   0.1480   ||displ|| :   0.2753   Lambda : -0.213D-03
Largest |displ|/coords:  0.1480 (   2)  0.1303 (   6)  0.0857 (   9)
................................................................................
.............................. CYCLE   52 ......................................
................................................................................
   1    -45.6060061 -0.456060E+02  0.154E-01    7.75       0.0  T
   2    -45.6060094 -0.330581E-05  0.115E-01    7.76       1.0  T
   3    -45.6060119 -0.251313E-05  0.123E-02    7.77       1.7  T
   4    -45.6060124 -0.434293E-06  0.345E-03    7.77       6.0  T
   5    -45.6060124 -0.161175E-07  0.154E-03    7.77      13.6  T
   6    -45.6060124 -0.330090E-08  0.714E-04    7.77      29.2  T
speedup  1.09
cpu  time for SCC    0.00 s
wall time for SCC    0.00 s
speedup  1.03
cpu  time for grad    0.01 s
wall time for grad    0.01 s
 E :    -45.33439528  G :  0.006806    pred/act E change: -0.142D-03 -0.104D-03
Maxdispl :   0.0918   ||displ|| :   0.1320   Lambda : -0.908D-04
Largest |displ|/coords:  0.0918 (   2)  0.0446 (   6)  0.0383 (   9)

generating ANC from model Hessian ...
 Shifting diagonal of input Hessian by   5.031949966323552E-003
 Lowest  eigenvalues of input Hessian
    0.005000    0.005023   -0.000000   -0.000000   -0.000000   -0.000000
    0.000000    0.000000    0.005180    0.005387    0.005598    0.005843
    0.006248    0.006408    0.006967    0.007417    0.008401    0.008947
 Highest eigenvalues
    1.397978    1.421296    1.427993    2.415432    3.249156    3.885876
 
cpu  time for ANC gen    0.01 s
wall time for ANC gen    0.01 s
................................................................................
.............................. CYCLE   53 ......................................
................................................................................
   1    -45.6059589 -0.456060E+02  0.690E-02    7.72       0.0  T
   2    -45.6059601 -0.114533E-05  0.507E-02    7.72       1.0  T
   3    -45.6059610 -0.933020E-06  0.849E-03    7.72       2.5  T
   4    -45.6059611 -0.105715E-06  0.175E-03    7.72      11.9  T
   5    -45.6059611 -0.546815E-08  0.757E-04    7.72      27.5  T
   6    -45.6059611 -0.994802E-09  0.410E-04    7.72      50.9  T
speedup  1.06
cpu  time for SCC    0.01 s
wall time for SCC    0.00 s
speedup  1.07
cpu  time for grad    0.01 s
wall time for grad    0.01 s
 E :    -45.33444370  G :  0.006353    pred/act E change:  0.000D+00 -0.484D-04
Maxdispl :   0.0422   ||displ|| :   0.0955   Lambda : -0.127D-03
Largest |displ|/coords:  0.0422 (   8)  0.0391 (  13)  0.0283 (  12)
................................................................................
.............................. CYCLE   54 ......................................
................................................................................
   1    -45.6068262 -0.456068E+02  0.115E-01    7.73       0.0  T
   2    -45.6068280 -0.186221E-05  0.877E-02    7.73       1.0  T
   3    -45.6068303 -0.226195E-05  0.789E-03    7.73       2.6  T
   4    -45.6068304 -0.929259E-07  0.250E-03    7.73       8.3  T
   5    -45.6068304 -0.482972E-08  0.900E-04    7.73      23.2  T
speedup  1.03
cpu  time for SCC    0.00 s
wall time for SCC    0.00 s
speedup  1.02
cpu  time for grad    0.01 s
wall time for grad    0.01 s
 E :    -45.33452307  G :  0.003526    pred/act E change:  0.000D+00 -0.794D-04
Maxdispl :   0.0666   ||displ|| :   0.1554   Lambda : -0.124D-03
Largest |displ|/coords:  0.0666 (   8)  0.0596 (  13)  0.0542 (  16)
................................................................................
.............................. CYCLE   55 ......................................
................................................................................
   1    -45.6076060 -0.456076E+02  0.144E-01    7.75       0.0  T
   2    -45.6076075 -0.148023E-05  0.108E-01    7.75       1.0  T
   3    -45.6076092 -0.167904E-05  0.900E-03    7.75       2.3  T
   4    -45.6076093 -0.920590E-07  0.258E-03    7.75       8.1  T
   5    -45.6076093 -0.796783E-08  0.119E-03    7.75      17.6  T
   6    -45.6076093 -0.152491E-08  0.544E-04    7.75      38.3  T
   7    -45.6076093 -0.422048E-09  0.122E-04    7.75     171.1  T
speedup  0.94
cpu  time for SCC    0.00 s
wall time for SCC    0.01 s
speedup  0.93
cpu  time for grad    0.01 s
wall time for grad    0.01 s
 E :    -45.33459280  G :  0.005511    pred/act E change: -0.642D-04 -0.697D-04
Maxdispl :   0.0564   ||displ|| :   0.1186   Lambda : -0.682D-04
Largest |displ|/coords:  0.0564 (   2)  0.0507 (   8)  0.0407 (   9)
................................................................................
.............................. CYCLE   56 ......................................
................................................................................
   1    -45.6078210 -0.456078E+02  0.913E-02    7.74       0.0  T
   2    -45.6078219 -0.937452E-06  0.687E-02    7.74       1.0  T
   3    -45.6078231 -0.116273E-05  0.673E-03    7.74       3.1  T
   4    -45.6078231 -0.453883E-07  0.206E-03    7.74      10.1  T
   5    -45.6078231 -0.445337E-08  0.782E-04    7.74      26.7  T
speedup  0.79
cpu  time for SCC    0.00 s
wall time for SCC    0.00 s
speedup  0.93
cpu  time for grad    0.01 s
wall time for grad    0.01 s
 E :    -45.33464808  G :  0.005547    pred/act E change: -0.633D-04 -0.553D-04
Maxdispl :   0.1856   ||displ|| :   0.3162   Lambda : -0.177D-03
Largest |displ|/coords:  0.1856 (   2)  0.1371 (   8)  0.1084 (   9)
................................................................................
.............................. CYCLE   57 ......................................
................................................................................
   1    -45.6080321 -0.456080E+02  0.194E-01    7.71       0.0  T
   2    -45.6080387 -0.655244E-05  0.145E-01    7.71       1.0  T
   3    -45.6080454 -0.675240E-05  0.184E-02    7.70       1.1  T
   4    -45.6080460 -0.609993E-06  0.485E-03    7.70       4.3  T
   5    -45.6080461 -0.332351E-07  0.227E-03    7.70       9.2  T
   6    -45.6080461 -0.644869E-08  0.121E-03    7.70      17.3  T
speedup  0.85
cpu  time for SCC    0.00 s
wall time for SCC    0.00 s
speedup  0.93
cpu  time for grad    0.01 s
wall time for grad    0.01 s
 E :    -45.33475340  G :  0.003387    pred/act E change: -0.346D-04 -0.105D-03
Maxdispl :   0.2320   ||displ|| :   0.4728   Lambda : -0.181D-03
Largest |displ|/coords:  0.2320 (   8)  0.2286 (   2)  0.1514 (   9)
................................................................................
.............................. CYCLE   58 ......................................
................................................................................
   1    -45.6025238 -0.456025E+02  0.332E-01    7.57       0.0  T
   2    -45.6025386 -0.148420E-04  0.250E-01    7.57       1.0  T
   3    -45.6025560 -0.173199E-04  0.258E-02    7.58       1.0  T
   4    -45.6025569 -0.990968E-06  0.708E-03    7.58       2.9  T
   5    -45.6025570 -0.522801E-07  0.353E-03    7.58       5.9  T
   6    -45.6025570 -0.133161E-07  0.147E-03    7.58      14.2  T
   7    -45.6025570 -0.346010E-08  0.351E-04    7.58      59.3  T
   8    -45.6025570 -0.353566E-09  0.139E-04    7.58     150.4  T
speedup  0.98
cpu  time for SCC    0.01 s
wall time for SCC    0.01 s
speedup  1.03
cpu  time for grad    0.01 s
wall time for grad    0.01 s
 E :    -45.33455478  G :  0.023125    pred/act E change: -0.974D-04  0.199D-03
Maxdispl :   0.0936   ||displ|| :   0.1972   Lambda : -0.772D-03
Largest |displ|/coords:  0.0936 (   8)  0.0758 (  11)  0.0627 (  13)
................................................................................
.............................. CYCLE   59 ......................................
................................................................................
   1    -45.6076188 -0.456076E+02  0.177E-01    7.64       0.0  T
   2    -45.6076263 -0.748584E-05  0.133E-01    7.64       1.0  T
   3    -45.6076321 -0.587682E-05  0.170E-02    7.63       1.2  T
   4    -45.6076331 -0.928840E-06  0.434E-03    7.63       4.8  T
   5    -45.6076331 -0.155777E-07  0.220E-03    7.63       9.5  T
speedup  1.05
cpu  time for SCC    0.00 s
wall time for SCC    0.00 s
speedup  1.03
cpu  time for grad    0.01 s
wall time for grad    0.01 s
 E :    -45.33484682  G :  0.003938    pred/act E change: -0.111D-03 -0.292D-03
Maxdispl :   0.0456   ||displ|| :   0.0999   Lambda : -0.540D-04
Largest |displ|/coords:  0.0456 (   2)  0.0368 (   5)  0.0343 (   8)
................................................................................
.............................. CYCLE   60 ......................................
................................................................................
   1    -45.6076012 -0.456076E+02  0.669E-02    7.64       0.0  T
   2    -45.6076018 -0.603415E-06  0.502E-02    7.64       1.0  T
   3    -45.6076025 -0.671076E-06  0.534E-03    7.64       3.9  T
   4    -45.6076026 -0.522192E-07  0.163E-03    7.64      12.8  T
   5    -45.6076026 -0.441398E-08  0.673E-04    7.64      31.0  T
   6    -45.6076026 -0.536325E-09  0.337E-04    7.64      61.8  T
speedup  0.87
cpu  time for SCC    0.00 s
wall time for SCC    0.00 s
speedup  0.99
cpu  time for grad    0.01 s
wall time for grad    0.01 s
 E :    -45.33488947  G :  0.003193    pred/act E change: -0.401D-03 -0.426D-04
Maxdispl :   0.2256   ||displ|| :   0.4458   Lambda : -0.158D-03
Largest |displ|/coords:  0.2256 (   2)  0.1699 (   5)  0.1602 (   8)
................................................................................
.............................. CYCLE   61 ......................................
................................................................................
   1    -45.6054032 -0.456054E+02  0.265E-01    7.55       0.0  T
   2    -45.6054131 -0.982928E-05  0.199E-01    7.55       1.0  T
   3    -45.6054245 -0.114162E-04  0.212E-02    7.56       1.0  T
   4    -45.6054253 -0.759865E-06  0.633E-03    7.56       3.3  T
   5    -45.6054253 -0.596176E-07  0.297E-03    7.56       7.0  T
   6    -45.6054253 -0.105959E-07  0.138E-03    7.56      15.1  T
   7    -45.6054253 -0.377753E-08  0.431E-04    7.56      48.4  T
   8    -45.6054253 -0.322437E-09  0.121E-04    7.56     172.3  T
speedup  0.98
cpu  time for SCC    0.01 s
wall time for SCC    0.01 s
speedup  1.04
cpu  time for grad    0.01 s
wall time for grad    0.01 s
 E :    -45.33497553  G :  0.009366    pred/act E change: -0.273D-04 -0.861D-04
Maxdispl :   0.0578   ||displ|| :   0.1059   Lambda : -0.860D-04
Largest |displ|/coords:  0.0578 (   2)  0.0494 (   5)  0.0391 (   1)
................................................................................
.............................. CYCLE   62 ......................................
................................................................................
   1    -45.6068124 -0.456068E+02  0.476E-02    7.57       0.0  T
   2    -45.6068128 -0.458056E-06  0.356E-02    7.57       1.0  T
   3    -45.6068133 -0.437818E-06  0.420E-03    7.57       5.0  T
   4    -45.6068133 -0.495767E-07  0.137E-03    7.57      15.2  T
   5    -45.6068133 -0.315565E-08  0.572E-04    7.57      36.5  T
speedup  1.03
cpu  time for SCC    0.00 s
wall time for SCC    0.00 s
speedup  1.01
cpu  time for grad    0.01 s
wall time for grad    0.01 s
 E :    -45.33504760  G :  0.005829    pred/act E change: -0.949D-04 -0.721D-04
Maxdispl :   0.2844   ||displ|| :   0.5298   Lambda : -0.210D-03
Largest |displ|/coords:  0.2844 (   2)  0.2374 (   5)  0.1897 (   1)
................................................................................
.............................. CYCLE   63 ......................................
................................................................................
   1    -45.6069950 -0.456070E+02  0.261E-01    7.51       0.0  T
   2    -45.6070045 -0.945047E-05  0.196E-01    7.51       1.0  T
   3    -45.6070158 -0.113159E-04  0.202E-02    7.51       1.0  T
   4    -45.6070165 -0.709169E-06  0.662E-03    7.51       3.2  T
   5    -45.6070166 -0.686060E-07  0.293E-03    7.51       7.1  T
   6    -45.6070166 -0.113310E-07  0.143E-03    7.51      14.5  T
speedup  1.09
cpu  time for SCC    0.00 s
wall time for SCC    0.00 s
speedup  1.04
cpu  time for grad    0.01 s
wall time for grad    0.01 s
 E :    -45.33520972  G :  0.006506    pred/act E change: -0.435D-04 -0.162D-03
Maxdispl :   0.2682   ||displ|| :   0.4992   Lambda : -0.230D-03
Largest |displ|/coords:  0.2682 (   5)  0.2332 (   2)  0.2094 (   1)
................................................................................
.............................. CYCLE   64 ......................................
................................................................................
   1    -45.6099805 -0.456100E+02  0.222E-01    7.55       0.0  T
   2    -45.6099864 -0.585153E-05  0.167E-01    7.55       1.0  T
   3    -45.6099935 -0.716229E-05  0.150E-02    7.55       1.4  T
   4    -45.6099939 -0.426530E-06  0.557E-03    7.55       3.7  T
   5    -45.6099940 -0.488936E-07  0.217E-03    7.55       9.6  T
   6    -45.6099940 -0.737342E-08  0.108E-03    7.55      19.2  T
speedup  0.85
cpu  time for SCC    0.00 s
wall time for SCC    0.00 s
speedup  0.93
cpu  time for grad    0.01 s
wall time for grad    0.01 s
 E :    -45.33538169  G :  0.006154    pred/act E change: -0.135D-03 -0.172D-03
Maxdispl :   0.3795   ||displ|| :   0.7526   Lambda : -0.274D-03
Largest |displ|/coords:  0.3795 (   2)  0.3666 (   5)  0.2627 (   1)
................................................................................
.............................. CYCLE   65 ......................................
................................................................................
   1    -45.6035440 -0.456035E+02  0.372E-01    7.35       0.0  T
   2    -45.6035621 -0.180753E-04  0.279E-01    7.36       1.0  T
   3    -45.6035840 -0.218539E-04  0.295E-02    7.37       1.0  T
   4    -45.6035852 -0.125255E-05  0.929E-03    7.37       2.2  T
   5    -45.6035853 -0.127599E-06  0.406E-03    7.36       5.1  T
   6    -45.6035854 -0.199839E-07  0.214E-03    7.36       9.7  T
   7    -45.6035854 -0.663996E-08  0.528E-04    7.36      39.5  T
speedup  0.93
cpu  time for SCC    0.00 s
wall time for SCC    0.01 s
speedup  0.96
cpu  time for grad    0.01 s
wall time for grad    0.01 s
 E :    -45.33548999  G :  0.014666    pred/act E change: -0.144D-03 -0.108D-03
Maxdispl :   0.1056   ||displ|| :   0.1943   Lambda : -0.482D-03
Largest |displ|/coords:  0.1056 (   5)  0.0564 (  13)  0.0508 (  19)
[...]
   3    -45.6160545 -0.151095E-06  0.278E-03    7.95       7.5  T
   4    -45.6160545 -0.860989E-08  0.948E-04    7.95      22.0  T
   5    -45.6160545 -0.967461E-09  0.333E-04    7.95      62.6  T
speedup  1.03
cpu  time for SCC    0.00 s
wall time for SCC    0.00 s
speedup  1.01
cpu  time for grad    0.01 s
wall time for grad    0.01 s
 E :    -45.35053692  G :  0.001354    pred/act E change: -0.533D-05 -0.446D-05
Maxdispl :   0.0396   ||displ|| :   0.0731   Lambda : -0.748D-05
Largest |displ|/coords:  0.0396 (   6)  0.0343 (   1)  0.0310 (   8)
................................................................................
.............................. CYCLE  210 ......................................
................................................................................
   1    -45.6161849 -0.456162E+02  0.414E-02    7.95       0.0  T
   2    -45.6161852 -0.270583E-06  0.304E-02    7.95       1.0  T
   3    -45.6161854 -0.163218E-06  0.456E-03    7.95       4.6  T
   4    -45.6161854 -0.343473E-07  0.139E-03    7.95      15.0  T
   5    -45.6161854 -0.225199E-08  0.368E-04    7.95      56.6  T
   6    -45.6161854 -0.152362E-09  0.225E-04    7.95      92.5  T
speedup  1.06
cpu  time for SCC    0.00 s
wall time for SCC    0.00 s
speedup  0.95
cpu  time for grad    0.01 s
wall time for grad    0.01 s
 E :    -45.35054106  G :  0.000944    pred/act E change: -0.316D-05 -0.414D-05
Maxdispl :   0.0233   ||displ|| :   0.0362   Lambda : -0.336D-05
Largest |displ|/coords:  0.0233 (   1)  0.0149 (   6)  0.0128 (   5)
................................................................................
.............................. CYCLE  211 ......................................
................................................................................
   1    -45.6160981 -0.456161E+02  0.236E-02    7.95       0.0  T
   2    -45.6160981 -0.738635E-07  0.177E-02    7.95       1.2  T
   3    -45.6160982 -0.666790E-07  0.163E-03    7.95      12.8  T
   4    -45.6160982 -0.787105E-08  0.769E-04    7.95      27.1  T
   5    -45.6160982 -0.491596E-09  0.205E-04    7.95     101.8  T
speedup  1.03
cpu  time for SCC    0.00 s
wall time for SCC    0.00 s
speedup  1.02
cpu  time for grad    0.01 s
wall time for grad    0.01 s
 E :    -45.35054335  G :  0.001020    pred/act E change: -0.376D-05 -0.229D-05
Maxdispl :   0.0177   ||displ|| :   0.0298   Lambda : -0.344D-05
Largest |displ|/coords:  0.0177 (   6)  0.0102 (   8)  0.0098 (  19)
................................................................................
.............................. CYCLE  212 ......................................
................................................................................
   1    -45.6160929 -0.456161E+02  0.235E-02    7.95       0.0  T
   2    -45.6160930 -0.966531E-07  0.176E-02    7.95       1.2  T
   3    -45.6160931 -0.586566E-07  0.189E-03    7.94      11.0  T
   4    -45.6160931 -0.142709E-07  0.754E-04    7.94      27.7  T
   5    -45.6160931 -0.537867E-09  0.186E-04    7.94     112.2  T
speedup  1.03
cpu  time for SCC    0.00 s
wall time for SCC    0.00 s
speedup  1.02
cpu  time for grad    0.01 s
wall time for grad    0.01 s
 E :    -45.35054570  G :  0.000989    pred/act E change: -0.168D-05 -0.235D-05
Maxdispl :   0.0171   ||displ|| :   0.0263   Lambda : -0.238D-05
Largest |displ|/coords:  0.0171 (   6)  0.0083 (  11)  0.0082 (   8)
................................................................................
.............................. CYCLE  213 ......................................
................................................................................
   1    -45.6161275 -0.456161E+02  0.191E-02    7.95       0.0  T
   2    -45.6161275 -0.424773E-07  0.143E-02    7.95       1.5  T
   3    -45.6161275 -0.364100E-07  0.118E-03    7.94      17.7  T
   4    -45.6161275 -0.455717E-08  0.564E-04    7.94      37.0  T
   5    -45.6161275 -0.253713E-09  0.127E-04    7.94     163.9  T
speedup  0.77
cpu  time for SCC    0.00 s
wall time for SCC    0.00 s
speedup  0.93
cpu  time for grad    0.01 s
wall time for grad    0.01 s
 E :    -45.35054735  G :  0.000811    pred/act E change: -0.172D-05 -0.165D-05
Maxdispl :   0.0145   ||displ|| :   0.0239   Lambda : -0.200D-05
Largest |displ|/coords:  0.0145 (   6)  0.0100 (  11)  0.0088 (   3)
................................................................................
.............................. CYCLE  214 ......................................
................................................................................
   1    -45.6161090 -0.456161E+02  0.164E-02    7.94       0.0  T
   2    -45.6161090 -0.391481E-07  0.123E-02    7.94       1.7  T
   3    -45.6161091 -0.266035E-07  0.133E-03    7.94      15.6  T
   4    -45.6161091 -0.536230E-08  0.524E-04    7.94      39.8  T
   5    -45.6161091 -0.222421E-09  0.125E-04    7.94     166.6  T
speedup  1.03
cpu  time for SCC    0.00 s
wall time for SCC    0.00 s
speedup  1.01
cpu  time for grad    0.01 s
wall time for grad    0.01 s
 E :    -45.35054876  G :  0.000636    pred/act E change: -0.119D-05 -0.141D-05
Maxdispl :   0.0131   ||displ|| :   0.0228   Lambda : -0.159D-05
Largest |displ|/coords:  0.0131 (   6)  0.0099 (   3)  0.0084 (  11)
................................................................................
.............................. CYCLE  215 ......................................
................................................................................
   1    -45.6161440 -0.456161E+02  0.152E-02    7.94       0.0  T
   2    -45.6161440 -0.287711E-07  0.114E-02    7.94       1.8  T
   3    -45.6161440 -0.254014E-07  0.107E-03    7.94      19.4  T
   4    -45.6161440 -0.308906E-08  0.404E-04    7.94      51.6  T
   5    -45.6161440 -0.134271E-09  0.123E-04    7.94     169.6  T
speedup  1.03
cpu  time for SCC    0.00 s
wall time for SCC    0.00 s
speedup  1.02
cpu  time for grad    0.01 s
wall time for grad    0.01 s
 E :    -45.35054985  G :  0.000435    pred/act E change: -0.100D-05 -0.109D-05
Maxdispl :   0.0057   ||displ|| :   0.0153   Lambda : -0.846D-06
Largest |displ|/coords:  0.0057 (   3)  0.0056 (   6)  0.0050 (   5)
................................................................................
.............................. CYCLE  216 ......................................
................................................................................
   1    -45.6161529 -0.456162E+02  0.104E-02    7.94       0.0  T
   2    -45.6161529 -0.142706E-07  0.784E-03    7.94       2.7  T
   3    -45.6161529 -0.143321E-07  0.754E-04    7.94      27.6  T
   4    -45.6161529 -0.141038E-08  0.303E-04    7.94      68.9  T
speedup  0.97
cpu  time for SCC    0.00 s
wall time for SCC    0.00 s
speedup  1.00
cpu  time for grad    0.01 s
wall time for grad    0.01 s
 E :    -45.35055041  G :  0.000285    pred/act E change: -0.794D-06 -0.565D-06
Maxdispl :   0.0030   ||displ|| :   0.0077   Lambda : -0.324D-06
Largest |displ|/coords:  0.0030 (   1)  0.0029 (   5)  0.0027 (   7)
................................................................................
.............................. CYCLE  217 ......................................
................................................................................
   1    -45.6161817 -0.456162E+02  0.510E-03    7.94       0.0  T
   2    -45.6161817 -0.334715E-08  0.385E-03    7.94       5.4  T
   3    -45.6161817 -0.380144E-08  0.323E-04    7.94      64.6  T
   4    -45.6161817 -0.315268E-09  0.149E-04    7.94     139.9  T
speedup  0.94
cpu  time for SCC    0.00 s
wall time for SCC    0.00 s
speedup  0.99
cpu  time for grad    0.01 s
wall time for grad    0.01 s
 E :    -45.35055065  G :  0.000209    pred/act E change: -0.423D-06 -0.233D-06
Maxdispl :   0.0030   ||displ|| :   0.0064   Lambda : -0.181D-06
Largest |displ|/coords:  0.0030 (   5)  0.0030 (   1)  0.0021 (   7)
................................................................................
.............................. CYCLE  218 ......................................
................................................................................
   1    -45.6161782 -0.456162E+02  0.430E-03    7.94       0.0  T
   2    -45.6161782 -0.289960E-08  0.324E-03    7.94       6.4  T
   3    -45.6161782 -0.294126E-08  0.390E-04    7.94      53.5  T
   4    -45.6161782 -0.340059E-09  0.132E-04    7.94     157.9  T
speedup  0.94
cpu  time for SCC    0.00 s
wall time for SCC    0.00 s
speedup  0.99
cpu  time for grad    0.01 s
wall time for grad    0.01 s
 E :    -45.35055077  G :  0.000157    pred/act E change: -0.162D-06 -0.120D-06
Maxdispl :   0.0044   ||displ|| :   0.0054   Lambda : -0.800D-07
Largest |displ|/coords:  0.0044 (   1)  0.0016 (   4)  0.0012 (  12)
................................................................................
.............................. CYCLE  219 ......................................
................................................................................
   1    -45.6161954 -0.456162E+02  0.282E-03    7.94       0.0  T
   2    -45.6161954 -0.139508E-08  0.209E-03    7.94      10.0  T
   3    -45.6161954 -0.122155E-08  0.309E-04    7.94      67.5  T
   4    -45.6161954 -0.137398E-09  0.884E-05    7.94     236.0  T
speedup  0.94
cpu  time for SCC    0.00 s
wall time for SCC    0.00 s
speedup  0.99
cpu  time for grad    0.01 s
wall time for grad    0.01 s
 E :    -45.35055082  G :  0.000123    pred/act E change: -0.907D-07 -0.572D-07
Maxdispl :   0.0019   ||displ|| :   0.0034   Lambda : -0.508D-07
Largest |displ|/coords:  0.0019 (   1)  0.0011 (   8)  0.0011 (   2)

   *** GEOMETRY OPTIMIZATION CONVERGED AFTER 219 ITERATIONS ***

------------------------------------------------------------------------
 total energy gain (kcal):     -0.4442
------------------------------------------------------------------------
================
 final structure:
================
$coord
        3.91636180896036       -0.92859616963108       -1.65875996724052      S 
        3.50365161985166        1.18194459619876        0.00085837367612      O 
        4.79882730028158       -3.21340995591908       -0.56554850782630      O 
        1.56474179047607       -1.39977653658806       -3.24809576781029      O 
        5.94208152502524       -0.04094054107043       -3.67535778894313      O 
        5.64974312716845        1.71469901614931       -3.97712637890578      H 
        0.23812839353253        0.11169675336411       -3.02782315656760      H 
       -2.43338341632880        0.90444596158246        2.17301570588137      O 
       -1.26935942720406        1.84649893254491        3.25045319970944      H 
       -6.26895454764617        0.20269452155819       -1.46936395928174      O 
       -5.35932741610199        0.29524419681938        0.11770741374511      H 
       -7.92364991802794        0.86659356902767       -1.15664670365162      H 
        1.59887032231756        3.19761142059714        4.30879897456250      O 
        2.50505674897493        2.38504778409513        2.92974123820373      H 
        1.89757964360181        4.97479641799512        4.12420792490880      H 
       -1.52382104430130        2.03620163358073       -2.55260770127524      O 
       -3.15788980699751        1.44464064679934       -3.14469886393918      H 
       -1.69004188993098        1.88697683213477       -0.67222013116759      H 
       -0.29835720596680       -3.69628746250917        1.64068675316859      N 
       -0.40885812856316       -4.88506093973042        3.13782969943838      H 
       -1.71642910677058       -0.82462243430959        2.11510448112583      H 
        1.55839440454604       -3.49088244117197        1.20028472303701      H 
       -1.12336477702900       -4.56951582060355        0.14956043908931      H 
$end
 
 Bond Distances (Angstroems)
 ---------------------------
S1-O2=1.4375         S1-O3=1.4194         S1-O4=1.5225         S1-O5=1.5838         O2-S1=1.4375         O3-S1=1.4194         
O4-S1=1.5225         O4-H7=1.0706         O5-S1=1.5838         O5-H6=0.9553         H6-O5=0.9553         H7-O4=1.0706         
O8-H9=0.9762         O8-H21=0.9910        H9-O8=0.9762         O10-H11=0.9692       O10-H12=0.9579       H11-O10=0.9692       
H12-O10=0.9579       O13-H14=0.9733       O13-H15=0.9586       H14-O13=0.9733       H15-O13=0.9586       O16-H17=0.9715       
O16-H18=1.0021       H17-O16=0.9715       H18-O16=1.0021       N19-H20=1.0133       N19-H22=1.0156       N19-H23=1.0133       
H20-N19=1.0133       H21-O8=0.9910        H22-N19=1.0156       H23-N19=1.0133       
 N  H  Rav=1.0141 sigma=0.0011  Rmin=1.0133  Rmax=1.0156     3
 O  H  Rav=0.9826 sigma=0.0325  Rmin=0.9553  Rmax=1.0706    10
 S  O  Rav=1.4908 sigma=0.0663  Rmin=1.4194  Rmax=1.5838     4
 
 selected bond angles (degree)
 --------------------
O3-S1-O2=117.57                O4-S1-O2=109.91                O4-S1-O3=110.77                O5-S1-O2=106.50                
O5-S1-O3=107.73                O5-S1-O4=103.27                H7-O4-S1=110.70                H6-O5-S1=106.95                
H21-O8-H9=104.36               H12-O10-H11=106.60             
 
 selected dihedral angles (degree)
 ---------------------------------
H7-O4-S1-O2=  9.69            H7-O4-S1-O3=141.28            H7-O4-S1-O5=256.38            H6-O5-S1-O2=326.06            
H6-O5-S1-O3=199.08            H6-O5-S1-O4= 81.83            
 
 CMA Distance (Angstroems)
 ---------------------------
R(CMA):  3.4158

========================================================================
 FINAL SINGLEPOINT CALCULATION ON OPTIMIZED GEOMETRY
========================================================================

 Ncao       : 59
 Nao        : 58
 Nshell     : 34
 Nel        : 72
 T(el)      :   300.0
 intcut     :    25.0
 scfconv/Eh :  0.100E-05
   qconv/e  :  0.100E-03
 intneglect :  0.100E-07
 broydamp   :      0.250
 iter      E             dE          RMSdq      gap      omega  full diag
   1    -45.6161954 -0.456162E+02  0.372E-05    7.94       0.0  T
   2    -45.6161954 -0.100187E-11  0.234E-05    7.94     889.4  T
   3    -45.6161954 -0.454747E-12  0.554E-06    7.94    3762.4  T
speedup  1.25
cpu  time for SCC    0.00 s
wall time for SCC    0.00 s

   *** convergence criteria satisfied after 3 iterations ***

          eigenvalues
 #    :          24         25         26         27         28         29         30         31
 occ. :        2.000      2.000      2.000      2.000      2.000      2.000      2.000      2.000
 eps  :       -13.921    -13.679    -13.515    -13.295    -12.763    -12.755    -12.686    -12.478
 #    :          32         33         34         35         36         37         38         39
 occ. :        2.000      2.000      2.000      2.000      2.000      0.000      0.000      0.000
 eps  :       -12.330    -12.109    -11.913    -11.811    -11.102     -3.160     -1.122     -0.551
 #    :          40         41         42         43         44         45         46         47
 occ. :        0.000      0.000      0.000      0.000      0.000      0.000      0.000      0.000
 eps  :         0.256      0.598      1.756      2.638      3.169      3.918      4.676      5.555


   #   Z            q   n(s)   n(p)   n(d)      C6AA      α(0)
   1  16 S      1.684  1.580  1.782  0.955    89.138    15.890
   2   8 O     -0.714  1.756  4.959  0.000    29.099     7.232
   3   8 O     -0.648  1.751  4.897  0.000    27.319     7.008
   4   8 O     -0.633  1.762  4.871  0.000    25.974     6.879
   5   8 O     -0.574  1.747  4.828  0.000    24.553     6.689
   6   1 H      0.355  0.645  0.000  0.000     0.572     1.185
   7   1 H      0.399  0.601  0.000  0.000     0.479     1.084
   8   8 O     -0.649  1.756  4.893  0.000    26.388     6.933
   9   1 H      0.323  0.677  0.000  0.000     0.656     1.273
  10   8 O     -0.602  1.741  4.861  0.000    25.239     6.780
  11   1 H      0.322  0.678  0.000  0.000     0.658     1.274
  12   1 H      0.279  0.721  0.000  0.000     0.786     1.393
  13   8 O     -0.598  1.741  4.857  0.000    25.149     6.768
  14   1 H      0.326  0.674  0.000  0.000     0.647     1.263
  15   1 H      0.284  0.716  0.000  0.000     0.770     1.379
  16   8 O     -0.601  1.766  4.835  0.000    25.160     6.772
  17   1 H      0.335  0.665  0.000  0.000     0.624     1.241
  18   1 H      0.353  0.647  0.000  0.000     0.582     1.199
  19   7 N     -0.459  1.373  4.086  0.000    32.086     8.413
  20   1 H      0.165  0.835  0.000  0.000     1.306     1.790
  21   1 H      0.313  0.687  0.000  0.000     0.684     1.299
  22   1 H      0.174  0.826  0.000  0.000     1.248     1.750
  23   1 H      0.166  0.834  0.000  0.000     1.297     1.784

 Mol. C6AA /au·bohr⁶  :       4498.544273
 Mol. C8AA /au·bohr⁸  :      98797.853202
 Mol. α(0) /au        :         97.278255

 
 Wiberg/Mayer (AO) data. WBOs > 0.1 written file <wbo>
 largest (>0.05) Wiberg bond orders for each atom
           total WBO             WBO to atom ...
     1  S   4.865    O    3 1.479    O    2 1.376    O    4 1.057    O    5 0.915
     2  O   1.732    S    1 1.376    O    3 0.125    O    4 0.097    O    5 0.082
     3  O   1.816    S    1 1.479    O    2 0.125    O    4 0.088    O    5 0.072
     4  O   1.957    S    1 1.057    H    7 0.582    O    2 0.097    O    3 0.088    O   16 0.065    O    5 0.061
     5  O   1.992    S    1 0.915    H    6 0.857    O    2 0.082    O    3 0.072    O    4 0.061
     6  H   0.874    O    5 0.857
     7  H   0.841    O    4 0.582    O   16 0.243
     8  O   1.892    H    9 0.838    H   21 0.815    H   18 0.096
     9  H   0.896    O    8 0.838
    10  O   1.836    H   12 0.919    H   11 0.870
    11  H   0.896    O   10 0.870
    12  H   0.922    O   10 0.919
    13  O   1.867    H   15 0.916    H   14 0.854
    14  H   0.893    O   13 0.854
    15  H   0.919    O   13 0.916
    16  O   2.016    H   17 0.863    H   18 0.775    H    7 0.243    O    4 0.065
    17  H   0.888    O   16 0.863
    18  H   0.875    O   16 0.775    O    8 0.096
    19  N   3.028    H   20 0.970    H   23 0.970    H   22 0.943    H   21 0.085
    20  H   0.973    N   19 0.970
    21  H   0.902    O    8 0.815    N   19 0.085
    22  H   0.970    N   19 0.943
    23  H   0.972    N   19 0.970
 MOs/occ written to file <molden.input>
 
molecular dipole:
                 x           y           z       tot (Debye)
 q only:       -1.038       0.935      -0.190
   full:       -0.815       0.852      -0.294       3.088
molecular quadrupole (traceless):
                xx          xy          yy          xz          yz          zz
 q only:       -0.922       8.768       2.891      -2.565      -5.457      -1.969
  q+dip:        0.003       9.703       5.369      -3.971      -5.908      -5.372
   full:        0.203       9.815       5.165      -3.982      -5.954      -5.368

SCC energy    :     -45.6161954
rep           :       0.2654412
ES            :       0.2038568
AES           :      -0.0445827
AXC           :      -0.0055341
disp          :      -0.0157816
XB            :       0.0000000
fix           :       0.0000000
total E       :     -45.3505508
atomizationE  :       4.4336133     2782.13
(atE without considering molecular charge,
 total energy contains solvation terms)
H-L gap (eV)  :          7.9419
optimized geometry written to: xtbopt.xyz


------------------------------------------------------------------------
 * finished run on 2019/09/16 at 11:24:06.277     
------------------------------------------------------------------------
 total:
 * wall-time:     0 d,  0 h,  0 min,  3.979 sec
 *  cpu-time:     0 d,  0 h,  0 min,  3.828 sec
 * ratio c/w:     0.962 speedup
 SCF:
 * wall-time:     0 d,  0 h,  0 min,  0.151 sec
 *  cpu-time:     0 d,  0 h,  0 min,  0.127 sec
 * ratio c/w:     0.842 speedup
 ANC optimizer:
 * wall-time:     0 d,  0 h,  0 min,  3.805 sec
 *  cpu-time:     0 d,  0 h,  0 min,  3.680 sec
 * ratio c/w:     0.967 speedup

