      -----------------------------------------------------------      
     |                   =====================                   |     
     |                           x T B                           |     
     |                   =====================                   |     
     |                         S. Grimme                         |     
     |          Mulliken Center for Theoretical Chemistry        |     
     |                    University of Bonn                     |     
     |                 Version 6.0.1 (SAW181210)                 |     
      -----------------------------------------------------------      

   This program is distributed in the hope that it will be useful,
   but WITHOUT ANY WARRANTY; without even the implied warranty of
   MERCHANTABILITY or FITNESS FOR A PARTICULAR PURPOSE.
   
   FOR NON-COMMERCIAL, ACADEMIA USE ONLY.
   
   Cite this work as:
   S. Grimme, C. Bannwarth, P. Shushkov, J. Comput. Theory Chem., 2017,
   13, 1989-2009.
   C. Bannwarth, S. Ehlert and S. Grimme., ChemRxiv, 2018, preprint.
   http://doi.org/10.26434/chemrxiv.7246238.v1
   
   for sTDA-xTB:
   S. Grimme and C. Bannwarth, J. Chem. Phys., 2016, 145, 054103.
   
   in the mass-spec context:
   V. Asgeirsson, C. Bauer and S. Grimme, Chem. Sci., 2017, 8, 4879.
   
   if GBSA is used:
   P. Shushkov, F. März and S. Grimme, unpublished.
   
   for ANC optimizer:
   S. Grimme, unpublished.
   Rational Function algorithm used in ANCopt:
   F. Eckert, P. Pulay, H.-J. Werner, J. Comput. Chem., 1997, 18, 1473.
   
   with help from (in alphabetical order)
   C. Bannwarth, F. Bohle, G. Brandenburg, E. Caldeweyher, M. Checinski,
   S. Dohm, S. Ehlert, S. Ehrlich, F. März, H. Neugebauer, J. Pisarek,
   P. Pracht, P. Shushkov, and S. Spicher.
   
 * started run on 2019/09/16 at 11:31:49.416     
========================================================================
 # omp threads = 1
========================================================================
number of atoms            : 23
number of electrons        : 72
charge                     : 0
spin                       : .0
first test random number   : .2967

########################################################################
# WARNING! Please study the warnings concerning your input carefully
#  - XTBPATH is not set, using XTBHOME instead
#  - the use of '-opt' is discouraged, please use '--opt' next time
#  - the use of '-chrg' is discouraged, please use '--chrg' next time
#  - the use of '-uhf' is discouraged, please use '--uhf' next time
########################################################################

           ------------------------------------------------- 
          |                 G F N 2 - x T B                 |
          | Geometry, Frequencies, Noncovalent interactions |
          |            JCTC 2018 parametrisation            |
           ------------------------------------------------- 
      method parameters     
 k(s)        :  1.8500
 k(p)        :  2.2300
 k(d)        :  2.2300
 k(f)        :  2.0000
 kEN (H0ij)  : -2.0000
 D4 a1       :  0.5200
 D4 a2       :  5.0000
 D4 s6       :  1.0000
 D4 s8       :  2.7000
 D4 s9       :  5.0000
 alphaj      :  2.0000


            Z     q(EN)     CN     RAES       Cart. coordinates
     1  S   6.0    0.58    4.30    4.24    -4.20745    -0.64684     1.87990
     2  O   6.0   -0.30    1.09    1.80    -3.27972     0.29428     4.29548
     3  O   6.0   -0.29    1.12    1.80    -4.42649     0.92329    -0.33919
     4  O   6.0   -0.24    2.04    1.83    -2.59113    -3.19666     1.22317
     5  O   6.0   -0.22    2.04    1.83    -6.92783    -1.97007     2.22100
     6  H   1.0    0.14    1.11    1.45    -6.93881    -2.94389     3.78237
     7  H   1.0    0.16    1.19    1.46    -0.90430    -2.96624     1.92163
     8  O   6.0   -0.42    1.72    1.81     1.36290     0.91912     0.59117
     9  H   1.0    0.18    0.95    1.42     0.99010     2.04615     2.03151
    10  O   6.0   -0.27    1.99    1.82    -0.66360     4.01678    -2.38251
    11  H   1.0    0.17    1.12    1.45     0.05397     2.87851    -1.15611
    12  H   1.0    0.17    0.99    1.43    -2.44392     3.63676    -2.40827
    13  O   6.0   -0.28    1.98    1.82     1.42347    -2.40206    -2.81441
    14  H   1.0    0.16    0.97    1.43     0.11563    -3.62611    -2.48907
    15  H   1.0    0.18    1.11    1.45     1.30099    -1.19444    -1.45748
    16  O   6.0   -0.28    2.05    1.83     1.92543    -2.67679     3.45123
    17  H   1.0    0.17    1.15    1.45     1.97567    -1.23488     2.34082
    18  H   1.0    0.15    0.97    1.43     2.66161    -2.10578     5.01539
    19  N   5.0   -0.14    3.96    2.76     4.11469     2.04977    -3.14132
    20  H   1.0    0.08    0.99    1.43     5.95583     2.62843    -2.89677
    21  H   1.0    0.12    1.15    1.45     3.32173     1.66026    -1.40814
    22  H   1.0    0.09    1.00    1.43     3.10172     3.46209    -4.01521
    23  H   1.0    0.09    1.00    1.43     4.07949     0.44830    -4.24518

  Z AO/shell   Hii/eV     exponent
  1     Wed Apr 25 08:07:45 CEST 2018   EN: 2.200 GM2: 0.406  GM3: 0.0800  RAES: 1.40
     1s    -10.707211    1.230000
  7     Wed Apr 25 08:07:45 CEST 2018   EN: 3.040 GM2: 0.461  GM3:-0.0640  RAES: 1.90
     2s    -16.686243    2.339881
     2p    -12.523956    2.014332
  8     Wed Apr 25 08:07:45 CEST 2018   EN: 3.440 GM2: 0.452  GM3:-0.0517  RAES: 1.80
     2s    -20.229985    2.439742
     2p    -15.503117    2.137023
 16     Tue Apr 24 11:44:34 CEST 2018   EN: 2.580 GM2: 0.340  GM3:-0.0502  RAES: 3.10
     3s    -20.029654    1.981333
     3p    -11.377694    2.025643
     3d     -0.420282    1.702555
 no old-style atom pair restraining (fixing) potential

molecular fragmentation (1/2 indicates fragments):
11111112222222222222222
# atoms in fragment 1/2:     7    16
 fragment masses (1/2) :       98.07       89.09
CMA distance (Bohr)    :   6.602
constraining FC (au)   :  0.0500
           ------------------------------------------------- 
          |        Self-Consistent Charge Iterations        |
           ------------------------------------------------- 

 Ncao       : 59
 Nao        : 58
 Nshell     : 34
 Nel        : 72
 T(el)      :   300.0
 intcut     :    25.0
 scfconv/Eh :  0.100E-05
   qconv/e  :  0.100E-03
 intneglect :  0.100E-07
 broydamp   :      0.250
 iter      E             dE          RMSdq      gap      omega  full diag
   1    -45.4468536 -0.454469E+02  0.731E+00    8.10       0.0  T
   2    -45.4950757 -0.482220E-01  0.516E+00    7.22       1.0  T
   3    -45.5347234 -0.396477E-01  0.123E+00    5.11       1.0  T
   4    -45.5379146 -0.319120E-02  0.738E-01    5.26       1.0  T
   5    -45.5396276 -0.171304E-02  0.260E-01    5.35       1.0  T
   6    -45.5399007 -0.273070E-03  0.153E-01    5.37       1.0  T
   7    -45.5400324 -0.131709E-03  0.487E-02    5.38       1.0  T
   8    -45.5400438 -0.114184E-04  0.235E-02    5.37       1.0  T
   9    -45.5400467 -0.286205E-05  0.764E-03    5.38       2.7  T
  10    -45.5400469 -0.234761E-06  0.235E-03    5.38       8.9  T
  11    -45.5400469 -0.128714E-07  0.111E-03    5.38      18.8  T
  12    -45.5400469 -0.463880E-08  0.408E-04    5.38      51.2  T
  13    -45.5400469 -0.387040E-09  0.205E-04    5.38     101.7  T
speedup  0.98
cpu  time for SCC    0.01 s
wall time for SCC    0.01 s

   *** convergence criteria satisfied after 13 iterations ***

          eigenvalues
 #    :          24         25         26         27         28         29         30         31
 occ. :        2.000      2.000      2.000      2.000      2.000      2.000      2.000      2.000
 eps  :       -13.222    -12.948    -12.671    -12.375    -12.318    -12.195    -12.119    -12.018
 #    :          32         33         34         35         36         37         38         39
 occ. :        2.000      2.000      2.000      2.000      2.000      0.000      0.000      0.000
 eps  :       -11.333    -10.965    -10.599    -10.352     -9.892     -4.509     -1.854     -1.724
 #    :          40         41         42         43         44         45         46         47
 occ. :        0.000      0.000      0.000      0.000      0.000      0.000      0.000      0.000
 eps  :        -0.726      0.777      1.494      2.842      2.906      3.076      3.747      4.751


   #   Z            q   n(s)   n(p)   n(d)      C6AA      α(0)
   1  16 S      1.651  1.627  1.794  0.928    89.884    15.957
   2   8 O     -0.656  1.778  4.878  0.000    27.523     7.034
   3   8 O     -0.612  1.760  4.852  0.000    26.412     6.890
   4   8 O     -0.604  1.762  4.842  0.000    25.263     6.785
   5   8 O     -0.566  1.756  4.809  0.000    24.348     6.661
   6   1 H      0.348  0.652  0.000  0.000     0.591     1.206
   7   1 H      0.397  0.603  0.000  0.000     0.487     1.095
   8   8 O     -0.884  1.843  5.040  0.000    34.247     7.846
   9   1 H      0.224  0.776  0.000  0.000     1.004     1.574
  10   8 O     -0.676  1.749  4.927  0.000    27.086     7.024
  11   1 H      0.316  0.684  0.000  0.000     0.672     1.287
  12   1 H      0.286  0.714  0.000  0.000     0.765     1.374
  13   8 O     -0.654  1.748  4.906  0.000    26.510     6.949
  14   1 H      0.279  0.721  0.000  0.000     0.787     1.394
  15   1 H      0.336  0.664  0.000  0.000     0.621     1.237
  16   8 O     -0.654  1.758  4.897  0.000    26.518     6.950
  17   1 H      0.328  0.672  0.000  0.000     0.638     1.254
  18   1 H      0.275  0.725  0.000  0.000     0.802     1.407
  19   7 N     -0.275  1.251  4.025  0.000    27.100     7.732
  20   1 H      0.235  0.765  0.000  0.000     0.943     1.521
  21   1 H      0.334  0.666  0.000  0.000     0.619     1.232
  22   1 H      0.285  0.715  0.000  0.000     0.759     1.365
  23   1 H      0.285  0.715  0.000  0.000     0.761     1.367

 Mol. C6AA /au·bohr⁶  :       4503.016332
 Mol. C8AA /au·bohr⁸  :      99134.525145
 Mol. α(0) /au        :         97.140770

 
 Wiberg/Mayer (AO) data. WBOs > 0.1 written file <wbo>
 largest (>0.05) Wiberg bond orders for each atom
           total WBO             WBO to atom ...
     1  S   4.771    O    3 1.475    O    2 1.426    O    4 0.921    O    5 0.917
     2  O   1.773    S    1 1.426    O    3 0.148    O    4 0.103    O    5 0.091
     3  O   1.826    S    1 1.475    O    2 0.148    O    4 0.099    O    5 0.075
     4  O   1.967    S    1 0.921    H    7 0.756    O    2 0.103    O    3 0.099    O    5 0.052
     5  O   2.001    S    1 0.917    H    6 0.860    O    2 0.091    O    3 0.075    O    4 0.052
     6  H   0.879    O    5 0.860
     7  H   0.842    O    4 0.756    O   16 0.060
     8  O   1.556    H    9 0.920    H   21 0.153    H   17 0.120    H   11 0.096    N   19 0.066    H   15 0.063    O   16 0.052
     9  H   0.950    O    8 0.920
    10  O   1.777    H   12 0.904    H   11 0.793
    11  H   0.900    O   10 0.793    O    8 0.096
    12  H   0.918    O   10 0.904
    13  O   1.788    H   14 0.914    H   15 0.814
    14  H   0.922    O   13 0.914
    15  H   0.887    O   13 0.814    O    8 0.063
    16  O   1.820    H   18 0.915    H   17 0.763    H    7 0.060    O    8 0.052
    17  H   0.892    O   16 0.763    O    8 0.120
    18  H   0.924    O   16 0.915
    19  N   3.561    H   20 0.939    H   23 0.906    H   22 0.902    H   21 0.724    O    8 0.066
    20  H   0.945    N   19 0.939
    21  H   0.888    N   19 0.724    O    8 0.153
    22  H   0.919    N   19 0.902
    23  H   0.919    N   19 0.906
 MOs/occ written to file <molden.input>
 
molecular dipole:
                 x           y           z       tot (Debye)
 q only:        2.490       0.544      -1.027
   full:        2.255       0.507      -0.364       5.947
molecular quadrupole (traceless):
                xx          xy          yy          xz          yz          zz
 q only:       11.299      16.723     -10.825     -17.132      -7.519      -0.475
  q+dip:       12.843      18.774     -13.084     -17.007      -6.941       0.240
   full:       12.989      18.935     -13.045     -16.982      -7.072       0.055

SCC energy    :     -45.5400469
rep           :       0.2580559
ES            :       0.2797924
AES           :      -0.0493633
AXC           :      -0.0036466
disp          :      -0.0163866
XB            :       0.0000000
fix           :       0.0000000
total E       :     -45.2818330
atomizationE  :       4.3648954     2739.01
(atE without considering molecular charge,
 total energy contains solvation terms)
H-L gap (eV)  :          5.3837
           ------------------------------------------------- 
          |                 ===============                 |
          |                   A N C O P T                   |
          |                 ===============                 |
          |          Approximate Normal Coordinate          |
          |           Rational Function Optimizer           |
           ------------------------------------------------- 
dumping coords to <xtbopt.coord> and <xtbopt.log>
 optlevel               2
 Maxcycle             460
 Maxmicro              25
 Econv         1.000000000000000E-007
 Gconv         2.000000000000000E-004
 Maxdispl       1.00000000000000     
 Hlow          5.000000000000000E-003
 S6             20.0000000000000     
 Nvar               63

generating ANC from model Hessian ...
 Shifting diagonal of input Hessian by   5.968555293148601E-003
 Lowest  eigenvalues of input Hessian
    0.005000    0.005811   -0.000000   -0.000000   -0.000000   -0.000000
    0.000000    0.000000    0.006145    0.006544    0.006636    0.007006
    0.007159    0.007471    0.007711    0.007862    0.008178    0.008404
 Highest eigenvalues
    1.428013    1.434385    1.441430    1.949460    2.765996    3.587679
 
cpu  time for ANC gen    0.01 s
wall time for ANC gen    0.01 s
................................................................................
.............................. CYCLE    1 ......................................
................................................................................
   1    -45.5400469 -0.455400E+02  0.607E-05    5.38       0.0  T
   2    -45.5400469 -0.568434E-11  0.453E-05    5.38     460.6  T
   3    -45.5400469 -0.605382E-11  0.194E-05    5.38    1074.8  T
speedup  0.80
cpu  time for SCC    0.00 s
wall time for SCC    0.00 s
speedup  0.95
cpu  time for grad    0.01 s
wall time for grad    0.01 s
 E :    -45.28183292  G :  0.137463    pred/act E change:  0.000D+00  0.260D-07
Maxdispl :   0.1526   ||displ|| :   0.3681   Lambda : -0.220D-01
Largest |displ|/coords:  0.1526 (  17)  0.1468 (  20)  0.1275 (  24)
................................................................................
.............................. CYCLE    2 ......................................
................................................................................
   1    -45.5547755 -0.455548E+02  0.312E-01    5.99       0.0  T
   2    -45.5549168 -0.141305E-03  0.226E-01    5.99       1.0  T
   3    -45.5549781 -0.612886E-04  0.653E-02    6.00       1.0  T
   4    -45.5549906 -0.125079E-04  0.206E-02    6.00       1.0  T
   5    -45.5549911 -0.551033E-06  0.582E-03    6.00       3.6  T
   6    -45.5549912 -0.522204E-07  0.286E-03    6.00       7.3  T
speedup  1.06
cpu  time for SCC    0.00 s
wall time for SCC    0.00 s
speedup  0.98
cpu  time for grad    0.01 s
wall time for grad    0.01 s
 E :    -45.29842294  G :  0.071818    pred/act E change:  0.000D+00 -0.166D-01
Maxdispl :   0.1970   ||displ|| :   0.4281   Lambda : -0.998D-02
Largest |displ|/coords:  0.1970 (  20)  0.1334 (  18)  0.1209 (  11)
................................................................................
.............................. CYCLE    3 ......................................
................................................................................
   1    -45.5637137 -0.455637E+02  0.346E-01    6.48       0.0  T
   2    -45.5638569 -0.143215E-03  0.255E-01    6.51       1.0  T
   3    -45.5638999 -0.430690E-04  0.693E-02    6.59       1.0  T
   4    -45.5639185 -0.185348E-04  0.164E-02    6.58       1.3  T
   5    -45.5639189 -0.391356E-06  0.447E-03    6.58       4.7  T
   6    -45.5639189 -0.215007E-07  0.233E-03    6.58       8.9  T
speedup  1.04
cpu  time for SCC    0.00 s
wall time for SCC    0.00 s
speedup  0.97
cpu  time for grad    0.01 s
wall time for grad    0.01 s
 E :    -45.30656909  G :  0.047916    pred/act E change: -0.125D-01 -0.815D-02
Maxdispl :   0.2308   ||displ|| :   0.5841   Lambda : -0.115D-01
Largest |displ|/coords:  0.2308 (  20)  0.2055 (  10)  0.1730 (  23)
................................................................................
.............................. CYCLE    4 ......................................
................................................................................
   1    -45.5782350 -0.455782E+02  0.461E-01    7.38       0.0  T
   2    -45.5788113 -0.576329E-03  0.329E-01    7.48       1.0  T
   3    -45.5789914 -0.180106E-03  0.125E-01    7.64       1.0  T
   4    -45.5790245 -0.331027E-04  0.242E-02    7.64       1.0  T
   5    -45.5790254 -0.924444E-06  0.701E-03    7.63       3.0  T
   6    -45.5790255 -0.734116E-07  0.370E-03    7.63       5.6  T
   7    -45.5790255 -0.329994E-07  0.143E-03    7.63      14.6  T
speedup  0.85
cpu  time for SCC    0.00 s
wall time for SCC    0.01 s
speedup  0.94
cpu  time for grad    0.01 s
wall time for grad    0.01 s
 E :    -45.31423165  G :  0.039401    pred/act E change: -0.591D-02 -0.766D-02
Maxdispl :   0.2979   ||displ|| :   0.6214   Lambda : -0.736D-02
Largest |displ|/coords:  0.2979 (  20)  0.1891 (  11)  0.1877 (   7)
................................................................................
.............................. CYCLE    5 ......................................
................................................................................
   1    -45.5830756 -0.455831E+02  0.626E-01    8.09       0.0  T
   2    -45.5837140 -0.638405E-03  0.461E-01    8.24       1.0  T
   3    -45.5839116 -0.197672E-03  0.143E-01    8.38       1.0  T
   4    -45.5839819 -0.702338E-04  0.234E-02    8.39       1.0  T
   5    -45.5839837 -0.183960E-05  0.858E-03    8.39       2.4  T
   6    -45.5839838 -0.748034E-07  0.463E-03    8.39       4.5  T
   7    -45.5839838 -0.301916E-07  0.144E-03    8.39      14.5  T
speedup  0.85
cpu  time for SCC    0.00 s
wall time for SCC    0.01 s
speedup  0.89
cpu  time for grad    0.01 s
wall time for grad    0.01 s
 E :    -45.31861344  G :  0.045894    pred/act E change: -0.773D-02 -0.438D-02
Maxdispl :   0.2049   ||displ|| :   0.5467   Lambda : -0.631D-02
Largest |displ|/coords:  0.2049 (   7)  0.2005 (  20)  0.1735 (  10)
................................................................................
.............................. CYCLE    6 ......................................
................................................................................
   1    -45.5894252 -0.455894E+02  0.484E-01    8.46       0.0  T
   2    -45.5898998 -0.474577E-03  0.353E-01    8.47       1.0  T
   3    -45.5900767 -0.176950E-03  0.119E-01    8.50       1.0  T
   4    -45.5901170 -0.402820E-04  0.206E-02    8.52       1.0  T
   5    -45.5901185 -0.146056E-05  0.717E-03    8.51       2.9  T
   6    -45.5901185 -0.216437E-07  0.435E-03    8.51       4.8  T
   7    -45.5901185 -0.319549E-07  0.941E-04    8.51      22.1  T
speedup  0.93
cpu  time for SCC    0.00 s
wall time for SCC    0.01 s
speedup  1.00
cpu  time for grad    0.01 s
wall time for grad    0.01 s
 E :    -45.32308425  G :  0.044194    pred/act E change: -0.510D-02 -0.447D-02
Maxdispl :   0.2546   ||displ|| :   0.5533   Lambda : -0.799D-02
Largest |displ|/coords:  0.2546 (   7)  0.1819 (  19)  0.1774 (  21)
................................................................................
.............................. CYCLE    7 ......................................
................................................................................
   1    -45.5984414 -0.455984E+02  0.406E-01    8.18       0.0  T
   2    -45.5987459 -0.304455E-03  0.298E-01    8.18       1.0  T
   3    -45.5988778 -0.131984E-03  0.992E-02    8.19       1.0  T
   4    -45.5989041 -0.262314E-04  0.264E-02    8.19       1.0  T
   5    -45.5989053 -0.124647E-05  0.934E-03    8.19       2.2  T
   6    -45.5989054 -0.926938E-07  0.438E-03    8.19       4.8  T
   7    -45.5989054 -0.252683E-07  0.150E-03    8.19      13.9  T
speedup  0.93
cpu  time for SCC    0.00 s
wall time for SCC    0.01 s
speedup  1.00
cpu  time for grad    0.01 s
wall time for grad    0.01 s
 E :    -45.32575108  G :  0.071384    pred/act E change: -0.410D-02 -0.267D-02
Maxdispl :   0.1661   ||displ|| :   0.4362   Lambda : -0.133D-01
Largest |displ|/coords:  0.1661 (  20)  0.1619 (  13)  0.1560 (  21)
................................................................................
.............................. CYCLE    8 ......................................
................................................................................
   1    -45.5743410 -0.455743E+02  0.551E-01    7.95       0.0  T
   2    -45.5746467 -0.305661E-03  0.402E-01    7.94       1.0  T
   3    -45.5748036 -0.156877E-03  0.105E-01    7.92       1.0  T
   4    -45.5748344 -0.308537E-04  0.290E-02    7.91       1.0  T
   5    -45.5748358 -0.138710E-05  0.105E-02    7.91       2.0  T
   6    -45.5748361 -0.275218E-06  0.622E-03    7.91       3.4  T
   7    -45.5748361 -0.493081E-07  0.161E-03    7.91      13.0  T
   8    -45.5748362 -0.572463E-08  0.527E-04    7.91      39.6  T
speedup  0.98
cpu  time for SCC    0.01 s
wall time for SCC    0.01 s
speedup  1.02
cpu  time for grad    0.01 s
wall time for grad    0.01 s
 E :    -45.32490656  G :  0.085255    pred/act E change: -0.522D-02  0.845D-03
Maxdispl :   0.1454   ||displ|| :   0.4256   Lambda : -0.191D-01
Largest |displ|/coords:  0.1454 (  21)  0.1324 (  20)  0.1307 (  23)
................................................................................
.............................. CYCLE    9 ......................................
................................................................................
   1    -45.6080609 -0.456081E+02  0.526E-01    8.12       0.0  T
   2    -45.6084781 -0.417147E-03  0.385E-01    8.07       1.0  T
   3    -45.6087193 -0.241247E-03  0.115E-01    7.98       1.0  T
   4    -45.6087555 -0.361878E-04  0.330E-02    8.00       1.0  T
   5    -45.6087574 -0.187742E-05  0.128E-02    7.99       1.6  T
   6    -45.6087575 -0.117307E-06  0.566E-03    7.99       3.7  T
   7    -45.6087576 -0.671143E-07  0.186E-03    7.99      11.2  T
speedup  0.91
cpu  time for SCC    0.01 s
wall time for SCC    0.01 s
speedup  0.98
cpu  time for grad    0.01 s
wall time for grad    0.01 s
 E :    -45.32822154  G :  0.073044    pred/act E change: -0.794D-02 -0.331D-02
Maxdispl :   0.1668   ||displ|| :   0.3621   Lambda : -0.117D-01
Largest |displ|/coords:  0.1668 (  23)  0.1246 (  10)  0.0988 (  16)
................................................................................
.............................. CYCLE   10 ......................................
................................................................................
   1    -45.5856163 -0.455856E+02  0.394E-01    7.88       0.0  T
   2    -45.5858277 -0.211425E-03  0.288E-01    7.91       1.0  T
   3    -45.5859341 -0.106324E-03  0.823E-02    7.94       1.0  T
   4    -45.5859554 -0.212905E-04  0.194E-02    7.92       1.1  T
   5    -45.5859560 -0.624800E-06  0.730E-03    7.92       2.9  T
   6    -45.5859561 -0.743852E-07  0.367E-03    7.92       5.7  T
   7    -45.5859561 -0.269474E-07  0.102E-03    7.92      20.4  T
speedup  0.89
cpu  time for SCC    0.00 s
wall time for SCC    0.01 s
speedup  0.98
cpu  time for grad    0.01 s
wall time for grad    0.01 s
 E :    -45.33068832  G :  0.051670    pred/act E change: -0.113D-01 -0.247D-02
Maxdispl :   0.1140   ||displ|| :   0.3140   Lambda : -0.617D-02
Largest |displ|/coords:  0.1140 (   6)  0.1093 (   2)  0.0922 (  23)
................................................................................
.............................. CYCLE   11 ......................................
................................................................................
   1    -45.6066450 -0.456066E+02  0.279E-01    7.97       0.0  T
   2    -45.6068072 -0.162154E-03  0.206E-01    7.91       1.0  T
   3    -45.6068934 -0.861979E-04  0.731E-02    7.80       1.0  T
   4    -45.6069075 -0.141700E-04  0.166E-02    7.82       1.3  T
   5    -45.6069080 -0.466188E-06  0.588E-03    7.82       3.5  T
   6    -45.6069080 -0.140962E-07  0.290E-03    7.82       7.2  T
speedup  1.06
cpu  time for SCC    0.01 s
wall time for SCC    0.00 s
speedup  1.06
cpu  time for grad    0.01 s
wall time for grad    0.01 s
 E :    -45.33255768  G :  0.029558    pred/act E change: -0.661D-02 -0.187D-02
Maxdispl :   0.1075   ||displ|| :   0.2406   Lambda : -0.248D-02
Largest |displ|/coords:  0.1075 (   1)  0.0932 (  10)  0.0872 (  17)
................................................................................
.............................. CYCLE   12 ......................................
................................................................................
   1    -45.6016694 -0.456017E+02  0.186E-01    7.82       0.0  T
   2    -45.6016899 -0.205068E-04  0.140E-01    7.83       1.0  T
   3    -45.6017013 -0.113714E-04  0.286E-02    7.84       1.0  T
   4    -45.6017041 -0.279353E-05  0.807E-03    7.83       2.6  T
   5    -45.6017042 -0.146413E-06  0.288E-03    7.83       7.2  T
   6    -45.6017042 -0.902445E-08  0.149E-03    7.83      13.9  T
speedup  1.09
cpu  time for SCC    0.00 s
wall time for SCC    0.00 s
speedup  1.07
cpu  time for grad    0.01 s
wall time for grad    0.01 s
 E :    -45.33398587  G :  0.025653    pred/act E change: -0.339D-02 -0.143D-02
Maxdispl :   0.1606   ||displ|| :   0.3386   Lambda : -0.230D-02
Largest |displ|/coords:  0.1606 (  10)  0.1174 (   7)  0.1158 (   6)
................................................................................
.............................. CYCLE   13 ......................................
................................................................................
   1    -45.5985220 -0.455985E+02  0.267E-01    7.80       0.0  T
   2    -45.5985444 -0.224501E-04  0.199E-01    7.79       1.0  T
   3    -45.5985589 -0.144509E-04  0.299E-02    7.75       1.0  T
   4    -45.5985618 -0.290690E-05  0.894E-03    7.75       2.3  T
   5    -45.5985619 -0.171626E-06  0.346E-03    7.75       6.0  T
   6    -45.5985620 -0.110645E-07  0.188E-03    7.75      11.1  T
speedup  1.06
cpu  time for SCC    0.00 s
wall time for SCC    0.00 s
speedup  1.07
cpu  time for grad    0.01 s
wall time for grad    0.01 s
 E :    -45.33481684  G :  0.033461    pred/act E change: -0.131D-02 -0.831D-03
Maxdispl :   0.1190   ||displ|| :   0.3489   Lambda : -0.243D-02
Largest |displ|/coords:  0.1190 (   3)  0.1163 (  16)  0.1160 (  10)
................................................................................
.............................. CYCLE   14 ......................................
................................................................................
   1    -45.6041781 -0.456042E+02  0.248E-01    7.73       0.0  T
   2    -45.6042116 -0.335305E-04  0.187E-01    7.70       1.0  T
   3    -45.6042373 -0.256885E-04  0.345E-02    7.63       1.0  T
   4    -45.6042418 -0.443989E-05  0.912E-03    7.64       2.3  T
   5    -45.6042419 -0.127299E-06  0.400E-03    7.64       5.2  T
   6    -45.6042419 -0.128999E-07  0.161E-03    7.64      12.9  T
speedup  1.09
cpu  time for SCC    0.00 s
wall time for SCC    0.00 s
speedup  0.98
cpu  time for grad    0.01 s
wall time for grad    0.01 s
 E :    -45.33605616  G :  0.033801    pred/act E change: -0.128D-02 -0.124D-02
Maxdispl :   0.1529   ||displ|| :   0.3586   Lambda : -0.254D-02
Largest |displ|/coords:  0.1529 (  17)  0.1224 (   6)  0.1163 (  16)
................................................................................
.............................. CYCLE   15 ......................................
................................................................................
   1    -45.6098619 -0.456099E+02  0.240E-01    7.63       0.0  T
   2    -45.6098915 -0.296357E-04  0.174E-01    7.61       1.0  T
   3    -45.6099096 -0.181016E-04  0.377E-02    7.58       1.0  T
   4    -45.6099124 -0.276146E-05  0.117E-02    7.57       1.8  T
   5    -45.6099126 -0.237250E-06  0.406E-03    7.57       5.1  T
   6    -45.6099127 -0.146478E-07  0.211E-03    7.57       9.9  T
speedup  1.04
cpu  time for SCC    0.00 s
wall time for SCC    0.00 s
speedup  0.97
cpu  time for grad    0.01 s
wall time for grad    0.01 s
 E :    -45.33713011  G :  0.022842    pred/act E change: -0.136D-02 -0.107D-02
Maxdispl :   0.1488   ||displ|| :   0.3040   Lambda : -0.123D-02
Largest |displ|/coords:  0.1488 (  10)  0.1176 (   3)  0.1066 (  15)
................................................................................
.............................. CYCLE   16 ......................................
................................................................................
   1    -45.6123526 -0.456124E+02  0.175E-01    7.51       0.0  T
   2    -45.6123614 -0.883730E-05  0.129E-01    7.49       1.0  T
   3    -45.6123673 -0.587607E-05  0.232E-02    7.45       1.0  T
   4    -45.6123684 -0.107093E-05  0.658E-03    7.45       3.2  T
   5    -45.6123684 -0.755101E-07  0.244E-03    7.45       8.5  T
   6    -45.6123684 -0.743201E-08  0.133E-03    7.45      15.7  T
speedup  1.06
cpu  time for SCC    0.00 s
wall time for SCC    0.00 s
speedup  0.98
cpu  time for grad    0.01 s
wall time for grad    0.01 s
 E :    -45.33796099  G :  0.011086    pred/act E change: -0.143D-02 -0.831D-03
Maxdispl :   0.2620   ||displ|| :   0.5001   Lambda : -0.118D-02
Largest |displ|/coords:  0.2620 (  10)  0.1790 (  17)  0.1521 (   8)
................................................................................
.............................. CYCLE   17 ......................................
................................................................................
   1    -45.6028148 -0.456028E+02  0.355E-01    7.27       0.0  T
   2    -45.6028418 -0.270503E-04  0.263E-01    7.25       1.0  T
   3    -45.6028611 -0.192264E-04  0.414E-02    7.21       1.0  T
   4    -45.6028643 -0.326014E-05  0.123E-02    7.21       1.7  T
   5    -45.6028645 -0.227691E-06  0.442E-03    7.21       4.7  T
   6    -45.6028646 -0.200538E-07  0.241E-03    7.21       8.6  T
   7    -45.6028646 -0.115638E-07  0.721E-04    7.21      28.9  T
speedup  1.11
cpu  time for SCC    0.01 s
wall time for SCC    0.01 s
speedup  1.00
cpu  time for grad    0.01 s
wall time for grad    0.01 s
 E :    -45.33789932  G :  0.037686    pred/act E change: -0.672D-03  0.617D-04
Maxdispl :   0.1555   ||displ|| :   0.2418   Lambda : -0.216D-02
Largest |displ|/coords:  0.1555 (   3)  0.0913 (   6)  0.0689 (  15)
................................................................................
.............................. CYCLE   18 ......................................
................................................................................
   1    -45.6108784 -0.456109E+02  0.178E-01    7.21       0.0  T
   2    -45.6108944 -0.159436E-04  0.129E-01    7.20       1.0  T
   3    -45.6109054 -0.110165E-04  0.286E-02    7.18       1.0  T
   4    -45.6109068 -0.140031E-05  0.633E-03    7.18       3.3  T
   5    -45.6109068 -0.531020E-07  0.302E-03    7.18       6.9  T
   6    -45.6109069 -0.746532E-08  0.150E-03    7.18      13.9  T
speedup  1.04
cpu  time for SCC    0.01 s
wall time for SCC    0.00 s
speedup  0.96
cpu  time for grad    0.01 s
wall time for grad    0.01 s
 E :    -45.33896830  G :  0.017515    pred/act E change: -0.739D-03 -0.107D-02
Maxdispl :   0.1247   ||displ|| :   0.2598   Lambda : -0.116D-02
Largest |displ|/coords:  0.1247 (   3)  0.1205 (  10)  0.0883 (  17)
................................................................................
.............................. CYCLE   19 ......................................
................................................................................
   1    -45.6137524 -0.456138E+02  0.223E-01    7.12       0.0  T
   2    -45.6137747 -0.222911E-04  0.166E-01    7.11       1.0  T
   3    -45.6137896 -0.149438E-04  0.344E-02    7.07       1.0  T
   4    -45.6137925 -0.283736E-05  0.113E-02    7.08       1.8  T
   5    -45.6137926 -0.141619E-06  0.335E-03    7.08       6.2  T
   6    -45.6137926 -0.113513E-07  0.166E-03    7.08      12.5  T
   7    -45.6137926 -0.400935E-08  0.551E-04    7.08      37.8  T
speedup  0.94
cpu  time for SCC    0.00 s
wall time for SCC    0.01 s
speedup  0.93
cpu  time for grad    0.01 s
wall time for grad    0.01 s
 E :    -45.33895886  G :  0.035963    pred/act E change: -0.114D-02  0.943D-05
Maxdispl :   0.1287   ||displ|| :   0.2884   Lambda : -0.198D-02
Largest |displ|/coords:  0.1287 (   4)  0.1283 (   8)  0.1035 (  15)
................................................................................
.............................. CYCLE   20 ......................................
................................................................................
   1    -45.6180244 -0.456180E+02  0.258E-01    7.10       0.0  T
   2    -45.6180428 -0.184029E-04  0.192E-01    7.09       1.0  T
   3    -45.6180576 -0.147536E-04  0.309E-02    7.08       1.0  T
   4    -45.6180595 -0.196392E-05  0.645E-03    7.09       3.2  T
   5    -45.6180596 -0.522709E-07  0.331E-03    7.08       6.3  T
   6    -45.6180596 -0.139399E-07  0.119E-03    7.08      17.5  T
speedup  0.87
cpu  time for SCC    0.00 s
wall time for SCC    0.00 s
speedup  0.98
cpu  time for grad    0.01 s
wall time for grad    0.01 s
 E :    -45.33997500  G :  0.021591    pred/act E change: -0.617D-03 -0.102D-02
Maxdispl :   0.1929   ||displ|| :   0.4085   Lambda : -0.174D-02
Largest |displ|/coords:  0.1929 (  17)  0.1588 (  10)  0.1492 (   4)
................................................................................
.............................. CYCLE   21 ......................................
................................................................................
   1    -45.6058679 -0.456059E+02  0.279E-01    6.96       0.0  T
   2    -45.6058984 -0.305089E-04  0.206E-01    6.95       1.0  T
   3    -45.6059275 -0.290857E-04  0.407E-02    6.94       1.0  T
   4    -45.6059305 -0.304162E-05  0.129E-02    6.94       1.6  T
   5    -45.6059308 -0.254103E-06  0.494E-03    6.94       4.2  T
   6    -45.6059308 -0.303449E-07  0.254E-03    6.94       8.2  T
speedup  0.85
cpu  time for SCC    0.00 s
wall time for SCC    0.00 s
speedup  0.97
cpu  time for grad    0.01 s
wall time for grad    0.01 s
 E :    -45.34022627  G :  0.035890    pred/act E change: -0.107D-02 -0.251D-03
Maxdispl :   0.0837   ||displ|| :   0.1852   Lambda : -0.158D-02
Largest |displ|/coords:  0.0837 (  10)  0.0764 (   2)  0.0617 (  17)
................................................................................
.............................. CYCLE   22 ......................................
................................................................................
   1    -45.6132225 -0.456132E+02  0.148E-01    7.00       0.0  T
   2    -45.6132325 -0.100061E-04  0.111E-01    7.00       1.0  T
   3    -45.6132409 -0.836899E-05  0.186E-02    6.99       1.1  T
   4    -45.6132419 -0.105004E-05  0.598E-03    6.99       3.5  T
   5    -45.6132420 -0.453507E-07  0.237E-03    6.99       8.8  T
speedup  1.03
cpu  time for SCC    0.00 s
wall time for SCC    0.00 s
speedup  0.96
cpu  time for grad    0.01 s
wall time for grad    0.01 s
 E :    -45.34114961  G :  0.019576    pred/act E change: -0.101D-02 -0.923D-03
Maxdispl :   0.1630   ||displ|| :   0.3098   Lambda : -0.142D-02
Largest |displ|/coords:  0.1630 (  10)  0.1104 (   3)  0.1065 (   2)
................................................................................
.............................. CYCLE   23 ......................................
................................................................................
   1    -45.6161477 -0.456161E+02  0.202E-01    7.01       0.0  T
   2    -45.6161723 -0.245310E-04  0.151E-01    7.00       1.0  T
   3    -45.6161899 -0.176327E-04  0.313E-02    6.98       1.0  T
   4    -45.6161930 -0.305332E-05  0.114E-02    6.99       1.8  T
   5    -45.6161932 -0.213325E-06  0.367E-03    6.99       5.7  T
   6    -45.6161932 -0.141292E-07  0.186E-03    6.99      11.2  T
   7    -45.6161932 -0.571319E-08  0.523E-04    6.99      39.9  T
speedup  0.94
cpu  time for SCC    0.00 s
wall time for SCC    0.01 s
speedup  1.00
cpu  time for grad    0.01 s
wall time for grad    0.01 s
 E :    -45.34162915  G :  0.027615    pred/act E change: -0.818D-03 -0.480D-03
Maxdispl :   0.1501   ||displ|| :   0.3114   Lambda : -0.136D-02
Largest |displ|/coords:  0.1501 (   4)  0.1386 (   2)  0.0947 (  10)
................................................................................
.............................. CYCLE   24 ......................................
................................................................................
   1    -45.6185472 -0.456185E+02  0.171E-01    7.03       0.0  T
   2    -45.6185565 -0.928741E-05  0.127E-01    7.03       1.0  T
   3    -45.6185644 -0.791165E-05  0.223E-02    7.03       1.0  T
   4    -45.6185654 -0.101111E-05  0.795E-03    7.04       2.6  T
   5    -45.6185655 -0.895345E-07  0.260E-03    7.04       8.0  T
   6    -45.6185655 -0.716092E-08  0.146E-03    7.04      14.3  T
speedup  0.85
cpu  time for SCC    0.00 s
wall time for SCC    0.00 s
speedup  0.96
cpu  time for grad    0.01 s
wall time for grad    0.01 s
 E :    -45.34263877  G :  0.016427    pred/act E change: -0.776D-03 -0.101D-02
Maxdispl :   0.2665   ||displ|| :   0.5714   Lambda : -0.175D-02
Largest |displ|/coords:  0.2665 (  10)  0.2498 (   4)  0.2417 (   2)
................................................................................
.............................. CYCLE   25 ......................................
................................................................................
   1    -45.6087140 -0.456087E+02  0.336E-01    6.87       0.0  T
   2    -45.6087416 -0.275418E-04  0.248E-01    6.88       1.0  T
   3    -45.6087660 -0.244358E-04  0.415E-02    6.90       1.0  T
   4    -45.6087687 -0.272463E-05  0.123E-02    6.89       1.7  T
   5    -45.6087689 -0.203569E-06  0.481E-03    6.89       4.3  T
   6    -45.6087690 -0.313044E-07  0.229E-03    6.89       9.1  T
   7    -45.6087690 -0.101859E-07  0.800E-04    6.89      26.1  T
speedup  0.94
cpu  time for SCC    0.00 s
wall time for SCC    0.01 s
speedup  0.98
cpu  time for grad    0.01 s
wall time for grad    0.01 s
 E :    -45.34349544  G :  0.026523    pred/act E change: -0.744D-03 -0.857D-03
Maxdispl :   0.1514   ||displ|| :   0.3617   Lambda : -0.164D-02
Largest |displ|/coords:  0.1514 (   9)  0.1503 (   2)  0.1001 (  11)

generating ANC from model Hessian ...
 Shifting diagonal of input Hessian by   4.787725864487833E-003
 Lowest  eigenvalues of input Hessian
   -0.000000   -0.000000    0.000000    0.000000    0.000000    0.000000
    0.005000    0.005077    0.005241    0.005924    0.006134    0.006295
    0.006533    0.006918    0.007425    0.007537    0.007817    0.008353
 Highest eigenvalues
    1.399457    1.406012    1.428379    2.401525    3.310471    3.955010
 
cpu  time for ANC gen    0.01 s
wall time for ANC gen    0.01 s
................................................................................
.............................. CYCLE   26 ......................................
................................................................................
   1    -45.6133197 -0.456133E+02  0.193E-01    6.92       0.0  T
   2    -45.6133351 -0.154738E-04  0.142E-01    6.93       1.0  T
   3    -45.6133489 -0.137182E-04  0.304E-02    6.95       1.0  T
   4    -45.6133505 -0.160752E-05  0.114E-02    6.95       1.8  T
   5    -45.6133506 -0.181884E-06  0.323E-03    6.95       6.5  T
   6    -45.6133507 -0.118305E-07  0.188E-03    6.95      11.1  T
   7    -45.6133507 -0.408822E-08  0.504E-04    6.95      41.3  T
   8    -45.6133507 -0.600835E-09  0.105E-04    6.95     198.1  T
speedup  0.97
cpu  time for SCC    0.01 s
wall time for SCC    0.01 s
speedup  0.98
cpu  time for grad    0.01 s
wall time for grad    0.01 s
 E :    -45.34416944  G :  0.026107    pred/act E change:  0.000D+00 -0.674D-03
Maxdispl :   0.1385   ||displ|| :   0.3433   Lambda : -0.183D-02
Largest |displ|/coords:  0.1385 (  11)  0.1159 (   4)  0.1151 (   7)
................................................................................
.............................. CYCLE   27 ......................................
................................................................................
   1    -45.6109421 -0.456109E+02  0.492E-01    6.95       0.0  T
   2    -45.6109728 -0.307613E-04  0.375E-01    6.95       1.0  T
   3    -45.6110072 -0.343559E-04  0.249E-02    6.96       1.0  T
   4    -45.6110093 -0.215495E-05  0.937E-03    6.96       2.2  T
   5    -45.6110094 -0.968022E-07  0.362E-03    6.96       5.8  T
   6    -45.6110094 -0.318774E-08  0.161E-03    6.96      12.9  T
speedup  1.09
cpu  time for SCC    0.00 s
wall time for SCC    0.00 s
speedup  0.97
cpu  time for grad    0.01 s
wall time for grad    0.01 s
 E :    -45.34488783  G :  0.026736    pred/act E change:  0.000D+00 -0.718D-03
Maxdispl :   0.1583   ||displ|| :   0.3773   Lambda : -0.248D-02
Largest |displ|/coords:  0.1583 (   9)  0.1355 (   7)  0.1327 (  11)
................................................................................
.............................. CYCLE   28 ......................................
................................................................................
   1    -45.6146865 -0.456147E+02  0.439E-01    6.88       0.0  T
   2    -45.6147281 -0.415962E-04  0.332E-01    6.89       1.0  T
   3    -45.6147595 -0.313905E-04  0.399E-02    6.90       1.0  T
   4    -45.6147655 -0.597758E-05  0.110E-02    6.89       1.9  T
   5    -45.6147657 -0.183219E-06  0.448E-03    6.89       4.7  T
   6    -45.6147657 -0.578196E-08  0.217E-03    6.89       9.6  T
speedup  1.09
cpu  time for SCC    0.00 s
wall time for SCC    0.00 s
speedup  0.98
cpu  time for grad    0.01 s
wall time for grad    0.01 s
 E :    -45.34532524  G :  0.024646    pred/act E change: -0.102D-02 -0.437D-03
Maxdispl :   0.0719   ||displ|| :   0.1942   Lambda : -0.106D-02
Largest |displ|/coords:  0.0719 (  14)  0.0675 (   4)  0.0675 (  10)
................................................................................
.............................. CYCLE   29 ......................................
................................................................................
   1    -45.6170284 -0.456170E+02  0.188E-01    6.90       0.0  T
   2    -45.6170376 -0.923454E-05  0.142E-01    6.89       1.0  T
   3    -45.6170450 -0.739243E-05  0.180E-02    6.87       1.2  T
   4    -45.6170463 -0.125227E-05  0.475E-03    6.88       4.4  T
   5    -45.6170463 -0.263354E-07  0.225E-03    6.88       9.2  T
speedup  1.03
cpu  time for SCC    0.00 s
wall time for SCC    0.00 s
speedup  0.95
cpu  time for grad    0.01 s
wall time for grad    0.01 s
 E :    -45.34594384  G :  0.008460    pred/act E change: -0.142D-02 -0.619D-03
Maxdispl :   0.1370   ||displ|| :   0.3183   Lambda : -0.758D-03
Largest |displ|/coords:  0.1370 (   4)  0.1207 (   2)  0.1207 (   3)
................................................................................
.............................. CYCLE   30 ......................................
................................................................................
   1    -45.6135162 -0.456135E+02  0.347E-01    6.92       0.0  T
   2    -45.6135332 -0.169250E-04  0.264E-01    6.91       1.0  T
   3    -45.6135525 -0.193595E-04  0.213E-02    6.91       1.0  T
   4    -45.6135537 -0.113258E-05  0.599E-03    6.91       3.5  T
   5    -45.6135537 -0.262665E-07  0.290E-03    6.91       7.2  T
   6    -45.6135537 -0.119442E-07  0.122E-03    6.91      17.1  T
speedup  1.06
cpu  time for SCC    0.00 s
wall time for SCC    0.00 s
speedup  1.06
cpu  time for grad    0.01 s
wall time for grad    0.01 s
 E :    -45.34620790  G :  0.019780    pred/act E change: -0.551D-03 -0.264D-03
Maxdispl :   0.1557   ||displ|| :   0.2605   Lambda : -0.712D-03
Largest |displ|/coords:  0.1557 (   3)  0.1036 (   1)  0.0793 (  13)
................................................................................
.............................. CYCLE   31 ......................................
................................................................................
   1    -45.6157116 -0.456157E+02  0.191E-01    6.87       0.0  T
   2    -45.6157181 -0.645521E-05  0.144E-01    6.87       1.0  T
   3    -45.6157239 -0.584773E-05  0.179E-02    6.86       1.2  T
   4    -45.6157246 -0.677796E-06  0.704E-03    6.86       3.0  T
   5    -45.6157246 -0.482278E-07  0.188E-03    6.86      11.1  T
   6    -45.6157246 -0.274196E-08  0.110E-03    6.86      18.9  T
speedup  1.06
cpu  time for SCC    0.00 s
wall time for SCC    0.00 s
speedup  0.97
cpu  time for grad    0.01 s
wall time for grad    0.01 s
 E :    -45.34662578  G :  0.010718    pred/act E change: -0.417D-03 -0.418D-03
Maxdispl :   0.1629   ||displ|| :   0.3412   Lambda : -0.638D-03
Largest |displ|/coords:  0.1629 (   4)  0.1408 (   3)  0.1202 (   2)
................................................................................
.............................. CYCLE   32 ......................................
................................................................................
   1    -45.6172743 -0.456173E+02  0.189E-01    6.82       0.0  T
   2    -45.6172788 -0.449230E-05  0.141E-01    6.82       1.0  T
   3    -45.6172817 -0.286552E-05  0.147E-02    6.82       1.4  T
   4    -45.6172823 -0.623724E-06  0.643E-03    6.82       3.2  T
   5    -45.6172823 -0.403542E-07  0.158E-03    6.82      13.2  T
   6    -45.6172823 -0.237724E-08  0.894E-04    6.82      23.3  T
speedup  1.06
cpu  time for SCC    0.01 s
wall time for SCC    0.00 s
speedup  1.03
cpu  time for grad    0.01 s
wall time for grad    0.01 s
 E :    -45.34697553  G :  0.010028    pred/act E change: -0.380D-03 -0.350D-03
Maxdispl :   0.2355   ||displ|| :   0.4258   Lambda : -0.572D-03
Largest |displ|/coords:  0.2355 (   3)  0.1514 (   2)  0.1458 (   4)
................................................................................
.............................. CYCLE   33 ......................................
................................................................................
   1    -45.6176934 -0.456177E+02  0.252E-01    6.81       0.0  T
   2    -45.6177037 -0.103128E-04  0.191E-01    6.81       1.0  T
   3    -45.6177143 -0.106032E-04  0.196E-02    6.80       1.1  T
   4    -45.6177153 -0.932432E-06  0.750E-03    6.81       2.8  T
   5    -45.6177153 -0.486297E-07  0.246E-03    6.81       8.5  T
   6    -45.6177153 -0.689171E-08  0.139E-03    6.81      15.1  T
speedup  0.85
cpu  time for SCC    0.00 s
wall time for SCC    0.00 s
speedup  0.97
cpu  time for grad    0.01 s
wall time for grad    0.01 s
 E :    -45.34727249  G :  0.012247    pred/act E change: -0.356D-03 -0.297D-03
Maxdispl :   0.2165   ||displ|| :   0.4369   Lambda : -0.577D-03
Largest |displ|/coords:  0.2165 (   3)  0.2056 (   4)  0.1419 (   2)
................................................................................
.............................. CYCLE   34 ......................................
................................................................................
   1    -45.6122860 -0.456123E+02  0.295E-01    6.77       0.0  T
   2    -45.6123045 -0.185337E-04  0.222E-01    6.77       1.0  T
   3    -45.6123189 -0.144106E-04  0.266E-02    6.77       1.0  T
   4    -45.6123213 -0.238500E-05  0.903E-03    6.77       2.3  T
   5    -45.6123214 -0.103051E-06  0.298E-03    6.77       7.0  T
   6    -45.6123214 -0.764361E-08  0.171E-03    6.77      12.2  T
speedup  0.87
cpu  time for SCC    0.00 s
wall time for SCC    0.00 s
speedup  0.97
cpu  time for grad    0.01 s
wall time for grad    0.01 s
 E :    -45.34735494  G :  0.021869    pred/act E change: -0.338D-03 -0.825D-04
Maxdispl :   0.0832   ||displ|| :   0.1403   Lambda : -0.595D-03
Largest |displ|/coords:  0.0832 (  13)  0.0527 (   4)  0.0437 (   2)
................................................................................
.............................. CYCLE   35 ......................................
................................................................................
   1    -45.6193223 -0.456193E+02  0.126E-01    6.81       0.0  T
   2    -45.6193299 -0.761555E-05  0.936E-02    6.81       1.0  T
   3    -45.6193342 -0.428829E-05  0.180E-02    6.81       1.2  T
   4    -45.6193351 -0.916908E-06  0.649E-03    6.81       3.2  T
   5    -45.6193352 -0.844054E-07  0.173E-03    6.81      12.0  T
   6    -45.6193352 -0.240343E-08  0.983E-04    6.81      21.2  T
speedup  0.87
cpu  time for SCC    0.00 s
wall time for SCC    0.00 s
speedup  0.97
cpu  time for grad    0.01 s
wall time for grad    0.01 s
 E :    -45.34764517  G :  0.008874    pred/act E change: -0.343D-03 -0.290D-03
Maxdispl :   0.1196   ||displ|| :   0.2245   Lambda : -0.276D-03
Largest |displ|/coords:  0.1196 (   3)  0.0948 (   1)  0.0754 (   4)
................................................................................
.............................. CYCLE   36 ......................................
................................................................................
   1    -45.6179427 -0.456179E+02  0.135E-01    6.76       0.0  T
   2    -45.6179463 -0.356916E-05  0.101E-01    6.76       1.0  T
   3    -45.6179492 -0.296311E-05  0.115E-02    6.75       1.8  T
   4    -45.6179497 -0.432817E-06  0.454E-03    6.75       4.6  T
   5    -45.6179497 -0.224566E-07  0.149E-03    6.75      14.0  T
   6    -45.6179497 -0.247269E-08  0.883E-04    6.75      23.6  T
speedup  0.87
cpu  time for SCC    0.00 s
wall time for SCC    0.00 s
speedup  0.98
cpu  time for grad    0.01 s
wall time for grad    0.01 s
 E :    -45.34776043  G :  0.009167    pred/act E change: -0.304D-03 -0.115D-03
Maxdispl :   0.1453   ||displ|| :   0.2624   Lambda : -0.258D-03
Largest |displ|/coords:  0.1453 (   1)  0.1249 (   3)  0.0915 (   4)
................................................................................
.............................. CYCLE   37 ......................................
................................................................................
   1    -45.6176608 -0.456177E+02  0.151E-01    6.73       0.0  T
   2    -45.6176645 -0.375119E-05  0.114E-01    6.73       1.0  T
   3    -45.6176677 -0.319995E-05  0.136E-02    6.73       1.5  T
   4    -45.6176681 -0.393395E-06  0.612E-03    6.73       3.4  T
   5    -45.6176681 -0.249977E-07  0.117E-03    6.73      17.8  T
   6    -45.6176681 -0.168410E-08  0.746E-04    6.73      27.9  T
speedup  0.85
cpu  time for SCC    0.00 s
wall time for SCC    0.00 s
speedup  0.96
cpu  time for grad    0.01 s
wall time for grad    0.01 s
 E :    -45.34795156  G :  0.005429    pred/act E change: -0.145D-03 -0.191D-03
Maxdispl :   0.2215   ||displ|| :   0.4085   Lambda : -0.276D-03
Largest |displ|/coords:  0.2215 (   1)  0.1851 (   3)  0.1289 (   4)
................................................................................
.............................. CYCLE   38 ......................................
................................................................................
   1    -45.6168905 -0.456169E+02  0.239E-01    6.71       0.0  T
   2    -45.6169007 -0.101491E-04  0.179E-01    6.70       1.0  T
   3    -45.6169089 -0.826263E-05  0.220E-02    6.70       1.0  T
   4    -45.6169101 -0.117743E-05  0.793E-03    6.70       2.6  T
   5    -45.6169102 -0.564858E-07  0.218E-03    6.70       9.6  T
   6    -45.6169102 -0.650734E-08  0.132E-03    6.70      15.8  T
speedup  1.06
cpu  time for SCC    0.00 s
wall time for SCC    0.00 s
speedup  0.96
cpu  time for grad    0.01 s
wall time for grad    0.01 s
 E :    -45.34800743  G :  0.014091    pred/act E change: -0.138D-03 -0.559D-04
Maxdispl :   0.0545   ||displ|| :   0.0984   Lambda : -0.228D-03
Largest |displ|/coords:  0.0545 (   6)  0.0397 (   5)  0.0343 (   1)
................................................................................
.............................. CYCLE   39 ......................................
................................................................................
   1    -45.6173003 -0.456173E+02  0.718E-02    6.71       0.0  T
   2    -45.6173026 -0.228591E-05  0.532E-02    6.71       1.0  T
   3    -45.6173038 -0.122736E-05  0.931E-03    6.71       2.2  T
   4    -45.6173041 -0.300882E-06  0.306E-03    6.71       6.8  T
   5    -45.6173041 -0.198211E-07  0.102E-03    6.71      20.4  T
   6    -45.6173041 -0.102571E-08  0.525E-04    6.71      39.7  T
speedup  1.09
cpu  time for SCC    0.00 s
wall time for SCC    0.00 s
speedup  1.06
cpu  time for grad    0.01 s
wall time for grad    0.01 s
 E :    -45.34813046  G :  0.006313    pred/act E change: -0.161D-03 -0.123D-03
Maxdispl :   0.0422   ||displ|| :   0.0707   Lambda : -0.793D-04
Largest |displ|/coords:  0.0422 (   1)  0.0300 (   5)  0.0201 (  16)
................................................................................
.............................. CYCLE   40 ......................................
................................................................................
   1    -45.6187150 -0.456187E+02  0.453E-02    6.72       0.0  T
   2    -45.6187155 -0.502877E-06  0.338E-02    6.72       1.0  T
   3    -45.6187158 -0.285867E-06  0.479E-03    6.71       4.4  T
   4    -45.6187159 -0.725921E-07  0.155E-03    6.72      13.5  T
   5    -45.6187159 -0.319371E-08  0.406E-04    6.72      51.3  T
speedup  1.19
cpu  time for SCC    0.00 s
wall time for SCC    0.00 s
speedup  1.00
cpu  time for grad    0.01 s
wall time for grad    0.01 s
 E :    -45.34818722  G :  0.004804    pred/act E change: -0.115D-03 -0.568D-04
Maxdispl :   0.1503   ||displ|| :   0.2817   Lambda : -0.188D-03
Largest |displ|/coords:  0.1503 (   1)  0.0898 (   7)  0.0884 (   2)
................................................................................
.............................. CYCLE   41 ......................................
................................................................................
   1    -45.6186558 -0.456187E+02  0.174E-01    6.72       0.0  T
   2    -45.6186592 -0.340586E-05  0.130E-01    6.72       1.0  T
   3    -45.6186623 -0.312207E-05  0.138E-02    6.72       1.5  T
   4    -45.6186627 -0.323116E-06  0.407E-03    6.71       5.1  T
   5    -45.6186627 -0.188637E-07  0.150E-03    6.71      13.9  T
   6    -45.6186627 -0.239276E-08  0.867E-04    6.71      24.1  T
speedup  1.09
cpu  time for SCC    0.00 s
wall time for SCC    0.00 s
speedup  0.98
cpu  time for grad    0.01 s
wall time for grad    0.01 s
 E :    -45.34827869  G :  0.007232    pred/act E change: -0.398D-04 -0.915D-04
Maxdispl :   0.1270   ||displ|| :   0.2005   Lambda : -0.143D-03
Largest |displ|/coords:  0.1270 (   1)  0.0866 (   5)  0.0447 (   7)
................................................................................
.............................. CYCLE   42 ......................................
................................................................................
   1    -45.6199484 -0.456199E+02  0.120E-01    6.76       0.0  T
   2    -45.6199507 -0.233681E-05  0.897E-02    6.75       1.0  T
   3    -45.6199527 -0.196090E-05  0.113E-02    6.74       1.8  T
   4    -45.6199529 -0.262415E-06  0.341E-03    6.74       6.1  T
   5    -45.6199529 -0.149728E-07  0.123E-03    6.74      16.9  T
   6    -45.6199529 -0.158985E-08  0.637E-04    6.74      32.7  T
speedup  1.09
cpu  time for SCC    0.00 s
wall time for SCC    0.00 s
speedup  0.97
cpu  time for grad    0.01 s
wall time for grad    0.01 s
 E :    -45.34834227  G :  0.006579    pred/act E change: -0.102D-03 -0.636D-04
Maxdispl :   0.0985   ||displ|| :   0.1389   Lambda : -0.864D-04
Largest |displ|/coords:  0.0985 (   1)  0.0533 (   2)  0.0437 (   6)
................................................................................
.............................. CYCLE   43 ......................................
................................................................................
   1    -45.6194296 -0.456194E+02  0.780E-02    6.72       0.0  T
   2    -45.6194308 -0.124857E-05  0.585E-02    6.73       1.0  T
   3    -45.6194318 -0.101989E-05  0.792E-03    6.73       2.6  T
   4    -45.6194320 -0.152846E-06  0.295E-03    6.73       7.1  T
   5    -45.6194320 -0.982221E-08  0.784E-04    6.73      26.6  T
speedup  1.03
cpu  time for SCC    0.00 s
wall time for SCC    0.00 s
speedup  1.04
cpu  time for grad    0.01 s
wall time for grad    0.01 s
 E :    -45.34839332  G :  0.004418    pred/act E change: -0.743D-04 -0.510D-04
Maxdispl :   0.1081   ||displ|| :   0.1808   Lambda : -0.105D-03
Largest |displ|/coords:  0.1081 (   1)  0.0811 (   2)  0.0714 (   7)
................................................................................
.............................. CYCLE   44 ......................................
................................................................................
   1    -45.6190559 -0.456191E+02  0.106E-01    6.72       0.0  T
   2    -45.6190579 -0.204023E-05  0.798E-02    6.72       1.0  T
   3    -45.6190589 -0.925212E-06  0.101E-02    6.73       2.1  T
   4    -45.6190593 -0.393134E-06  0.314E-03    6.73       6.6  T
   5    -45.6190593 -0.152691E-07  0.983E-04    6.72      21.2  T
   6    -45.6190593 -0.101563E-08  0.561E-04    6.72      37.2  T
speedup  0.87
cpu  time for SCC    0.00 s
wall time for SCC    0.00 s
speedup  0.96
cpu  time for grad    0.01 s
wall time for grad    0.01 s
 E :    -45.34846690  G :  0.004350    pred/act E change: -0.440D-04 -0.736D-04
Maxdispl :   0.2210   ||displ|| :   0.3430   Lambda : -0.114D-03
Largest |displ|/coords:  0.2210 (   1)  0.1487 (   2)  0.1158 (   7)
................................................................................
.............................. CYCLE   45 ......................................
................................................................................
   1    -45.6176075 -0.456176E+02  0.194E-01    6.70       0.0  T
   2    -45.6176122 -0.473269E-05  0.145E-01    6.71       1.0  T
   3    -45.6176157 -0.345378E-05  0.157E-02    6.71       1.3  T
   4    -45.6176164 -0.749580E-06  0.581E-03    6.71       3.6  T
   5    -45.6176164 -0.312889E-07  0.181E-03    6.71      11.5  T
   6    -45.6176164 -0.358417E-08  0.103E-03    6.71      20.2  T
speedup  1.06
cpu  time for SCC    0.01 s
wall time for SCC    0.00 s
speedup  0.96
cpu  time for grad    0.01 s
wall time for grad    0.01 s
 E :    -45.34852477  G :  0.006983    pred/act E change: -0.543D-04 -0.579D-04
Maxdispl :   0.0828   ||displ|| :   0.1816   Lambda : -0.109D-03
Largest |displ|/coords:  0.0828 (   3)  0.0764 (   1)  0.0724 (   2)
................................................................................
.............................. CYCLE   46 ......................................
................................................................................
   1    -45.6207129 -0.456207E+02  0.142E-01    6.75       0.0  T
   2    -45.6207157 -0.281086E-05  0.107E-01    6.74       1.0  T
   3    -45.6207173 -0.157037E-05  0.109E-02    6.74       1.9  T
   4    -45.6207177 -0.476646E-06  0.466E-03    6.74       4.5  T
   5    -45.6207178 -0.198497E-07  0.117E-03    6.74      17.8  T
   6    -45.6207178 -0.103580E-08  0.635E-04    6.74      32.8  T
speedup  1.09
cpu  time for SCC    0.01 s
wall time for SCC    0.00 s
speedup  0.96
cpu  time for grad    0.01 s
wall time for grad    0.01 s
 E :    -45.34854018  G :  0.008332    pred/act E change: -0.635D-04 -0.154D-04
Maxdispl :   0.0982   ||displ|| :   0.1631   Lambda : -0.113D-03
Largest |displ|/coords:  0.0982 (   1)  0.0609 (   2)  0.0538 (   4)
................................................................................
.............................. CYCLE   47 ......................................
................................................................................
   1    -45.6193399 -0.456193E+02  0.892E-02    6.70       0.0  T
   2    -45.6193414 -0.156480E-05  0.668E-02    6.70       1.0  T
   3    -45.6193427 -0.124815E-05  0.835E-03    6.70       2.5  T
   4    -45.6193429 -0.184969E-06  0.325E-03    6.70       6.4  T
   5    -45.6193429 -0.114333E-07  0.900E-04    6.70      23.2  T
   6    -45.6193429 -0.107703E-08  0.580E-04    6.70      36.0  T
speedup  1.11
cpu  time for SCC    0.00 s
wall time for SCC    0.00 s
speedup  0.98
cpu  time for grad    0.01 s
wall time for grad    0.01 s
 E :    -45.34860212  G :  0.004789    pred/act E change: -0.565D-04 -0.619D-04
Maxdispl :   0.1112   ||displ|| :   0.1590   Lambda : -0.713D-04
Largest |displ|/coords:  0.1112 (   2)  0.0826 (   1)  0.0345 (   7)
................................................................................
.............................. CYCLE   48 ......................................
................................................................................
   1    -45.6181432 -0.456181E+02  0.948E-02    6.69       0.0  T
   2    -45.6181445 -0.122663E-05  0.712E-02    6.69       1.0  T
   3    -45.6181458 -0.135314E-05  0.706E-03    6.70       3.0  T
   4    -45.6181459 -0.108432E-06  0.323E-03    6.69       6.4  T
   5    -45.6181459 -0.115501E-07  0.970E-04    6.69      21.5  T
   6    -45.6181459 -0.102353E-08  0.597E-04    6.69      34.9  T
speedup  1.04
cpu  time for SCC    0.00 s
wall time for SCC    0.00 s
speedup  1.04
cpu  time for grad    0.01 s
wall time for grad    0.01 s
 E :    -45.34863904  G :  0.005306    pred/act E change: -0.578D-04 -0.369D-04
Maxdispl :   0.0913   ||displ|| :   0.1238   Lambda : -0.584D-04
Largest |displ|/coords:  0.0913 (   2)  0.0426 (   1)  0.0248 (  13)
................................................................................
.............................. CYCLE   49 ......................................
................................................................................
   1    -45.6192589 -0.456193E+02  0.734E-02    6.72       0.0  T
   2    -45.6192596 -0.701077E-06  0.552E-02    6.72       1.0  T
   3    -45.6192602 -0.584901E-06  0.549E-03    6.72       3.8  T
   4    -45.6192603 -0.940037E-07  0.239E-03    6.72       8.7  T
   5    -45.6192603 -0.703710E-08  0.691E-04    6.72      30.2  T
speedup  1.00
cpu  time for SCC    0.00 s
wall time for SCC    0.00 s
speedup  1.03
cpu  time for grad    0.01 s
wall time for grad    0.01 s
 E :    -45.34867968  G :  0.004032    pred/act E change: -0.366D-04 -0.406D-04
Maxdispl :   0.2849   ||displ|| :   0.4060   Lambda : -0.958D-04
Largest |displ|/coords:  0.2849 (   2)  0.2144 (   1)  0.0935 (   7)
................................................................................
.............................. CYCLE   50 ......................................
................................................................................
   1    -45.6171180 -0.456171E+02  0.235E-01    6.70       0.0  T
   2    -45.6171221 -0.409059E-05  0.177E-01    6.70       1.0  T
   3    -45.6171269 -0.484771E-05  0.132E-02    6.69       1.6  T
   4    -45.6171272 -0.279831E-06  0.504E-03    6.69       4.1  T
   5    -45.6171272 -0.294761E-07  0.202E-03    6.69      10.3  T
   6    -45.6171272 -0.457586E-08  0.107E-03    6.69      19.4  T
speedup  0.85
cpu  time for SCC    0.00 s
wall time for SCC    0.00 s
speedup  0.96
cpu  time for grad    0.01 s
wall time for grad    0.01 s
 E :    -45.34869532  G :  0.009562    pred/act E change: -0.296D-04 -0.156D-04
Maxdispl :   0.0540   ||displ|| :   0.1198   Lambda : -0.156D-03
Largest |displ|/coords:  0.0540 (   2)  0.0505 (   7)  0.0446 (  13)
................................................................................
.............................. CYCLE   51 ......................................
................................................................................
   1    -45.6208389 -0.456208E+02  0.753E-02    6.73       0.0  T
   2    -45.6208423 -0.347323E-05  0.558E-02    6.73       1.0  T
   3    -45.6208443 -0.200982E-05  0.121E-02    6.72       1.7  T
   4    -45.6208447 -0.360665E-06  0.422E-03    6.73       4.9  T
   5    -45.6208447 -0.260768E-07  0.100E-03    6.73      20.8  T
   6    -45.6208447 -0.873733E-09  0.568E-04    6.73      36.7  T
speedup  1.09
cpu  time for SCC    0.01 s
wall time for SCC    0.00 s
speedup  0.96
cpu  time for grad    0.01 s
wall time for grad    0.01 s
 E :    -45.34867428  G :  0.010020    pred/act E change: -0.558D-04  0.210D-04
Maxdispl :   0.0364   ||displ|| :   0.0831   Lambda : -0.182D-03
Largest |displ|/coords:  0.0364 (   2)  0.0336 (  13)  0.0284 (   4)
................................................................................
.............................. CYCLE   52 ......................................
................................................................................
   1    -45.6207503 -0.456208E+02  0.603E-02    6.75       0.0  T
   2    -45.6207522 -0.189155E-05  0.447E-02    6.75       1.0  T
   3    -45.6207536 -0.138820E-05  0.981E-03    6.75       2.1  T
   4    -45.6207538 -0.195316E-06  0.344E-03    6.75       6.1  T
   5    -45.6207538 -0.165942E-07  0.885E-04    6.75      23.6  T
   6    -45.6207538 -0.755826E-09  0.514E-04    6.75      40.5  T
speedup  1.06
cpu  time for SCC    0.01 s
wall time for SCC    0.00 s
speedup  0.96
cpu  time for grad    0.01 s
wall time for grad    0.01 s
 E :    -45.34874282  G :  0.005240    pred/act E change: -0.790D-04 -0.685D-04
Maxdispl :   0.0983   ||displ|| :   0.1688   Lambda : -0.650D-04
Largest |displ|/coords:  0.0983 (   2)  0.0955 (   1)  0.0387 (   5)

generating ANC from model Hessian ...
 Shifting diagonal of input Hessian by   5.159449817733568E-003
 Lowest  eigenvalues of input Hessian
    0.005000   -0.000000   -0.000000   -0.000000    0.000000    0.000000
    0.000000    0.005407    0.005538    0.005797    0.006363    0.006485
    0.006869    0.007209    0.008151    0.008468    0.008616    0.009617
 Highest eigenvalues
    1.396035    1.401561    1.421219    2.296499    3.263693    3.947764
 
cpu  time for ANC gen    0.01 s
wall time for ANC gen    0.01 s
................................................................................
.............................. CYCLE   53 ......................................
................................................................................
   1    -45.6185354 -0.456185E+02  0.946E-02    6.72       0.0  T
   2    -45.6185367 -0.127633E-05  0.711E-02    6.72       1.0  T
   3    -45.6185380 -0.128193E-05  0.796E-03    6.72       2.6  T
   4    -45.6185381 -0.122184E-06  0.301E-03    6.72       6.9  T
   5    -45.6185381 -0.998344E-08  0.899E-04    6.72      23.2  T
   6    -45.6185381 -0.785498E-09  0.540E-04    6.72      38.6  T
speedup  1.06
cpu  time for SCC    0.01 s
wall time for SCC    0.00 s
speedup  1.02
cpu  time for grad    0.01 s
wall time for grad    0.01 s
 E :    -45.34876289  G :  0.005202    pred/act E change:  0.000D+00 -0.201D-04
Maxdispl :   0.0353   ||displ|| :   0.0726   Lambda : -0.714D-04
Largest |displ|/coords:  0.0353 (   4)  0.0265 (  10)  0.0263 (   5)
................................................................................
.............................. CYCLE   54 ......................................
................................................................................
   1    -45.6195634 -0.456196E+02  0.754E-02    6.71       0.0  T
   2    -45.6195643 -0.830725E-06  0.573E-02    6.70       1.0  T
   3    -45.6195653 -0.105839E-05  0.483E-03    6.70       4.3  T
   4    -45.6195654 -0.517238E-07  0.188E-03    6.70      11.1  T
   5    -45.6195654 -0.370612E-08  0.686E-04    6.70      30.4  T
speedup  1.03
cpu  time for SCC    0.00 s
wall time for SCC    0.00 s
speedup  1.03
cpu  time for grad    0.01 s
wall time for grad    0.01 s
 E :    -45.34880578  G :  0.002239    pred/act E change:  0.000D+00 -0.429D-04
Maxdispl :   0.0548   ||displ|| :   0.0980   Lambda : -0.568D-04
Largest |displ|/coords:  0.0548 (   4)  0.0407 (  18)  0.0297 (   3)
................................................................................
.............................. CYCLE   55 ......................................
................................................................................
   1    -45.6205346 -0.456205E+02  0.935E-02    6.72       0.0  T
   2    -45.6205356 -0.947140E-06  0.706E-02    6.72       1.0  T
   3    -45.6205365 -0.950441E-06  0.592E-03    6.72       3.5  T
   4    -45.6205366 -0.102865E-06  0.217E-03    6.72       9.6  T
   5    -45.6205366 -0.508675E-08  0.886E-04    6.72      23.5  T
   6    -45.6205366 -0.827946E-09  0.436E-04    6.72      47.9  T
speedup  1.04
cpu  time for SCC    0.00 s
wall time for SCC    0.00 s
speedup  1.00
cpu  time for grad    0.01 s
wall time for grad    0.01 s
 E :    -45.34882256  G :  0.002732    pred/act E change: -0.359D-04 -0.168D-04
Maxdispl :   0.0435   ||displ|| :   0.0690   Lambda : -0.368D-04
Largest |displ|/coords:  0.0435 (   4)  0.0332 (   3)  0.0322 (   5)
................................................................................
.............................. CYCLE   56 ......................................
................................................................................
   1    -45.6204104 -0.456204E+02  0.787E-02    6.71       0.0  T
   2    -45.6204110 -0.614696E-06  0.599E-02    6.71       1.0  T
   3    -45.6204118 -0.789148E-06  0.342E-03    6.70       6.1  T
   4    -45.6204118 -0.222399E-07  0.143E-03    6.70      14.6  T
   5    -45.6204118 -0.145770E-08  0.498E-04    6.71      41.9  T
   6    -45.6204118 -0.206221E-09  0.214E-04    6.71      97.3  T
speedup  1.09
cpu  time for SCC    0.01 s
wall time for SCC    0.00 s
speedup  1.03
cpu  time for grad    0.01 s
wall time for grad    0.01 s
 E :    -45.34884702  G :  0.001860    pred/act E change: -0.287D-04 -0.245D-04
Maxdispl :   0.0845   ||displ|| :   0.1220   Lambda : -0.343D-04
Largest |displ|/coords:  0.0845 (   4)  0.0563 (   3)  0.0360 (   5)
................................................................................
.............................. CYCLE   57 ......................................
................................................................................
   1    -45.6199874 -0.456200E+02  0.953E-02    6.70       0.0  T
   2    -45.6199880 -0.612051E-06  0.720E-02    6.70       1.0  T
   3    -45.6199888 -0.751846E-06  0.464E-03    6.69       4.5  T
   4    -45.6199888 -0.338427E-07  0.185E-03    6.69      11.3  T
   5    -45.6199888 -0.294875E-08  0.680E-04    6.69      30.7  T
   6    -45.6199888 -0.402878E-09  0.310E-04    6.69      67.2  T
speedup  1.09
cpu  time for SCC    0.00 s
wall time for SCC    0.00 s
speedup  1.02
cpu  time for grad    0.01 s
wall time for grad    0.01 s
 E :    -45.34886633  G :  0.002491    pred/act E change: -0.185D-04 -0.193D-04
Maxdispl :   0.0641   ||displ|| :   0.1003   Lambda : -0.223D-04
Largest |displ|/coords:  0.0641 (   4)  0.0526 (   3)  0.0330 (   1)
................................................................................
.............................. CYCLE   58 ......................................
................................................................................
   1    -45.6200493 -0.456200E+02  0.542E-02    6.70       0.0  T
   2    -45.6200496 -0.251665E-06  0.407E-02    6.70       1.0  T
   3    -45.6200498 -0.258015E-06  0.332E-03    6.70       6.3  T
   4    -45.6200499 -0.265055E-07  0.111E-03    6.70      18.8  T
   5    -45.6200499 -0.167810E-08  0.484E-04    6.70      43.1  T
   6    -45.6200499 -0.350809E-09  0.247E-04    6.70      84.4  T
speedup  1.09
cpu  time for SCC    0.00 s
wall time for SCC    0.00 s
speedup  1.02
cpu  time for grad    0.01 s
wall time for grad    0.01 s
 E :    -45.34888431  G :  0.002061    pred/act E change: -0.174D-04 -0.180D-04
Maxdispl :   0.1406   ||displ|| :   0.2338   Lambda : -0.449D-04
Largest |displ|/coords:  0.1406 (   4)  0.1281 (   3)  0.0782 (   1)
................................................................................
.............................. CYCLE   59 ......................................
................................................................................
   1    -45.6201681 -0.456202E+02  0.112E-01    6.71       0.0  T
   2    -45.6201693 -0.119309E-05  0.844E-02    6.71       1.0  T
   3    -45.6201706 -0.127904E-05  0.724E-03    6.71       2.9  T
   4    -45.6201707 -0.119895E-06  0.234E-03    6.71       8.9  T
   5    -45.6201707 -0.772712E-08  0.106E-03    6.71      19.6  T
   6    -45.6201707 -0.182275E-08  0.535E-04    6.71      39.0  T
   7    -45.6201707 -0.457170E-09  0.131E-04    6.71     158.9  T
speedup  0.93
cpu  time for SCC    0.00 s
wall time for SCC    0.01 s
speedup  0.95
cpu  time for grad    0.01 s
wall time for grad    0.01 s
 E :    -45.34891326  G :  0.002466    pred/act E change: -0.112D-04 -0.289D-04
Maxdispl :   0.1370   ||displ|| :   0.2267   Lambda : -0.309D-04
Largest |displ|/coords:  0.1370 (   3)  0.1327 (   4)  0.0621 (   1)
................................................................................
.............................. CYCLE   60 ......................................
................................................................................
   1    -45.6196492 -0.456196E+02  0.129E-01    6.70       0.0  T
   2    -45.6196503 -0.104943E-05  0.973E-02    6.70       1.0  T
   3    -45.6196516 -0.133027E-05  0.648E-03    6.70       3.2  T
   4    -45.6196517 -0.600998E-07  0.204E-03    6.70      10.2  T
   5    -45.6196517 -0.506981E-08  0.102E-03    6.70      20.5  T
   6    -45.6196517 -0.157164E-08  0.447E-04    6.70      46.6  T
   7    -45.6196517 -0.310230E-09  0.107E-04    6.70     194.7  T
speedup  1.11
cpu  time for SCC    0.01 s
wall time for SCC    0.01 s
speedup  1.04
cpu  time for grad    0.01 s
wall time for grad    0.01 s
 E :    -45.34892372  G :  0.005082    pred/act E change: -0.237D-04 -0.105D-04
Maxdispl :   0.0975   ||displ|| :   0.1678   Lambda : -0.632D-04
Largest |displ|/coords:  0.0975 (   3)  0.0592 (   4)  0.0565 (   1)
................................................................................
.............................. CYCLE   61 ......................................
................................................................................
   1    -45.6209561 -0.456210E+02  0.727E-02    6.71       0.0  T
   2    -45.6209571 -0.996646E-06  0.545E-02    6.71       1.0  T
   3    -45.6209580 -0.892166E-06  0.641E-03    6.71       3.3  T
   4    -45.6209581 -0.116739E-06  0.152E-03    6.71      13.7  T
   5    -45.6209581 -0.268020E-08  0.876E-04    6.71      23.8  T
speedup  1.03
cpu  time for SCC    0.00 s
wall time for SCC    0.00 s
speedup  0.94
cpu  time for grad    0.01 s
wall time for grad    0.01 s
 E :    -45.34894739  G :  0.002858    pred/act E change: -0.163D-04 -0.237D-04
Maxdispl :   0.0589   ||displ|| :   0.0841   Lambda : -0.309D-04
Largest |displ|/coords:  0.0589 (   3)  0.0367 (   4)  0.0244 (  12)
................................................................................
.............................. CYCLE   62 ......................................
................................................................................
   1    -45.6206548 -0.456207E+02  0.557E-02    6.71       0.0  T
   2    -45.6206550 -0.187108E-06  0.418E-02    6.71       1.0  T
   3    -45.6206551 -0.184157E-06  0.246E-03    6.71       8.5  T
   4    -45.6206552 -0.210609E-07  0.104E-03    6.71      20.0  T
   5    -45.6206552 -0.158796E-08  0.447E-04    6.71      46.7  T
   6    -45.6206552 -0.222720E-09  0.199E-04    6.71     104.9  T
speedup  1.09
cpu  time for SCC    0.00 s
wall time for SCC    0.00 s
speedup  1.01
cpu  time for grad    0.01 s
wall time for grad    0.01 s
 E :    -45.34896837  G :  0.001584    pred/act E change: -0.325D-04 -0.210D-04
Maxdispl :   0.0878   ||displ|| :   0.1175   Lambda : -0.207D-04
Largest |displ|/coords:  0.0878 (   3)  0.0463 (   4)  0.0307 (   1)
................................................................................
.............................. CYCLE   63 ......................................
................................................................................
   1    -45.6202506 -0.456203E+02  0.796E-02    6.70       0.0  T
   2    -45.6202510 -0.391505E-06  0.599E-02    6.70       1.0  T
   3    -45.6202515 -0.493753E-06  0.340E-03    6.70       6.1  T
   4    -45.6202515 -0.240895E-07  0.168E-03    6.70      12.4  T
   5    -45.6202515 -0.347158E-08  0.560E-04    6.70      37.2  T
   6    -45.6202515 -0.464098E-09  0.293E-04    6.70      71.2  T
speedup  1.09
cpu  time for SCC    0.00 s
wall time for SCC    0.00 s
speedup  1.02
cpu  time for grad    0.01 s
wall time for grad    0.01 s
 E :    -45.34897931  G :  0.003405    pred/act E change: -0.156D-04 -0.109D-04
Maxdispl :   0.0211   ||displ|| :   0.0340   Lambda : -0.115D-04
Largest |displ|/coords:  0.0211 (   3)  0.0112 (  11)  0.0106 (   5)
................................................................................
.............................. CYCLE   64 ......................................
................................................................................
   1    -45.6205265 -0.456205E+02  0.261E-02    6.70       0.0  T
   2    -45.6205266 -0.137984E-06  0.196E-02    6.70       1.1  T
   3    -45.6205267 -0.117748E-06  0.255E-03    6.70       8.2  T
   4    -45.6205267 -0.172017E-07  0.957E-04    6.70      21.8  T
   5    -45.6205267 -0.122235E-08  0.307E-04    6.70      68.0  T
speedup  1.03
cpu  time for SCC    0.00 s
wall time for SCC    0.00 s
speedup  0.99
cpu  time for grad    0.01 s
wall time for grad    0.01 s
 E :    -45.34898608  G :  0.002147    pred/act E change: -0.105D-04 -0.676D-05
Maxdispl :   0.0865   ||displ|| :   0.1142   Lambda : -0.111D-04
Largest |displ|/coords:  0.0865 (   3)  0.0518 (   4)  0.0347 (   1)
................................................................................
.............................. CYCLE   65 ......................................
................................................................................
   1    -45.6203819 -0.456204E+02  0.585E-02    6.70       0.0  T
   2    -45.6203821 -0.244403E-06  0.440E-02    6.70       1.0  T
   3    -45.6203824 -0.319226E-06  0.276E-03    6.70       7.6  T
   4    -45.6203824 -0.162743E-07  0.112E-03    6.70      18.5  T
   5    -45.6203824 -0.167729E-08  0.496E-04    6.70      42.0  T
   6    -45.6203824 -0.468681E-09  0.222E-04    6.70      94.1  T
speedup  1.09
cpu  time for SCC    0.00 s
wall time for SCC    0.00 s
speedup  1.02
cpu  time for grad    0.01 s
wall time for grad    0.01 s
 E :    -45.34899456  G :  0.001968    pred/act E change: -0.576D-05 -0.848D-05
Maxdispl :   0.1116   ||displ|| :   0.1365   Lambda : -0.179D-04
Largest |displ|/coords:  0.1116 (   3)  0.0553 (   4)  0.0381 (   1)
................................................................................
[...]
Maxdispl :   0.0392   ||displ|| :   0.0583   Lambda : -0.732D-05
Largest |displ|/coords:  0.0392 (   1)  0.0213 (   6)  0.0178 (   4)
................................................................................
.............................. CYCLE  143 ......................................
................................................................................
   1    -45.6211378 -0.456211E+02  0.307E-02    6.91       0.0  T
   2    -45.6211379 -0.103713E-06  0.230E-02    6.91       1.0  T
   3    -45.6211380 -0.104617E-06  0.233E-03    6.90       8.9  T
   4    -45.6211380 -0.122501E-07  0.883E-04    6.91      23.6  T
   5    -45.6211380 -0.952859E-09  0.323E-04    6.91      64.5  T
speedup  1.05
cpu  time for SCC    0.00 s
wall time for SCC    0.00 s
speedup  1.00
cpu  time for grad    0.01 s
wall time for grad    0.01 s
 E :    -45.35152242  G :  0.001346    pred/act E change: -0.424D-05 -0.506D-05
Maxdispl :   0.0376   ||displ|| :   0.0548   Lambda : -0.610D-05
Largest |displ|/coords:  0.0376 (   1)  0.0221 (   6)  0.0189 (   4)
................................................................................
.............................. CYCLE  144 ......................................
................................................................................
   1    -45.6210344 -0.456210E+02  0.282E-02    6.91       0.0  T
   2    -45.6210345 -0.109700E-06  0.209E-02    6.91       1.0  T
   3    -45.6210345 -0.619996E-07  0.299E-03    6.90       7.0  T
   4    -45.6210346 -0.163409E-07  0.771E-04    6.90      27.1  T
   5    -45.6210346 -0.791132E-09  0.274E-04    6.90      76.2  T
speedup  1.03
cpu  time for SCC    0.00 s
wall time for SCC    0.00 s
speedup  0.99
cpu  time for grad    0.01 s
wall time for grad    0.01 s
 E :    -45.35152652  G :  0.001164    pred/act E change: -0.367D-05 -0.410D-05
Maxdispl :   0.0280   ||displ|| :   0.0413   Lambda : -0.408D-05
Largest |displ|/coords:  0.0280 (   1)  0.0149 (   6)  0.0146 (   4)
................................................................................
.............................. CYCLE  145 ......................................
................................................................................
   1    -45.6210497 -0.456210E+02  0.252E-02    6.91       0.0  T
   2    -45.6210498 -0.950184E-07  0.185E-02    6.91       1.1  T
   3    -45.6210499 -0.791956E-07  0.306E-03    6.91       6.8  T
   4    -45.6210499 -0.104862E-07  0.823E-04    6.91      25.3  T
   5    -45.6210499 -0.874202E-09  0.274E-04    6.91      76.0  T
speedup  1.03
cpu  time for SCC    0.00 s
wall time for SCC    0.00 s
speedup  0.99
cpu  time for grad    0.01 s
wall time for grad    0.01 s
 E :    -45.35152928  G :  0.001287    pred/act E change: -0.306D-05 -0.276D-05
Maxdispl :   0.0262   ||displ|| :   0.0386   Lambda : -0.359D-05
Largest |displ|/coords:  0.0262 (   1)  0.0145 (   6)  0.0127 (   4)
................................................................................
.............................. CYCLE  146 ......................................
................................................................................
   1    -45.6211500 -0.456211E+02  0.243E-02    6.91       0.0  T
   2    -45.6211500 -0.899126E-07  0.177E-02    6.91       1.2  T
   3    -45.6211501 -0.564175E-07  0.308E-03    6.91       6.8  T
   4    -45.6211501 -0.994974E-08  0.801E-04    6.91      26.0  T
   5    -45.6211501 -0.733188E-09  0.217E-04    6.91      96.3  T
speedup  1.03
cpu  time for SCC    0.00 s
wall time for SCC    0.00 s
speedup  1.07
cpu  time for grad    0.01 s
wall time for grad    0.01 s
 E :    -45.35153158  G :  0.000869    pred/act E change: -0.205D-05 -0.230D-05
Maxdispl :   0.0262   ||displ|| :   0.0362   Lambda : -0.244D-05
Largest |displ|/coords:  0.0262 (   1)  0.0112 (   6)  0.0085 (  41)

generating ANC from model Hessian ...
 Shifting diagonal of input Hessian by   5.067653102065002E-003
 Lowest  eigenvalues of input Hessian
    0.005000   -0.000000   -0.000000   -0.000000    0.000000    0.000000
    0.000000    0.005625    0.005742    0.005841    0.006277    0.006765
    0.007418    0.008325    0.009184    0.009340    0.009676    0.010476
 Highest eigenvalues
    1.393811    1.398577    1.426286    2.350213    3.296717    3.924206
 
cpu  time for ANC gen    0.01 s
wall time for ANC gen    0.01 s
................................................................................
.............................. CYCLE  147 ......................................
................................................................................
   1    -45.6211700 -0.456212E+02  0.241E-02    6.91       0.0  T
   2    -45.6211701 -0.804110E-07  0.178E-02    6.91       1.2  T
   3    -45.6211702 -0.749244E-07  0.235E-03    6.91       8.9  T
   4    -45.6211702 -0.742109E-08  0.753E-04    6.91      27.7  T
   5    -45.6211702 -0.588422E-09  0.218E-04    6.91      95.4  T
speedup  1.03
cpu  time for SCC    0.00 s
wall time for SCC    0.00 s
speedup  0.99
cpu  time for grad    0.01 s
wall time for grad    0.01 s
 E :    -45.35153314  G :  0.000781    pred/act E change:  0.000D+00 -0.156D-05
Maxdispl :   0.0032   ||displ|| :   0.0069   Lambda : -0.111D-05
Largest |displ|/coords:  0.0032 (   4)  0.0030 (   6)  0.0026 (   7)
................................................................................
.............................. CYCLE  148 ......................................
................................................................................
   1    -45.6212794 -0.456213E+02  0.592E-03    6.91       0.0  T
   2    -45.6212794 -0.717260E-08  0.447E-03    6.91       4.7  T
   3    -45.6212794 -0.554251E-08  0.604E-04    6.91      34.5  T
   4    -45.6212794 -0.946947E-09  0.197E-04    6.91     105.7  T
speedup  1.25
cpu  time for SCC    0.00 s
wall time for SCC    0.00 s
speedup  1.06
cpu  time for grad    0.01 s
wall time for grad    0.01 s
 E :    -45.35153388  G :  0.000439    pred/act E change:  0.000D+00 -0.740D-06
Maxdispl :   0.0052   ||displ|| :   0.0084   Lambda : -0.717D-06
Largest |displ|/coords:  0.0052 (   4)  0.0030 (  18)  0.0022 (   7)
................................................................................
.............................. CYCLE  149 ......................................
................................................................................
   1    -45.6213553 -0.456214E+02  0.596E-03    6.91       0.0  T
   2    -45.6213553 -0.782985E-08  0.445E-03    6.91       4.7  T
   3    -45.6213553 -0.458829E-08  0.637E-04    6.91      32.7  T
   4    -45.6213553 -0.113200E-08  0.235E-04    6.91      88.7  T
speedup  0.97
cpu  time for SCC    0.00 s
wall time for SCC    0.00 s
speedup  0.97
cpu  time for grad    0.01 s
wall time for grad    0.01 s
 E :    -45.35153428  G :  0.000320    pred/act E change: -0.554D-06 -0.398D-06
Maxdispl :   0.0035   ||displ|| :   0.0051   Lambda : -0.223D-06
Largest |displ|/coords:  0.0035 (   4)  0.0018 (  19)  0.0016 (   8)
................................................................................
.............................. CYCLE  150 ......................................
................................................................................
   1    -45.6213219 -0.456213E+02  0.417E-03    6.91       0.0  T
   2    -45.6213219 -0.413343E-08  0.313E-03    6.91       6.7  T
   3    -45.6213219 -0.291749E-08  0.479E-04    6.91      43.6  T
   4    -45.6213219 -0.636469E-09  0.181E-04    6.91     115.3  T
speedup  0.97
cpu  time for SCC    0.00 s
wall time for SCC    0.00 s
speedup  0.97
cpu  time for grad    0.01 s
wall time for grad    0.01 s
 E :    -45.35153443  G :  0.000241    pred/act E change: -0.359D-06 -0.154D-06
Maxdispl :   0.0050   ||displ|| :   0.0076   Lambda : -0.235D-06
Largest |displ|/coords:  0.0050 (   4)  0.0029 (  19)  0.0023 (   8)
................................................................................
.............................. CYCLE  151 ......................................
................................................................................
   1    -45.6212584 -0.456213E+02  0.534E-03    6.91       0.0  T
   2    -45.6212584 -0.670592E-08  0.400E-03    6.91       5.2  T
   3    -45.6212584 -0.550962E-08  0.549E-04    6.91      38.0  T
   4    -45.6212584 -0.935920E-09  0.257E-04    6.91      81.2  T
speedup  0.94
cpu  time for SCC    0.00 s
wall time for SCC    0.00 s
speedup  0.96
cpu  time for grad    0.01 s
wall time for grad    0.01 s
 E :    -45.35153456  G :  0.000141    pred/act E change: -0.111D-06 -0.135D-06
Maxdispl :   0.0024   ||displ|| :   0.0040   Lambda : -0.936D-07
Largest |displ|/coords:  0.0024 (   4)  0.0020 (  19)  0.0011 (  18)
................................................................................
.............................. CYCLE  152 ......................................
................................................................................
   1    -45.6212445 -0.456212E+02  0.333E-03    6.91       0.0  T
   2    -45.6212445 -0.170186E-08  0.251E-03    6.91       8.3  T
   3    -45.6212445 -0.213240E-08  0.271E-04    6.91      76.9  T
   4    -45.6212445 -0.118234E-09  0.104E-04    6.91     200.2  T
speedup  0.94
cpu  time for SCC    0.00 s
wall time for SCC    0.00 s
speedup  0.97
cpu  time for grad    0.01 s
wall time for grad    0.01 s
 E :    -45.35153463  G :  0.000144    pred/act E change: -0.118D-06 -0.670D-07
Maxdispl :   0.0028   ||displ|| :   0.0055   Lambda : -0.911D-07
Largest |displ|/coords:  0.0028 (   4)  0.0027 (  19)  0.0018 (  14)

   *** GEOMETRY OPTIMIZATION CONVERGED AFTER 152 ITERATIONS ***

------------------------------------------------------------------------
 total energy gain (kcal):     -0.0009
------------------------------------------------------------------------
================
 final structure:
================
$coord
       -2.79095867804743       -0.79636896926408        0.92734529409633      S 
       -2.86031829003647        0.74372009773744        3.15510168008360      O 
       -2.69491112670594        0.35881511584539       -1.49907440277087      O 
       -0.92341838764811       -2.99468786311540        1.24392207230096      O 
       -5.38232605707080       -2.31338938012649        0.89425449029556      O 
       -5.86188043962427       -2.79571797584916        2.56854805189465      H 
        0.25474841924457       -2.57836440135457        2.74562188366552      H 
        1.78225538260889        1.40243206699006        0.87607751636858      O 
        1.00266029852483        3.05893133507825        0.73608811975832      H 
       -1.75197863627810        5.16373014810429        0.48115565041248      O 
       -2.31806979845726        4.20659678613266       -0.96184728990657      H 
       -2.43633744572117        4.27882465214176        1.92077602062404      H 
        0.19477693919204       -3.02008537594305       -4.20771055380834      O 
        0.38569435309103       -4.13854581310199       -2.79137629971727      H 
       -0.97515069985758       -1.73276805930229       -3.63572129877381      H 
        1.65159221186755       -1.35937717665382        4.90327193708111      O 
        2.35662287949287       -0.14852689879202        3.68409819805735      H 
        0.28018433713101       -0.45251128452645        5.68920914679357      H 
        4.20996086699597        0.64033948631516       -3.52704269153622      N 
        5.99721740973702       -0.03725364591702       -3.58130437755848      H 
        2.75589686390725        1.14819269222927       -0.70917017327049      H 
        4.09806761069416        2.10853688141622       -4.74740377660524      H 
        3.02567198695181       -0.74252239913946       -4.16481921638072      H 
$end
 
 Bond Distances (Angstroems)
 ---------------------------
S1-O2=1.4336         S1-O3=1.4230         S1-O4=1.5356         S1-O5=1.5891         O2-S1=1.4336         O3-S1=1.4230         
O4-S1=1.5356         O4-H7=1.0338         O5-S1=1.5891         O5-H6=0.9563         H6-O5=0.9563         H7-O4=1.0338         
O8-H9=0.9716         O8-H21=0.9936        H9-O8=0.9716         O10-H11=0.9640       O10-H12=0.9648       H11-O10=0.9640       
H12-O10=0.9648       O13-H14=0.9603       O13-H15=0.9690       H14-O13=0.9603       H15-O13=0.9690       O16-H17=0.9828       
O16-H18=0.9643       H17-O16=0.9828       H18-O16=0.9643       N19-H20=1.0119       N19-H22=1.0120       N19-H23=1.0209       
H20-N19=1.0119       H21-O8=0.9936        H22-N19=1.0120       H23-N19=1.0209       
 N  H  Rav=1.0149 sigma=0.0042  Rmin=1.0119  Rmax=1.0209     3
 O  H  Rav=0.9761 sigma=0.0219  Rmin=0.9563  Rmax=1.0338    10
 S  O  Rav=1.4953 sigma=0.0697  Rmin=1.4230  Rmax=1.5891     4
 
 selected bond angles (degree)
 --------------------
O3-S1-O2=119.91                O4-S1-O2=110.94                O4-S1-O3=113.63                O5-S1-O2=105.91                
O5-S1-O3=103.76                O5-S1-O4=100.01                H7-O4-S1=108.09                H6-O5-S1=110.71                
H21-O8-H9=106.14               H12-O10-H11=104.70             
 
 selected dihedral angles (degree)
 ---------------------------------
H7-O4-S1-O2=342.96            H7-O4-S1-O3=121.58            H7-O4-S1-O5=231.51            H6-O5-S1-O2=322.52            
H6-O5-S1-O3=195.38            H6-O5-S1-O4= 77.84            
 
 CMA Distance (Angstroems)
 ---------------------------
R(CMA):  2.4019

========================================================================
 FINAL SINGLEPOINT CALCULATION ON OPTIMIZED GEOMETRY
========================================================================

 Ncao       : 59
 Nao        : 58
 Nshell     : 34
 Nel        : 72
 T(el)      :   300.0
 intcut     :    25.0
 scfconv/Eh :  0.100E-05
   qconv/e  :  0.100E-03
 intneglect :  0.100E-07
 broydamp   :      0.250
 iter      E             dE          RMSdq      gap      omega  full diag
   1    -45.6212445 -0.456212E+02  0.386E-05    6.91       0.0  T
   2    -45.6212445 -0.119371E-11  0.248E-05    6.91     840.5  T
   3    -45.6212445 -0.625278E-12  0.595E-06    6.91    3504.4  T
speedup  0.87
cpu  time for SCC    0.00 s
wall time for SCC    0.00 s

   *** convergence criteria satisfied after 3 iterations ***

          eigenvalues
 #    :          24         25         26         27         28         29         30         31
 occ. :        2.000      2.000      2.000      2.000      2.000      2.000      2.000      2.000
 eps  :       -13.815    -13.755    -13.536    -13.424    -13.177    -13.093    -12.980    -12.768
 #    :          32         33         34         35         36         37         38         39
 occ. :        2.000      2.000      2.000      2.000      2.000      0.000      0.000      0.000
 eps  :       -12.745    -11.869    -11.714    -11.670    -10.814     -3.900     -1.412     -0.531
 #    :          40         41         42         43         44         45         46         47
 occ. :        0.000      0.000      0.000      0.000      0.000      0.000      0.000      0.000
 eps  :         0.492      0.816      1.777      2.790      3.090      3.589      4.870      5.420


   #   Z            q   n(s)   n(p)   n(d)      C6AA      α(0)
   1  16 S      1.758  1.586  1.729  0.927    87.469    15.741
   2   8 O     -0.714  1.761  4.954  0.000    29.106     7.233
   3   8 O     -0.667  1.753  4.915  0.000    27.835     7.074
   4   8 O     -0.627  1.759  4.868  0.000    25.830     6.861
   5   8 O     -0.596  1.750  4.845  0.000    25.052     6.757
   6   1 H      0.353  0.647  0.000  0.000     0.579     1.194
   7   1 H      0.401  0.599  0.000  0.000     0.479     1.085
   8   8 O     -0.675  1.760  4.915  0.000    27.054     7.020
   9   1 H      0.315  0.685  0.000  0.000     0.677     1.292
  10   8 O     -0.593  1.736  4.857  0.000    25.027     6.752
  11   1 H      0.301  0.699  0.000  0.000     0.717     1.330
  12   1 H      0.300  0.700  0.000  0.000     0.720     1.333
  13   8 O     -0.598  1.737  4.861  0.000    25.134     6.766
  14   1 H      0.287  0.713  0.000  0.000     0.760     1.370
  15   1 H      0.307  0.693  0.000  0.000     0.699     1.313
  16   8 O     -0.583  1.749  4.834  0.000    24.777     6.719
  17   1 H      0.350  0.650  0.000  0.000     0.589     1.206
  18   1 H      0.313  0.687  0.000  0.000     0.682     1.297
  19   7 N     -0.455  1.373  4.082  0.000    31.971     8.398
  20   1 H      0.151  0.849  0.000  0.000     1.397     1.852
  21   1 H      0.323  0.677  0.000  0.000     0.655     1.271
  22   1 H      0.153  0.847  0.000  0.000     1.383     1.842
  23   1 H      0.196  0.804  0.000  0.000     1.125     1.661

 Mol. C6AA /au·bohr⁶  :       4508.388982
 Mol. C8AA /au·bohr⁸  :      98812.602429
 Mol. α(0) /au        :         97.365569

 
 Wiberg/Mayer (AO) data. WBOs > 0.1 written file <wbo>
 largest (>0.05) Wiberg bond orders for each atom
           total WBO             WBO to atom ...
     1  S   4.767    O    3 1.420    O    2 1.376    O    4 1.003    O    5 0.899
     2  O   1.728    S    1 1.376    O    3 0.127    O    4 0.098    O    5 0.083
     3  O   1.791    S    1 1.420    O    2 0.127    O    4 0.092    O    5 0.070
     4  O   1.961    S    1 1.003    H    7 0.647    O    2 0.098    O    3 0.092    O    5 0.055    O   16 0.054
     5  O   1.969    S    1 0.899    H    6 0.858    O    2 0.083    O    3 0.070    O    4 0.055
     6  H   0.876    O    5 0.858
     7  H   0.839    O    4 0.647    O   16 0.173
     8  O   1.844    H    9 0.849    H   21 0.797    H   17 0.053
     9  H   0.901    O    8 0.849
    10  O   1.869    H   11 0.894    H   12 0.890
    11  H   0.909    O   10 0.894
    12  H   0.910    O   10 0.890
    13  O   1.856    H   14 0.911    H   15 0.872
    14  H   0.917    O   13 0.911
    15  H   0.905    O   13 0.872
    16  O   1.980    H   18 0.892    H   17 0.821    H    7 0.173    O    4 0.054
    17  H   0.878    O   16 0.821    O    8 0.053
    18  H   0.902    O   16 0.892
    19  N   3.035    H   22 0.975    H   20 0.974    H   23 0.928    H   21 0.093
    20  H   0.977    N   19 0.974
    21  H   0.896    O    8 0.797    N   19 0.093
    22  H   0.977    N   19 0.975
    23  H   0.961    N   19 0.928
 MOs/occ written to file <molden.input>
 
molecular dipole:
                 x           y           z       tot (Debye)
 q only:        0.218      -0.495       0.816
   full:       -0.034      -0.627       0.713       2.415
molecular quadrupole (traceless):
                xx          xy          yy          xz          yz          zz
 q only:        6.025       4.820      -5.474      -8.643      -6.528      -0.551
  q+dip:        8.629       6.389      -8.461     -13.446      -7.518      -0.168
   full:        8.662       6.251      -8.424     -13.611      -7.816      -0.238

SCC energy    :     -45.6212445
rep           :       0.2694919
ES            :       0.1974185
AES           :      -0.0435784
AXC           :      -0.0060682
disp          :      -0.0168594
XB            :       0.0000000
fix           :       0.0000000
total E       :     -45.3515346
atomizationE  :       4.4345971     2782.75
(atE without considering molecular charge,
 total energy contains solvation terms)
H-L gap (eV)  :          6.9141
optimized geometry written to: xtbopt.xyz


------------------------------------------------------------------------
 * finished run on 2019/09/16 at 11:31:52.478     
------------------------------------------------------------------------
 total:
 * wall-time:     0 d,  0 h,  0 min,  3.060 sec
 *  cpu-time:     0 d,  0 h,  0 min,  2.849 sec
 * ratio c/w:     0.931 speedup
 SCF:
 * wall-time:     0 d,  0 h,  0 min,  0.115 sec
 *  cpu-time:     0 d,  0 h,  0 min,  0.112 sec
 * ratio c/w:     0.970 speedup
 ANC optimizer:
 * wall-time:     0 d,  0 h,  0 min,  2.922 sec
 *  cpu-time:     0 d,  0 h,  0 min,  2.716 sec
 * ratio c/w:     0.929 speedup

