      -----------------------------------------------------------      
     |                   =====================                   |     
     |                           x T B                           |     
     |                   =====================                   |     
     |                         S. Grimme                         |     
     |          Mulliken Center for Theoretical Chemistry        |     
     |                    University of Bonn                     |     
     |                 Version 6.0.1 (SAW181210)                 |     
      -----------------------------------------------------------      

   This program is distributed in the hope that it will be useful,
   but WITHOUT ANY WARRANTY; without even the implied warranty of
   MERCHANTABILITY or FITNESS FOR A PARTICULAR PURPOSE.
   
   FOR NON-COMMERCIAL, ACADEMIA USE ONLY.
   
   Cite this work as:
   S. Grimme, C. Bannwarth, P. Shushkov, J. Comput. Theory Chem., 2017,
   13, 1989-2009.
   C. Bannwarth, S. Ehlert and S. Grimme., ChemRxiv, 2018, preprint.
   http://doi.org/10.26434/chemrxiv.7246238.v1
   
   for sTDA-xTB:
   S. Grimme and C. Bannwarth, J. Chem. Phys., 2016, 145, 054103.
   
   in the mass-spec context:
   V. Asgeirsson, C. Bauer and S. Grimme, Chem. Sci., 2017, 8, 4879.
   
   if GBSA is used:
   P. Shushkov, F. März and S. Grimme, unpublished.
   
   for ANC optimizer:
   S. Grimme, unpublished.
   Rational Function algorithm used in ANCopt:
   F. Eckert, P. Pulay, H.-J. Werner, J. Comput. Chem., 1997, 18, 1473.
   
   with help from (in alphabetical order)
   C. Bannwarth, F. Bohle, G. Brandenburg, E. Caldeweyher, M. Checinski,
   S. Dohm, S. Ehlert, S. Ehrlich, F. März, H. Neugebauer, J. Pisarek,
   P. Pracht, P. Shushkov, and S. Spicher.
   
 * started run on 2019/09/16 at 12:15:07.617     
========================================================================
 # omp threads = 1
========================================================================
number of atoms            : 23
number of electrons        : 72
charge                     : 0
spin                       : .0
first test random number   : .4575

########################################################################
# WARNING! Please study the warnings concerning your input carefully
#  - XTBPATH is not set, using XTBHOME instead
#  - the use of '-opt' is discouraged, please use '--opt' next time
#  - the use of '-chrg' is discouraged, please use '--chrg' next time
#  - the use of '-uhf' is discouraged, please use '--uhf' next time
########################################################################

           ------------------------------------------------- 
          |                 G F N 2 - x T B                 |
          | Geometry, Frequencies, Noncovalent interactions |
          |            JCTC 2018 parametrisation            |
           ------------------------------------------------- 
      method parameters     
 k(s)        :  1.8500
 k(p)        :  2.2300
 k(d)        :  2.2300
 k(f)        :  2.0000
 kEN (H0ij)  : -2.0000
 D4 a1       :  0.5200
 D4 a2       :  5.0000
 D4 s6       :  1.0000
 D4 s8       :  2.7000
 D4 s9       :  5.0000
 alphaj      :  2.0000


            Z     q(EN)     CN     RAES       Cart. coordinates
     1  S   6.0    0.58    4.27    4.19     1.91581     4.21835    -1.03100
     2  O   6.0   -0.29    1.08    1.80     0.64613     4.83265    -3.39574
     3  O   6.0   -0.27    1.09    1.80     3.96639     5.70395    -0.01822
     4  O   6.0   -0.25    2.04    1.83    -0.28477     3.84701     1.10558
     5  O   6.0   -0.25    2.12    1.84     2.92559     1.34673    -1.07371
     6  H   1.0    0.18    1.32    1.50     1.66869     0.27215    -1.88107
     7  H   1.0    0.15    1.12    1.45    -1.66013     4.99099     0.67426
     8  O   6.0   -0.40    1.65    1.81    -0.47011    -1.21673    -2.82020
     9  H   1.0    0.18    0.95    1.42    -0.48383    -1.52796    -4.66050
    10  O   6.0   -0.29    2.01    1.83     4.62359    -2.57700     2.02839
    11  H   1.0    0.15    0.97    1.43     6.33593    -2.46962     2.63746
    12  H   1.0    0.16    1.01    1.43     4.42124    -1.15652     0.90771
    13  O   6.0   -0.28    2.01    1.83    -3.22047    -0.27216     3.29389
    14  H   1.0    0.16    1.03    1.43    -4.08048     0.03899     1.71967
    15  H   1.0    0.16    0.98    1.43    -2.19765     1.20577     3.58404
    16  O   6.0   -0.29    2.03    1.83    -4.46688     0.77698    -1.48352
    17  H   1.0    0.15    0.97    1.43    -5.34044     1.23556    -3.01363
    18  H   1.0    0.18    1.14    1.45    -2.91202     0.00355    -2.03016
    19  N   5.0   -0.15    3.96    2.76    -0.27731    -3.85053     1.09135
    20  H   1.0    0.11    1.05    1.44     1.55979    -3.76729     1.72582
    21  H   1.0    0.08    0.99    1.43    -0.82427    -5.71051     0.93083
    22  H   1.0    0.10    1.04    1.43    -1.44179    -2.93896     2.35526
    23  H   1.0    0.13    1.18    1.46    -0.40299    -2.98537    -0.64651

  Z AO/shell   Hii/eV     exponent
  1     Wed Apr 25 08:07:45 CEST 2018   EN: 2.200 GM2: 0.406  GM3: 0.0800  RAES: 1.40
     1s    -10.707211    1.230000
  7     Wed Apr 25 08:07:45 CEST 2018   EN: 3.040 GM2: 0.461  GM3:-0.0640  RAES: 1.90
     2s    -16.686243    2.339881
     2p    -12.523956    2.014332
  8     Wed Apr 25 08:07:45 CEST 2018   EN: 3.440 GM2: 0.452  GM3:-0.0517  RAES: 1.80
     2s    -20.229985    2.439742
     2p    -15.503117    2.137023
 16     Tue Apr 24 11:44:34 CEST 2018   EN: 2.580 GM2: 0.340  GM3:-0.0502  RAES: 3.10
     3s    -20.029654    1.981333
     3p    -11.377694    2.025643
     3d     -0.420282    1.702555
 no old-style atom pair restraining (fixing) potential

molecular fragmentation (1/2 indicates fragments):
11111112222222222222222
# atoms in fragment 1/2:     7    16
 fragment masses (1/2) :       98.07       89.09
CMA distance (Bohr)    :   6.110
constraining FC (au)   :  0.0500
           ------------------------------------------------- 
          |        Self-Consistent Charge Iterations        |
           ------------------------------------------------- 

 Ncao       : 59
 Nao        : 58
 Nshell     : 34
 Nel        : 72
 T(el)      :   300.0
 intcut     :    25.0
 scfconv/Eh :  0.100E-05
   qconv/e  :  0.100E-03
 intneglect :  0.100E-07
 broydamp   :      0.250
 iter      E             dE          RMSdq      gap      omega  full diag
   1    -45.4820308 -0.454820E+02  0.717E+00    8.20       0.0  T
   2    -45.5269781 -0.449473E-01  0.506E+00    7.29       1.0  T
   3    -45.5632872 -0.363091E-01  0.119E+00    4.97       1.0  T
   4    -45.5663774 -0.309017E-02  0.713E-01    5.16       1.0  T
   5    -45.5680976 -0.172018E-02  0.241E-01    5.29       1.0  T
   6    -45.5683738 -0.276202E-03  0.112E-01    5.27       1.0  T
   7    -45.5684418 -0.680328E-04  0.451E-02    5.28       1.0  T
   8    -45.5684513 -0.952133E-05  0.209E-02    5.29       1.0  T
   9    -45.5684536 -0.226603E-05  0.576E-03    5.29       3.6  T
  10    -45.5684537 -0.776382E-07  0.178E-03    5.29      11.7  T
  11    -45.5684537 -0.970855E-08  0.781E-04    5.29      26.7  T
  12    -45.5684537 -0.187137E-08  0.367E-04    5.29      56.8  T
speedup  1.02
cpu  time for SCC    0.01 s
wall time for SCC    0.01 s

   *** convergence criteria satisfied after 12 iterations ***

          eigenvalues
 #    :          24         25         26         27         28         29         30         31
 occ. :        2.000      2.000      2.000      2.000      2.000      2.000      2.000      2.000
 eps  :       -13.431    -12.968    -12.926    -12.536    -12.502    -12.396    -12.312    -12.210
 #    :          32         33         34         35         36         37         38         39
 occ. :        2.000      2.000      2.000      2.000      2.000      0.000      0.000      0.000
 eps  :       -11.968    -11.901    -11.148    -10.034     -9.839     -4.546     -1.827     -1.157
 #    :          40         41         42         43         44         45         46         47
 occ. :        0.000      0.000      0.000      0.000      0.000      0.000      0.000      0.000
 eps  :        -0.763      0.839      1.687      2.308      2.750      3.707      4.344      4.811


   #   Z            q   n(s)   n(p)   n(d)      C6AA      α(0)
   1  16 S      1.622  1.629  1.813  0.935    90.549    16.016
   2   8 O     -0.645  1.781  4.864  0.000    27.258     7.000
   3   8 O     -0.628  1.770  4.857  0.000    26.805     6.942
   4   8 O     -0.576  1.752  4.824  0.000    24.580     6.693
   5   8 O     -0.621  1.756  4.864  0.000    25.652     6.837
   6   1 H      0.389  0.611  0.000  0.000     0.500     1.108
   7   1 H      0.353  0.647  0.000  0.000     0.579     1.194
   8   8 O     -0.866  1.834  5.032  0.000    33.634     7.776
   9   1 H      0.211  0.789  0.000  0.000     1.062     1.619
  10   8 O     -0.603  1.728  4.876  0.000    25.265     6.784
  11   1 H      0.289  0.711  0.000  0.000     0.754     1.364
  12   1 H      0.326  0.674  0.000  0.000     0.647     1.264
  13   8 O     -0.614  1.740  4.874  0.000    25.514     6.817
  14   1 H      0.337  0.663  0.000  0.000     0.619     1.236
  15   1 H      0.297  0.703  0.000  0.000     0.729     1.341
  16   8 O     -0.666  1.752  4.914  0.000    26.819     6.990
  17   1 H      0.265  0.735  0.000  0.000     0.835     1.435
  18   1 H      0.333  0.667  0.000  0.000     0.628     1.243
  19   7 N     -0.318  1.263  4.055  0.000    28.164     7.882
  20   1 H      0.283  0.717  0.000  0.000     0.766     1.371
  21   1 H      0.223  0.777  0.000  0.000     0.997     1.564
  22   1 H      0.287  0.713  0.000  0.000     0.754     1.361
  23   1 H      0.320  0.680  0.000  0.000     0.655     1.266

 Mol. C6AA /au·bohr⁶  :       4495.966393
 Mol. C8AA /au·bohr⁸  :      99031.365427
 Mol. α(0) /au        :         97.103306

 
 Wiberg/Mayer (AO) data. WBOs > 0.1 written file <wbo>
 largest (>0.05) Wiberg bond orders for each atom
           total WBO             WBO to atom ...
     1  S   4.800    O    3 1.480    O    2 1.439    O    5 0.976    O    4 0.877
     2  O   1.783    S    1 1.439    O    3 0.147    O    5 0.099    O    4 0.094
     3  O   1.815    S    1 1.480    O    2 0.147    O    4 0.089    O    5 0.087
     4  O   1.982    S    1 0.877    H    7 0.856    O    2 0.094    O    3 0.089    O    5 0.052
     5  O   1.975    S    1 0.976    H    6 0.658    O    2 0.099    O    3 0.087    O    8 0.054    O    4 0.052
     6  H   0.849    O    5 0.658    O    8 0.178
     7  H   0.876    O    4 0.856
     8  O   1.587    H    9 0.940    H    6 0.178    H   23 0.159    H   18 0.125    N   19 0.066    O    5 0.054    O   16 0.052
     9  H   0.955    O    8 0.940
    10  O   1.847    H   11 0.904    H   12 0.862
    11  H   0.916    O   10 0.904
    12  H   0.894    O   10 0.862
    13  O   1.878    H   15 0.900    H   14 0.846    H   22 0.066
    14  H   0.886    O   13 0.846
    15  H   0.912    O   13 0.900
    16  O   1.789    H   17 0.917    H   18 0.762    O    8 0.052
    17  H   0.930    O   16 0.917
    18  H   0.889    O   16 0.762    O    8 0.125
    19  N   3.536    H   21 0.946    H   20 0.868    H   22 0.848    H   23 0.733    O    8 0.066
    20  H   0.920    N   19 0.868
    21  H   0.950    N   19 0.946
    22  H   0.918    N   19 0.848    O   13 0.066
    23  H   0.898    N   19 0.733    O    8 0.159
 MOs/occ written to file <molden.input>
 
molecular dipole:
                 x           y           z       tot (Debye)
 q only:       -0.257      -2.405       1.314
   full:       -0.246      -2.144       0.709       5.774
molecular quadrupole (traceless):
                xx          xy          yy          xz          yz          zz
 q only:       -1.791     -10.780       6.514       3.016       1.613      -4.723
  q+dip:       -1.554     -12.979       5.534       6.214       3.646      -3.979
   full:       -1.401     -13.161       5.436       6.288       3.582      -4.035

SCC energy    :     -45.5684537
rep           :       0.2574611
ES            :       0.2575683
AES           :      -0.0483862
AXC           :      -0.0045141
disp          :      -0.0160086
XB            :       0.0000000
fix           :       0.0000000
total E       :     -45.3107404
atomizationE  :       4.3938029     2757.15
(atE without considering molecular charge,
 total energy contains solvation terms)
H-L gap (eV)  :          5.2938
           ------------------------------------------------- 
          |                 ===============                 |
          |                   A N C O P T                   |
          |                 ===============                 |
          |          Approximate Normal Coordinate          |
          |           Rational Function Optimizer           |
           ------------------------------------------------- 
dumping coords to <xtbopt.coord> and <xtbopt.log>
 optlevel               2
 Maxcycle             460
 Maxmicro              25
 Econv         1.000000000000000E-007
 Gconv         2.000000000000000E-004
 Maxdispl       1.00000000000000     
 Hlow          5.000000000000000E-003
 S6             20.0000000000000     
 Nvar               63

generating ANC from model Hessian ...
 Shifting diagonal of input Hessian by   5.045938560376196E-003
 Lowest  eigenvalues of input Hessian
    0.005000   -0.000000   -0.000000   -0.000000   -0.000000    0.000000
    0.000000    0.005243    0.005297    0.005468    0.005746    0.006282
    0.006605    0.006842    0.007079    0.007483    0.007782    0.007849
 Highest eigenvalues
    1.426524    1.444591    1.447811    1.952524    2.766464    3.588300
 
cpu  time for ANC gen    0.02 s
wall time for ANC gen    0.02 s
................................................................................
.............................. CYCLE    1 ......................................
................................................................................
   1    -45.5684537 -0.455685E+02  0.122E-04    5.29       0.0  T
   2    -45.5684537 -0.198952E-10  0.924E-05    5.29     225.7  T
   3    -45.5684537 -0.246558E-10  0.387E-05    5.29     539.4  T
speedup  1.20
cpu  time for SCC    0.00 s
wall time for SCC    0.00 s
speedup  1.04
cpu  time for grad    0.01 s
wall time for grad    0.01 s
 E :    -45.31074042  G :  0.151843    pred/act E change:  0.000D+00 -0.736D-08
Maxdispl :   0.1032   ||displ|| :   0.2697   Lambda : -0.209D-01
Largest |displ|/coords:  0.1032 (  11)  0.0926 (  20)  0.0840 (  17)
................................................................................
.............................. CYCLE    2 ......................................
................................................................................
   1    -45.5786048 -0.455786E+02  0.327E-01    6.04       0.0  T
   2    -45.5787522 -0.147389E-03  0.238E-01    6.12       1.0  T
   3    -45.5788215 -0.692493E-04  0.651E-02    6.30       1.0  T
   4    -45.5788352 -0.137225E-04  0.189E-02    6.29       1.1  T
   5    -45.5788358 -0.626132E-06  0.541E-03    6.28       3.9  T
   6    -45.5788358 -0.283651E-07  0.322E-03    6.28       6.5  T
speedup  1.06
cpu  time for SCC    0.01 s
wall time for SCC    0.00 s
speedup  0.97
cpu  time for grad    0.01 s
wall time for grad    0.01 s
 E :    -45.32619107  G :  0.080048    pred/act E change:  0.000D+00 -0.155D-01
Maxdispl :   0.0944   ||displ|| :   0.2687   Lambda : -0.820D-02
Largest |displ|/coords:  0.0944 (  20)  0.0942 (  17)  0.0735 (   8)
................................................................................
.............................. CYCLE    3 ......................................
................................................................................
   1    -45.5862135 -0.455862E+02  0.279E-01    6.94       0.0  T
   2    -45.5863708 -0.157361E-03  0.201E-01    7.04       1.0  T
   3    -45.5864337 -0.628995E-04  0.643E-02    7.24       1.0  T
   4    -45.5864444 -0.106831E-04  0.145E-02    7.23       1.4  T
   5    -45.5864451 -0.716716E-06  0.563E-03    7.22       3.7  T
   6    -45.5864452 -0.452784E-07  0.327E-03    7.22       6.4  T
speedup  1.06
cpu  time for SCC    0.00 s
wall time for SCC    0.00 s
speedup  0.98
cpu  time for grad    0.01 s
wall time for grad    0.01 s
 E :    -45.33265596  G :  0.051266    pred/act E change: -0.112D-01 -0.646D-02
Maxdispl :   0.1231   ||displ|| :   0.3299   Lambda : -0.521D-02
Largest |displ|/coords:  0.1231 (   8)  0.1214 (   6)  0.0934 (  11)
................................................................................
.............................. CYCLE    4 ......................................
................................................................................
   1    -45.5879919 -0.455880E+02  0.360E-01    7.60       0.0  T
   2    -45.5881234 -0.131468E-03  0.268E-01    7.69       1.0  T
   3    -45.5881769 -0.535664E-04  0.622E-02    7.89       1.0  T
   4    -45.5881951 -0.181462E-04  0.128E-02    7.86       1.6  T
   5    -45.5881957 -0.616102E-06  0.507E-03    7.84       4.1  T
   6    -45.5881957 -0.234086E-07  0.319E-03    7.84       6.5  T
speedup  1.06
cpu  time for SCC    0.00 s
wall time for SCC    0.00 s
speedup  1.07
cpu  time for grad    0.01 s
wall time for grad    0.01 s
 E :    -45.33600717  G :  0.041699    pred/act E change: -0.439D-02 -0.335D-02
Maxdispl :   0.1641   ||displ|| :   0.5359   Lambda : -0.934D-02
Largest |displ|/coords:  0.1641 (   5)  0.1637 (  25)  0.1507 (  20)
................................................................................
.............................. CYCLE    5 ......................................
................................................................................
   1    -45.5936683 -0.455937E+02  0.592E-01    8.89       0.0  T
   2    -45.5946340 -0.965703E-03  0.421E-01    9.07       1.0  T
   3    -45.5950158 -0.381765E-03  0.154E-01    9.17       1.0  T
   4    -45.5950615 -0.457420E-04  0.372E-02    9.16       1.0  T
   5    -45.5950671 -0.557742E-05  0.129E-02    9.16       1.6  T
   6    -45.5950674 -0.308607E-06  0.876E-03    9.16       2.4  T
   7    -45.5950675 -0.922019E-07  0.275E-03    9.16       7.6  T
   8    -45.5950675 -0.149685E-07  0.822E-04    9.16      25.4  T
speedup  1.27
cpu  time for SCC    0.01 s
wall time for SCC    0.01 s
speedup  1.06
cpu  time for grad    0.01 s
wall time for grad    0.01 s
 E :    -45.33995993  G :  0.049491    pred/act E change: -0.289D-02 -0.395D-02
Maxdispl :   0.1767   ||displ|| :   0.2795   Lambda : -0.315D-02
Largest |displ|/coords:  0.1767 (   6)  0.0785 (   4)  0.0755 (   3)
................................................................................
.............................. CYCLE    6 ......................................
................................................................................
   1    -45.5971433 -0.455971E+02  0.228E-01    9.03       0.0  T
   2    -45.5971805 -0.372308E-04  0.171E-01    9.03       1.0  T
   3    -45.5971970 -0.164711E-04  0.414E-02    9.03       1.0  T
   4    -45.5972027 -0.572037E-05  0.110E-02    9.02       1.9  T
   5    -45.5972029 -0.160374E-06  0.336E-03    9.03       6.2  T
   6    -45.5972029 -0.139764E-07  0.193E-03    9.03      10.8  T
speedup  1.06
cpu  time for SCC    0.00 s
wall time for SCC    0.00 s
speedup  1.05
cpu  time for grad    0.01 s
wall time for grad    0.01 s
 E :    -45.34250649  G :  0.037132    pred/act E change: -0.601D-02 -0.255D-02
Maxdispl :   0.2169   ||displ|| :   0.5217   Lambda : -0.580D-02
Largest |displ|/coords:  0.2169 (   6)  0.1923 (   4)  0.1619 (  21)
................................................................................
.............................. CYCLE    7 ......................................
................................................................................
   1    -45.6011444 -0.456011E+02  0.461E-01    8.66       0.0  T
   2    -45.6014065 -0.262026E-03  0.342E-01    8.67       1.0  T
   3    -45.6015218 -0.115330E-03  0.110E-01    8.67       1.0  T
   4    -45.6015484 -0.266394E-04  0.309E-02    8.65       1.0  T
   5    -45.6015504 -0.196605E-05  0.899E-03    8.65       2.3  T
   6    -45.6015505 -0.865392E-07  0.530E-03    8.65       3.9  T
   7    -45.6015505 -0.446573E-07  0.166E-03    8.65      12.6  T
speedup  0.94
cpu  time for SCC    0.00 s
wall time for SCC    0.01 s
speedup  1.01
cpu  time for grad    0.01 s
wall time for grad    0.01 s
 E :    -45.34655989  G :  0.038610    pred/act E change: -0.170D-02 -0.405D-02
Maxdispl :   0.1998   ||displ|| :   0.5467   Lambda : -0.597D-02
Largest |displ|/coords:  0.1998 (   3)  0.1992 (  21)  0.1374 (   6)
................................................................................
.............................. CYCLE    8 ......................................
................................................................................
   1    -45.6041418 -0.456041E+02  0.586E-01    8.36       0.0  T
   2    -45.6044620 -0.320190E-03  0.443E-01    8.37       1.0  T
   3    -45.6046395 -0.177543E-03  0.119E-01    8.35       1.0  T
   4    -45.6046803 -0.407753E-04  0.382E-02    8.33       1.0  T
   5    -45.6046830 -0.265618E-05  0.114E-02    8.34       1.8  T
   6    -45.6046831 -0.134126E-06  0.667E-03    8.34       3.1  T
   7    -45.6046832 -0.672921E-07  0.187E-03    8.34      11.2  T
   8    -45.6046832 -0.787163E-08  0.605E-04    8.34      34.4  T
speedup  0.97
cpu  time for SCC    0.01 s
wall time for SCC    0.01 s
speedup  1.01
cpu  time for grad    0.01 s
wall time for grad    0.01 s
 E :    -45.34877141  G :  0.053815    pred/act E change: -0.369D-02 -0.221D-02
Maxdispl :   0.2719   ||displ|| :   0.4669   Lambda : -0.822D-02
Largest |displ|/coords:  0.2719 (   3)  0.1824 (   4)  0.1329 (   6)
................................................................................
.............................. CYCLE    9 ......................................
................................................................................
   1    -45.6105878 -0.456106E+02  0.770E-01    8.51       0.0  T
   2    -45.6107790 -0.191134E-03  0.587E-01    8.52       1.0  T
   3    -45.6109254 -0.146398E-03  0.752E-02    8.55       1.0  T
   4    -45.6109539 -0.285314E-04  0.180E-02    8.54       1.2  T
   5    -45.6109546 -0.683866E-06  0.868E-03    8.54       2.4  T
   6    -45.6109546 -0.272316E-07  0.414E-03    8.54       5.0  T
   7    -45.6109546 -0.234610E-07  0.952E-04    8.54      21.9  T
speedup  1.13
cpu  time for SCC    0.01 s
wall time for SCC    0.01 s
speedup  1.00
cpu  time for grad    0.01 s
wall time for grad    0.01 s
 E :    -45.34957950  G :  0.039958    pred/act E change: -0.387D-02 -0.808D-03
Maxdispl :   0.1443   ||displ|| :   0.3533   Lambda : -0.359D-02
Largest |displ|/coords:  0.1443 (  21)  0.1371 (  11)  0.1349 (   6)
................................................................................
.............................. CYCLE   10 ......................................
................................................................................
   1    -45.6147459 -0.456147E+02  0.324E-01    8.59       0.0  T
   2    -45.6148032 -0.572440E-04  0.244E-01    8.59       1.0  T
   3    -45.6148424 -0.392176E-04  0.461E-02    8.57       1.0  T
   4    -45.6148498 -0.742151E-05  0.173E-02    8.57       1.2  T
   5    -45.6148502 -0.414826E-06  0.539E-03    8.57       3.9  T
   6    -45.6148502 -0.347154E-07  0.324E-03    8.57       6.4  T
speedup  1.06
cpu  time for SCC    0.00 s
wall time for SCC    0.00 s
speedup  0.97
cpu  time for grad    0.01 s
wall time for grad    0.01 s
 E :    -45.35173501  G :  0.035011    pred/act E change: -0.500D-02 -0.216D-02
Maxdispl :   0.1659   ||displ|| :   0.3245   Lambda : -0.275D-02
Largest |displ|/coords:  0.1659 (  12)  0.1157 (  11)  0.0966 (  13)
................................................................................
.............................. CYCLE   11 ......................................
................................................................................
   1    -45.6194426 -0.456194E+02  0.316E-01    8.55       0.0  T
   2    -45.6194734 -0.308027E-04  0.237E-01    8.55       1.0  T
   3    -45.6194906 -0.171247E-04  0.381E-02    8.56       1.0  T
   4    -45.6194951 -0.457595E-05  0.136E-02    8.55       1.5  T
   5    -45.6194954 -0.256475E-06  0.345E-03    8.55       6.0  T
   6    -45.6194954 -0.759802E-08  0.209E-03    8.55      10.0  T
speedup  1.06
cpu  time for SCC    0.01 s
wall time for SCC    0.00 s
speedup  1.06
cpu  time for grad    0.01 s
wall time for grad    0.01 s
 E :    -45.35295616  G :  0.023981    pred/act E change: -0.202D-02 -0.122D-02
Maxdispl :   0.1223   ||displ|| :   0.2872   Lambda : -0.153D-02
Largest |displ|/coords:  0.1223 (  17)  0.1187 (   5)  0.0894 (   9)
................................................................................
.............................. CYCLE   12 ......................................
................................................................................
   1    -45.6103471 -0.456103E+02  0.247E-01    8.57       0.0  T
   2    -45.6103696 -0.224609E-04  0.186E-01    8.57       1.0  T
   3    -45.6103869 -0.173217E-04  0.283E-02    8.56       1.0  T
   4    -45.6103899 -0.300431E-05  0.957E-03    8.57       2.2  T
   5    -45.6103900 -0.106681E-06  0.333E-03    8.57       6.3  T
   6    -45.6103900 -0.977806E-08  0.187E-03    8.57      11.2  T
speedup  0.85
cpu  time for SCC    0.00 s
wall time for SCC    0.00 s
speedup  0.96
cpu  time for grad    0.01 s
wall time for grad    0.01 s
 E :    -45.35338115  G :  0.025780    pred/act E change: -0.152D-02 -0.425D-03
Maxdispl :   0.1004   ||displ|| :   0.2342   Lambda : -0.167D-02
Largest |displ|/coords:  0.1004 (   2)  0.0765 (   9)  0.0711 (  15)
................................................................................
.............................. CYCLE   13 ......................................
................................................................................
   1    -45.6136954 -0.456137E+02  0.244E-01    8.69       0.0  T
   2    -45.6137108 -0.154266E-04  0.184E-01    8.68       1.0  T
   3    -45.6137259 -0.150995E-04  0.235E-02    8.68       1.0  T
   4    -45.6137274 -0.152428E-05  0.807E-03    8.68       2.6  T
   5    -45.6137275 -0.875382E-07  0.316E-03    8.68       6.6  T
   6    -45.6137275 -0.113699E-07  0.146E-03    8.68      14.3  T
speedup  1.09
cpu  time for SCC    0.01 s
wall time for SCC    0.00 s
speedup  0.97
cpu  time for grad    0.01 s
wall time for grad    0.01 s
 E :    -45.35386926  G :  0.024752    pred/act E change: -0.826D-03 -0.488D-03
Maxdispl :   0.1075   ||displ|| :   0.2042   Lambda : -0.116D-02
Largest |displ|/coords:  0.1075 (   4)  0.0928 (   2)  0.0528 (   7)
................................................................................
.............................. CYCLE   14 ......................................
................................................................................
   1    -45.6209449 -0.456209E+02  0.175E-01    8.62       0.0  T
   2    -45.6209595 -0.145471E-04  0.129E-01    8.62       1.0  T
   3    -45.6209685 -0.907999E-05  0.273E-02    8.62       1.0  T
   4    -45.6209705 -0.191462E-05  0.954E-03    8.62       2.2  T
   5    -45.6209705 -0.934124E-07  0.259E-03    8.62       8.1  T
   6    -45.6209706 -0.997505E-08  0.147E-03    8.62      14.2  T
speedup  1.06
cpu  time for SCC    0.01 s
wall time for SCC    0.00 s
speedup  1.05
cpu  time for grad    0.01 s
wall time for grad    0.01 s
 E :    -45.35428064  G :  0.014799    pred/act E change: -0.880D-03 -0.411D-03
Maxdispl :   0.1720   ||displ|| :   0.2785   Lambda : -0.127D-02
Largest |displ|/coords:  0.1720 (   5)  0.0859 (  11)  0.0760 (   8)
................................................................................
.............................. CYCLE   15 ......................................
................................................................................
   1    -45.6154065 -0.456154E+02  0.279E-01    8.55       0.0  T
   2    -45.6154224 -0.159512E-04  0.211E-01    8.55       1.0  T
   3    -45.6154398 -0.174129E-04  0.224E-02    8.57       1.0  T
   4    -45.6154410 -0.119046E-05  0.105E-02    8.56       2.0  T
   5    -45.6154411 -0.820883E-07  0.294E-03    8.56       7.1  T
   6    -45.6154411 -0.941178E-08  0.169E-03    8.56      12.4  T
speedup  1.06
cpu  time for SCC    0.00 s
wall time for SCC    0.00 s
speedup  1.05
cpu  time for grad    0.01 s
wall time for grad    0.01 s
 E :    -45.35429965  G :  0.026463    pred/act E change: -0.604D-03 -0.190D-04
Maxdispl :   0.0705   ||displ|| :   0.1965   Lambda : -0.123D-02
Largest |displ|/coords:  0.0705 (   5)  0.0692 (   1)  0.0655 (   2)
................................................................................
.............................. CYCLE   16 ......................................
................................................................................
   1    -45.6156381 -0.456156E+02  0.152E-01    8.58       0.0  T
   2    -45.6156448 -0.672122E-05  0.114E-01    8.57       1.0  T
   3    -45.6156501 -0.531358E-05  0.166E-02    8.56       1.3  T
   4    -45.6156510 -0.851803E-06  0.635E-03    8.56       3.3  T
   5    -45.6156510 -0.457498E-07  0.176E-03    8.56      11.8  T
   6    -45.6156510 -0.324151E-08  0.989E-04    8.56      21.1  T
speedup  1.06
cpu  time for SCC    0.01 s
wall time for SCC    0.00 s
speedup  1.05
cpu  time for grad    0.01 s
wall time for grad    0.01 s
 E :    -45.35498864  G :  0.016093    pred/act E change: -0.683D-03 -0.689D-03
Maxdispl :   0.1014   ||displ|| :   0.2161   Lambda : -0.656D-03
Largest |displ|/coords:  0.1014 (   2)  0.1002 (   4)  0.0806 (   5)
................................................................................
.............................. CYCLE   17 ......................................
................................................................................
   1    -45.6174327 -0.456174E+02  0.144E-01    8.68       0.0  T
   2    -45.6174380 -0.528703E-05  0.108E-01    8.67       1.0  T
   3    -45.6174427 -0.470242E-05  0.139E-02    8.67       1.5  T
   4    -45.6174433 -0.591847E-06  0.439E-03    8.67       4.8  T
   5    -45.6174433 -0.185766E-07  0.178E-03    8.67      11.7  T
   6    -45.6174433 -0.348157E-08  0.874E-04    8.67      23.9  T
speedup  0.87
cpu  time for SCC    0.00 s
wall time for SCC    0.00 s
speedup  0.97
cpu  time for grad    0.01 s
wall time for grad    0.01 s
 E :    -45.35526762  G :  0.010606    pred/act E change: -0.639D-03 -0.279D-03
Maxdispl :   0.1947   ||displ|| :   0.3494   Lambda : -0.603D-03
Largest |displ|/coords:  0.1947 (   2)  0.1884 (   5)  0.0901 (   1)
................................................................................
.............................. CYCLE   18 ......................................
................................................................................
   1    -45.6159523 -0.456160E+02  0.271E-01    8.67       0.0  T
   2    -45.6159621 -0.980922E-05  0.204E-01    8.67       1.0  T
   3    -45.6159710 -0.896442E-05  0.203E-02    8.66       1.0  T
   4    -45.6159721 -0.106607E-05  0.781E-03    8.66       2.7  T
   5    -45.6159721 -0.528030E-07  0.245E-03    8.66       8.5  T
   6    -45.6159722 -0.658166E-08  0.140E-03    8.66      14.9  T
speedup  0.85
cpu  time for SCC    0.00 s
wall time for SCC    0.00 s
speedup  0.96
cpu  time for grad    0.01 s
wall time for grad    0.01 s
 E :    -45.35553567  G :  0.023144    pred/act E change: -0.344D-03 -0.268D-03
Maxdispl :   0.1919   ||displ|| :   0.4225   Lambda : -0.129D-02
Largest |displ|/coords:  0.1919 (   6)  0.1707 (   2)  0.1369 (   5)
................................................................................
.............................. CYCLE   19 ......................................
................................................................................
   1    -45.6160915 -0.456161E+02  0.273E-01    8.55       0.0  T
   2    -45.6161117 -0.201758E-04  0.203E-01    8.55       1.0  T
   3    -45.6161264 -0.147170E-04  0.314E-02    8.55       1.0  T
   4    -45.6161288 -0.237069E-05  0.106E-02    8.55       2.0  T
   5    -45.6161289 -0.125217E-06  0.271E-03    8.55       7.7  T
   6    -45.6161289 -0.105030E-07  0.157E-03    8.55      13.3  T
speedup  1.06
cpu  time for SCC    0.00 s
wall time for SCC    0.00 s
speedup  0.96
cpu  time for grad    0.01 s
wall time for grad    0.01 s
 E :    -45.35595999  G :  0.017093    pred/act E change: -0.338D-03 -0.424D-03
Maxdispl :   0.0720   ||displ|| :   0.1633   Lambda : -0.672D-03
Largest |displ|/coords:  0.0720 (   6)  0.0590 (   7)  0.0559 (  11)
................................................................................
.............................. CYCLE   20 ......................................
................................................................................
   1    -45.6207194 -0.456207E+02  0.161E-01    8.77       0.0  T
   2    -45.6207244 -0.502205E-05  0.116E-01    8.77       1.0  T
   3    -45.6207286 -0.416840E-05  0.223E-02    8.76       1.0  T
   4    -45.6207289 -0.319794E-06  0.578E-03    8.76       3.6  T
   5    -45.6207290 -0.508560E-07  0.140E-03    8.76      14.9  T
   6    -45.6207290 -0.228966E-08  0.864E-04    8.76      24.1  T
speedup  1.06
cpu  time for SCC    0.00 s
wall time for SCC    0.00 s
speedup  1.03
cpu  time for grad    0.01 s
wall time for grad    0.01 s
 E :    -45.35625276  G :  0.010741    pred/act E change: -0.762D-03 -0.293D-03
Maxdispl :   0.1950   ||displ|| :   0.3128   Lambda : -0.495D-03
Largest |displ|/coords:  0.1950 (   2)  0.1111 (   4)  0.1027 (   1)
................................................................................
.............................. CYCLE   21 ......................................
................................................................................
   1    -45.6166380 -0.456166E+02  0.236E-01    8.70       0.0  T
   2    -45.6166473 -0.923278E-05  0.177E-01    8.70       1.0  T
   3    -45.6166555 -0.821009E-05  0.225E-02    8.70       1.0  T
   4    -45.6166564 -0.913691E-06  0.732E-03    8.70       2.8  T
   5    -45.6166565 -0.573808E-07  0.216E-03    8.70       9.6  T
   6    -45.6166565 -0.547663E-08  0.132E-03    8.70      15.8  T
speedup  0.87
cpu  time for SCC    0.00 s
wall time for SCC    0.00 s
speedup  0.96
cpu  time for grad    0.01 s
wall time for grad    0.01 s
 E :    -45.35641649  G :  0.017978    pred/act E change: -0.345D-03 -0.164D-03
Maxdispl :   0.0484   ||displ|| :   0.1164   Lambda : -0.395D-03
Largest |displ|/coords:  0.0484 (   5)  0.0450 (  15)  0.0419 (   3)
................................................................................
.............................. CYCLE   22 ......................................
................................................................................
   1    -45.6200457 -0.456200E+02  0.956E-02    8.69       0.0  T
   2    -45.6200485 -0.274326E-05  0.712E-02    8.69       1.0  T
   3    -45.6200507 -0.227482E-05  0.120E-02    8.69       1.7  T
   4    -45.6200510 -0.283811E-06  0.311E-03    8.69       6.7  T
   5    -45.6200510 -0.138824E-07  0.113E-03    8.69      18.5  T
   6    -45.6200510 -0.135953E-08  0.589E-04    8.69      35.4  T
speedup  0.85
cpu  time for SCC    0.00 s
wall time for SCC    0.00 s
speedup  0.96
cpu  time for grad    0.01 s
wall time for grad    0.01 s
 E :    -45.35663743  G :  0.008817    pred/act E change: -0.272D-03 -0.221D-03
Maxdispl :   0.1466   ||displ|| :   0.2818   Lambda : -0.475D-03
Largest |displ|/coords:  0.1466 (   1)  0.0924 (   2)  0.0858 (  19)
................................................................................
.............................. CYCLE   23 ......................................
................................................................................
   1    -45.6187355 -0.456187E+02  0.198E-01    8.73       0.0  T
   2    -45.6187402 -0.469364E-05  0.148E-01    8.73       1.0  T
   3    -45.6187450 -0.472322E-05  0.196E-02    8.73       1.1  T
   4    -45.6187453 -0.323940E-06  0.646E-03    8.73       3.2  T
   5    -45.6187453 -0.463672E-07  0.169E-03    8.73      12.3  T
   6    -45.6187453 -0.198388E-08  0.107E-03    8.73      19.5  T
speedup  1.06
cpu  time for SCC    0.00 s
wall time for SCC    0.00 s
speedup  0.96
cpu  time for grad    0.01 s
wall time for grad    0.01 s
 E :    -45.35688829  G :  0.011209    pred/act E change: -0.200D-03 -0.251D-03
Maxdispl :   0.1201   ||displ|| :   0.2414   Lambda : -0.363D-03
Largest |displ|/coords:  0.1201 (   1)  0.0947 (   2)  0.0929 (   3)
................................................................................
.............................. CYCLE   24 ......................................
................................................................................
   1    -45.6177862 -0.456178E+02  0.188E-01    8.72       0.0  T
   2    -45.6177954 -0.922073E-05  0.141E-01    8.72       1.0  T
   3    -45.6178013 -0.597266E-05  0.212E-02    8.72       1.0  T
   4    -45.6178026 -0.123738E-05  0.765E-03    8.71       2.7  T
   5    -45.6178027 -0.734112E-07  0.176E-03    8.71      11.8  T
   6    -45.6178027 -0.215584E-08  0.103E-03    8.71      20.2  T
speedup  1.06
cpu  time for SCC    0.00 s
wall time for SCC    0.00 s
speedup  1.03
cpu  time for grad    0.01 s
wall time for grad    0.01 s
 E :    -45.35709647  G :  0.013799    pred/act E change: -0.257D-03 -0.208D-03
Maxdispl :   0.1134   ||displ|| :   0.2137   Lambda : -0.416D-03
Largest |displ|/coords:  0.1134 (   1)  0.0817 (   5)  0.0692 (   2)
................................................................................
.............................. CYCLE   25 ......................................
................................................................................
   1    -45.6173614 -0.456174E+02  0.135E-01    8.71       0.0  T
   2    -45.6173673 -0.590494E-05  0.101E-01    8.71       1.0  T
   3    -45.6173703 -0.300573E-05  0.180E-02    8.72       1.2  T
   4    -45.6173712 -0.928199E-06  0.547E-03    8.71       3.8  T
   5    -45.6173712 -0.357252E-07  0.152E-03    8.71      13.7  T
   6    -45.6173712 -0.245922E-08  0.812E-04    8.71      25.7  T
speedup  0.87
cpu  time for SCC    0.00 s
wall time for SCC    0.00 s
speedup  0.96
cpu  time for grad    0.01 s
wall time for grad    0.01 s
 E :    -45.35730494  G :  0.009857    pred/act E change: -0.192D-03 -0.208D-03
Maxdispl :   0.0784   ||displ|| :   0.1816   Lambda : -0.249D-03
Largest |displ|/coords:  0.0784 (   3)  0.0749 (   1)  0.0645 (  19)

generating ANC from model Hessian ...
 Shifting diagonal of input Hessian by   4.571332373321201E-003
 Lowest  eigenvalues of input Hessian
   -0.000000   -0.000000    0.000000    0.000000    0.000000    0.000000
    0.005000    0.005320    0.006288    0.007106    0.007256    0.007687
    0.008250    0.008894    0.009525    0.010104    0.010862    0.012674
 Highest eigenvalues
    1.386786    1.390543    1.479796    2.278933    3.433995    3.814670
 
cpu  time for ANC gen    0.02 s
wall time for ANC gen    0.02 s
................................................................................
.............................. CYCLE   26 ......................................
................................................................................
   1    -45.6180573 -0.456181E+02  0.136E-01    8.76       0.0  T
   2    -45.6180607 -0.334396E-05  0.102E-01    8.76       1.0  T
   3    -45.6180637 -0.301557E-05  0.123E-02    8.76       1.7  T
   4    -45.6180640 -0.345259E-06  0.405E-03    8.76       5.1  T
   5    -45.6180641 -0.206611E-07  0.135E-03    8.76      15.5  T
   6    -45.6180641 -0.164679E-08  0.751E-04    8.76      27.8  T
   7    -45.6180641 -0.823434E-09  0.177E-04    8.76     117.7  T
speedup  0.93
cpu  time for SCC    0.01 s
wall time for SCC    0.01 s
speedup  0.95
cpu  time for grad    0.01 s
wall time for grad    0.01 s
 E :    -45.35744760  G :  0.010657    pred/act E change:  0.000D+00 -0.143D-03
Maxdispl :   0.1147   ||displ|| :   0.1626   Lambda : -0.362D-03
Largest |displ|/coords:  0.1147 (   7)  0.0633 (   1)  0.0568 (   4)
................................................................................
.............................. CYCLE   27 ......................................
................................................................................
   1    -45.6192716 -0.456193E+02  0.172E-01    8.76       0.0  T
   2    -45.6192740 -0.233087E-05  0.130E-01    8.76       1.0  T
   3    -45.6192764 -0.243846E-05  0.831E-03    8.76       2.5  T
   4    -45.6192766 -0.197650E-06  0.304E-03    8.76       6.9  T
   5    -45.6192766 -0.556053E-08  0.133E-03    8.76      15.7  T
   6    -45.6192766 -0.178827E-08  0.557E-04    8.76      37.4  T
speedup  1.09
cpu  time for SCC    0.00 s
wall time for SCC    0.00 s
speedup  1.04
cpu  time for grad    0.01 s
wall time for grad    0.01 s
 E :    -45.35770880  G :  0.006281    pred/act E change:  0.000D+00 -0.261D-03
Maxdispl :   0.1406   ||displ|| :   0.2586   Lambda : -0.352D-03
Largest |displ|/coords:  0.1406 (   7)  0.1381 (   1)  0.1035 (  11)
................................................................................
.............................. CYCLE   28 ......................................
................................................................................
   1    -45.6192157 -0.456192E+02  0.225E-01    8.75       0.0  T
   2    -45.6192188 -0.316682E-05  0.169E-01    8.75       1.0  T
   3    -45.6192221 -0.327726E-05  0.103E-02    8.75       2.0  T
   4    -45.6192224 -0.265697E-06  0.367E-03    8.75       5.7  T
   5    -45.6192224 -0.771431E-08  0.167E-03    8.75      12.5  T
   6    -45.6192224 -0.390192E-08  0.737E-04    8.75      28.3  T
speedup  1.06
cpu  time for SCC    0.00 s
wall time for SCC    0.00 s
speedup  0.96
cpu  time for grad    0.01 s
wall time for grad    0.01 s
 E :    -45.35793455  G :  0.007885    pred/act E change: -0.186D-03 -0.226D-03
Maxdispl :   0.1701   ||displ|| :   0.2623   Lambda : -0.304D-03
Largest |displ|/coords:  0.1701 (   1)  0.1242 (  11)  0.0635 (   4)
................................................................................
.............................. CYCLE   29 ......................................
................................................................................
   1    -45.6185636 -0.456186E+02  0.179E-01    8.73       0.0  T
   2    -45.6185684 -0.474045E-05  0.135E-01    8.73       1.0  T
   3    -45.6185733 -0.497578E-05  0.131E-02    8.74       1.6  T
   4    -45.6185737 -0.415853E-06  0.459E-03    8.73       4.5  T
   5    -45.6185738 -0.205701E-07  0.177E-03    8.73      11.8  T
   6    -45.6185738 -0.296986E-08  0.911E-04    8.73      22.9  T
speedup  1.06
cpu  time for SCC    0.00 s
wall time for SCC    0.00 s
speedup  1.04
cpu  time for grad    0.01 s
wall time for grad    0.01 s
 E :    -45.35814115  G :  0.010093    pred/act E change: -0.188D-03 -0.207D-03
Maxdispl :   0.1497   ||displ|| :   0.2669   Lambda : -0.339D-03
Largest |displ|/coords:  0.1497 (   1)  0.1469 (  11)  0.0602 (   2)
................................................................................
.............................. CYCLE   30 ......................................
................................................................................
   1    -45.6190411 -0.456190E+02  0.168E-01    8.71       0.0  T
   2    -45.6190453 -0.426060E-05  0.126E-01    8.71       1.0  T
   3    -45.6190482 -0.288353E-05  0.128E-02    8.72       1.6  T
   4    -45.6190488 -0.571090E-06  0.466E-03    8.72       4.5  T
   5    -45.6190488 -0.275022E-07  0.132E-03    8.72      15.8  T
   6    -45.6190488 -0.134047E-08  0.774E-04    8.72      26.9  T
speedup  1.09
cpu  time for SCC    0.00 s
wall time for SCC    0.00 s
speedup  1.04
cpu  time for grad    0.01 s
wall time for grad    0.01 s
 E :    -45.35827497  G :  0.010568    pred/act E change: -0.162D-03 -0.134D-03
Maxdispl :   0.2486   ||displ|| :   0.3968   Lambda : -0.502D-03
Largest |displ|/coords:  0.2486 (  11)  0.1900 (   1)  0.0978 (   7)
................................................................................
.............................. CYCLE   31 ......................................
................................................................................
   1    -45.6134928 -0.456135E+02  0.302E-01    8.68       0.0  T
   2    -45.6135107 -0.179340E-04  0.228E-01    8.69       1.0  T
   3    -45.6135311 -0.203921E-04  0.289E-02    8.70       1.0  T
   4    -45.6135326 -0.149219E-05  0.101E-02    8.69       2.1  T
   5    -45.6135327 -0.112674E-06  0.334E-03    8.69       6.2  T
   6    -45.6135327 -0.995597E-08  0.168E-03    8.69      12.4  T
   7    -45.6135327 -0.567907E-08  0.451E-04    8.69      46.2  T
speedup  0.93
cpu  time for SCC    0.00 s
wall time for SCC    0.01 s
speedup  0.98
cpu  time for grad    0.01 s
wall time for grad    0.01 s
 E :    -45.35809606  G :  0.024136    pred/act E change: -0.182D-03  0.179D-03
Maxdispl :   0.1649   ||displ|| :   0.2214   Lambda : -0.960D-03
Largest |displ|/coords:  0.1649 (  11)  0.0798 (   7)  0.0655 (   4)
................................................................................
.............................. CYCLE   32 ......................................
................................................................................
   1    -45.6192744 -0.456193E+02  0.169E-01    8.73       0.0  T
   2    -45.6192830 -0.854995E-05  0.127E-01    8.73       1.0  T
   3    -45.6192914 -0.844545E-05  0.183E-02    8.73       1.1  T
   4    -45.6192924 -0.936850E-06  0.558E-03    8.73       3.7  T
   5    -45.6192924 -0.280005E-07  0.255E-03    8.73       8.2  T
speedup  1.03
cpu  time for SCC    0.00 s
wall time for SCC    0.00 s
speedup  1.03
cpu  time for grad    0.01 s
wall time for grad    0.01 s
 E :    -45.35844176  G :  0.006456    pred/act E change: -0.290D-03 -0.346D-03
Maxdispl :   0.0894   ||displ|| :   0.1556   Lambda : -0.261D-03
Largest |displ|/coords:  0.0894 (   7)  0.0799 (   1)  0.0493 (   4)
................................................................................
.............................. CYCLE   33 ......................................
................................................................................
   1    -45.6162678 -0.456163E+02  0.153E-01    8.72       0.0  T
   2    -45.6162720 -0.421118E-05  0.116E-01    8.72       1.0  T
   3    -45.6162757 -0.369356E-05  0.122E-02    8.72       1.7  T
   4    -45.6162762 -0.508474E-06  0.349E-03    8.72       6.0  T
   5    -45.6162762 -0.110270E-07  0.167E-03    8.72      12.5  T
   6    -45.6162762 -0.280021E-08  0.734E-04    8.72      28.4  T
speedup  1.09
cpu  time for SCC    0.00 s
wall time for SCC    0.00 s
speedup  1.05
cpu  time for grad    0.01 s
wall time for grad    0.01 s
 E :    -45.35836964  G :  0.015559    pred/act E change: -0.503D-03  0.721D-04
Maxdispl :   0.0451   ||displ|| :   0.0908   Lambda : -0.404D-03
Largest |displ|/coords:  0.0451 (   1)  0.0340 (   3)  0.0294 (   7)
................................................................................
.............................. CYCLE   34 ......................................
................................................................................
   1    -45.6190601 -0.456191E+02  0.908E-02    8.73       0.0  T
   2    -45.6190641 -0.400600E-05  0.683E-02    8.74       1.0  T
   3    -45.6190674 -0.321602E-05  0.120E-02    8.74       1.7  T
   4    -45.6190679 -0.497082E-06  0.362E-03    8.74       5.8  T
   5    -45.6190679 -0.181176E-07  0.149E-03    8.74      14.0  T
   6    -45.6190679 -0.198914E-08  0.678E-04    8.74      30.7  T
speedup  0.85
cpu  time for SCC    0.00 s
wall time for SCC    0.00 s
speedup  0.93
cpu  time for grad    0.01 s
wall time for grad    0.01 s
 E :    -45.35856015  G :  0.004885    pred/act E change: -0.134D-03 -0.191D-03
Maxdispl :   0.1038   ||displ|| :   0.1600   Lambda : -0.155D-03
Largest |displ|/coords:  0.1038 (   1)  0.0477 (  11)  0.0401 (   8)
................................................................................
.............................. CYCLE   35 ......................................
................................................................................
   1    -45.6178661 -0.456179E+02  0.123E-01    8.73       0.0  T
   2    -45.6178698 -0.370359E-05  0.926E-02    8.74       1.0  T
   3    -45.6178728 -0.290976E-05  0.134E-02    8.74       1.6  T
   4    -45.6178732 -0.489758E-06  0.400E-03    8.74       5.2  T
   5    -45.6178733 -0.267628E-07  0.138E-03    8.74      15.1  T
   6    -45.6178733 -0.158592E-08  0.756E-04    8.74      27.6  T
speedup  1.09
cpu  time for SCC    0.00 s
wall time for SCC    0.00 s
speedup  1.05
cpu  time for grad    0.01 s
wall time for grad    0.01 s
 E :    -45.35861986  G :  0.006223    pred/act E change: -0.204D-03 -0.597D-04
Maxdispl :   0.0667   ||displ|| :   0.1262   Lambda : -0.130D-03
Largest |displ|/coords:  0.0667 (   1)  0.0475 (   4)  0.0436 (   7)
................................................................................
.............................. CYCLE   36 ......................................
................................................................................
   1    -45.6173837 -0.456174E+02  0.858E-02    8.74       0.0  T
   2    -45.6173850 -0.132397E-05  0.645E-02    8.74       1.0  T
   3    -45.6173857 -0.688370E-06  0.773E-03    8.74       2.7  T
   4    -45.6173859 -0.248820E-06  0.248E-03    8.74       8.4  T
   5    -45.6173859 -0.796597E-08  0.718E-04    8.74      29.1  T
speedup  1.03
cpu  time for SCC    0.00 s
wall time for SCC    0.00 s
speedup  1.03
cpu  time for grad    0.01 s
wall time for grad    0.01 s
 E :    -45.35873897  G :  0.004959    pred/act E change: -0.794D-04 -0.119D-03
Maxdispl :   0.2798   ||displ|| :   0.5649   Lambda : -0.531D-03
Largest |displ|/coords:  0.2798 (   1)  0.2079 (   4)  0.1907 (  31)
................................................................................
.............................. CYCLE   37 ......................................
................................................................................
   1    -45.6118553 -0.456119E+02  0.384E-01    8.72       0.0  T
   2    -45.6118898 -0.344680E-04  0.289E-01    8.73       1.0  T
   3    -45.6119076 -0.178224E-04  0.400E-02    8.74       1.0  T
   4    -45.6119138 -0.622464E-05  0.132E-02    8.74       1.6  T
   5    -45.6119141 -0.264715E-06  0.417E-03    8.74       5.0  T
   6    -45.6119141 -0.109858E-07  0.245E-03    8.74       8.5  T
   7    -45.6119141 -0.109927E-07  0.653E-04    8.74      31.9  T
speedup  0.94
cpu  time for SCC    0.01 s
wall time for SCC    0.01 s
speedup  0.98
cpu  time for grad    0.01 s
wall time for grad    0.01 s
 E :    -45.35890815  G :  0.018718    pred/act E change: -0.661D-04 -0.169D-03
Maxdispl :   0.0941   ||displ|| :   0.1696   Lambda : -0.430D-03
Largest |displ|/coords:  0.0941 (   1)  0.0756 (  11)  0.0585 (   7)
................................................................................
.............................. CYCLE   38 ......................................
................................................................................
   1    -45.6176780 -0.456177E+02  0.127E-01    8.76       0.0  T
   2    -45.6176844 -0.637560E-05  0.953E-02    8.76       1.0  T
   3    -45.6176886 -0.420248E-05  0.167E-02    8.75       1.3  T
   4    -45.6176895 -0.889887E-06  0.561E-03    8.76       3.7  T
   5    -45.6176896 -0.600056E-07  0.206E-03    8.76      10.1  T
   6    -45.6176896 -0.380627E-08  0.105E-03    8.76      19.8  T
speedup  1.06
cpu  time for SCC    0.00 s
wall time for SCC    0.00 s
speedup  1.04
cpu  time for grad    0.01 s
wall time for grad    0.01 s
 E :    -45.35907602  G :  0.010114    pred/act E change: -0.350D-03 -0.168D-03
Maxdispl :   0.0943   ||displ|| :   0.1588   Lambda : -0.200D-03
Largest |displ|/coords:  0.0943 (   1)  0.0533 (   3)  0.0428 (   9)
................................................................................
.............................. CYCLE   39 ......................................
................................................................................
   1    -45.6162604 -0.456163E+02  0.108E-01    8.75       0.0  T
   2    -45.6162632 -0.278303E-05  0.816E-02    8.75       1.0  T
   3    -45.6162657 -0.247665E-05  0.102E-02    8.75       2.0  T
   4    -45.6162660 -0.339415E-06  0.375E-03    8.75       5.6  T
   5    -45.6162660 -0.187547E-07  0.120E-03    8.75      17.4  T
   6    -45.6162660 -0.147393E-08  0.658E-04    8.75      31.7  T
speedup  1.09
cpu  time for SCC    0.00 s
wall time for SCC    0.00 s
speedup  1.04
cpu  time for grad    0.01 s
wall time for grad    0.01 s
 E :    -45.35921430  G :  0.004656    pred/act E change: -0.221D-03 -0.138D-03
Maxdispl :   0.1768   ||displ|| :   0.4088   Lambda : -0.299D-03
Largest |displ|/coords:  0.1768 (   1)  0.1341 (   3)  0.1326 (  31)
................................................................................
.............................. CYCLE   40 ......................................
................................................................................
   1    -45.6119670 -0.456120E+02  0.269E-01    8.72       0.0  T
   2    -45.6119827 -0.156940E-04  0.202E-01    8.73       1.0  T
   3    -45.6119933 -0.106664E-04  0.278E-02    8.73       1.0  T
   4    -45.6119958 -0.246143E-05  0.975E-03    8.73       2.1  T
   5    -45.6119959 -0.110794E-06  0.292E-03    8.73       7.1  T
   6    -45.6119959 -0.575394E-08  0.173E-03    8.73      12.1  T
speedup  0.85
cpu  time for SCC    0.00 s
wall time for SCC    0.00 s
speedup  0.96
cpu  time for grad    0.01 s
wall time for grad    0.01 s
 E :    -45.35937353  G :  0.010289    pred/act E change: -0.103D-03 -0.159D-03
Maxdispl :   0.0429   ||displ|| :   0.0872   Lambda : -0.160D-03
Largest |displ|/coords:  0.0429 (   3)  0.0401 (   9)  0.0253 (   4)
................................................................................
.............................. CYCLE   41 ......................................
................................................................................
   1    -45.6136851 -0.456137E+02  0.658E-02    8.74       0.0  T
   2    -45.6136865 -0.141121E-05  0.496E-02    8.74       1.0  T
   3    -45.6136876 -0.106046E-05  0.858E-03    8.74       2.4  T
   4    -45.6136878 -0.191234E-06  0.320E-03    8.74       6.5  T
   5    -45.6136878 -0.138648E-07  0.906E-04    8.74      23.0  T
   6    -45.6136878 -0.918988E-09  0.494E-04    8.74      42.2  T
speedup  1.09
cpu  time for SCC    0.01 s
wall time for SCC    0.00 s
speedup  1.04
cpu  time for grad    0.01 s
wall time for grad    0.01 s
 E :    -45.35947743  G :  0.006374    pred/act E change: -0.174D-03 -0.104D-03
Maxdispl :   0.0721   ||displ|| :   0.1761   Lambda : -0.135D-03
Largest |displ|/coords:  0.0721 (   3)  0.0687 (   9)  0.0561 (   4)
................................................................................
.............................. CYCLE   42 ......................................
................................................................................
   1    -45.6148848 -0.456149E+02  0.105E-01    8.75       0.0  T
   2    -45.6148867 -0.186700E-05  0.789E-02    8.76       1.0  T
   3    -45.6148881 -0.139297E-05  0.921E-03    8.76       2.3  T
   4    -45.6148884 -0.262853E-06  0.385E-03    8.76       5.4  T
   5    -45.6148884 -0.140510E-07  0.901E-04    8.76      23.1  T
   6    -45.6148884 -0.601055E-09  0.556E-04    8.76      37.5  T
speedup  1.04
cpu  time for SCC    0.00 s
wall time for SCC    0.00 s
speedup  1.03
cpu  time for grad    0.01 s
wall time for grad    0.01 s
 E :    -45.35956546  G :  0.005027    pred/act E change: -0.804D-04 -0.880D-04
Maxdispl :   0.1232   ||displ|| :   0.2732   Lambda : -0.133D-03
Largest |displ|/coords:  0.1232 (   9)  0.1140 (   4)  0.1117 (   3)
................................................................................
.............................. CYCLE   43 ......................................
................................................................................
   1    -45.6141626 -0.456142E+02  0.163E-01    8.75       0.0  T
   2    -45.6141671 -0.447967E-05  0.122E-01    8.75       1.0  T
   3    -45.6141706 -0.345233E-05  0.155E-02    8.76       1.3  T
   4    -45.6141712 -0.594142E-06  0.612E-03    8.76       3.4  T
   5    -45.6141712 -0.327331E-07  0.140E-03    8.76      14.9  T
   6    -45.6141712 -0.148695E-08  0.867E-04    8.76      24.1  T
speedup  0.85
cpu  time for SCC    0.00 s
wall time for SCC    0.00 s
speedup  0.96
cpu  time for grad    0.01 s
wall time for grad    0.01 s
 E :    -45.35965786  G :  0.005943    pred/act E change: -0.694D-04 -0.924D-04
Maxdispl :   0.1483   ||displ|| :   0.2979   Lambda : -0.146D-03
Largest |displ|/coords:  0.1483 (   9)  0.1302 (   4)  0.1016 (   2)
................................................................................
.............................. CYCLE   44 ......................................
................................................................................
   1    -45.6147417 -0.456147E+02  0.164E-01    8.76       0.0  T
   2    -45.6147470 -0.529881E-05  0.122E-01    8.76       1.0  T
   3    -45.6147508 -0.379546E-05  0.186E-02    8.77       1.1  T
   4    -45.6147514 -0.645313E-06  0.697E-03    8.77       3.0  T
   5    -45.6147514 -0.428452E-07  0.146E-03    8.77      14.3  T
   6    -45.6147515 -0.200737E-08  0.937E-04    8.77      22.2  T
speedup  1.06
cpu  time for SCC    0.01 s
wall time for SCC    0.00 s
speedup  1.04
cpu  time for grad    0.01 s
wall time for grad    0.01 s
 E :    -45.35976671  G :  0.006861    pred/act E change: -0.717D-04 -0.109D-03
Maxdispl :   0.2511   ||displ|| :   0.4958   Lambda : -0.210D-03
Largest |displ|/coords:  0.2511 (   9)  0.2304 (   4)  0.1751 (   5)
................................................................................
.............................. CYCLE   45 ......................................
................................................................................
   1    -45.6109811 -0.456110E+02  0.290E-01    8.71       0.0  T
   2    -45.6109952 -0.141593E-04  0.216E-01    8.72       1.0  T
   3    -45.6110056 -0.103105E-04  0.295E-02    8.74       1.0  T
   4    -45.6110075 -0.190228E-05  0.127E-02    8.73       1.6  T
   5    -45.6110076 -0.113884E-06  0.244E-03    8.73       8.6  T
   6    -45.6110076 -0.530402E-08  0.158E-03    8.73      13.2  T
speedup  1.09
cpu  time for SCC    0.00 s
wall time for SCC    0.00 s
speedup  1.04
cpu  time for grad    0.01 s
wall time for grad    0.01 s
 E :    -45.35985834  G :  0.012235    pred/act E change: -0.793D-04 -0.916D-04
Maxdispl :   0.1048   ||displ|| :   0.2565   Lambda : -0.386D-03
Largest |displ|/coords:  0.1048 (   4)  0.1045 (   9)  0.0917 (   5)
................................................................................
.............................. CYCLE   46 ......................................
................................................................................
   1    -45.6157828 -0.456158E+02  0.165E-01    8.75       0.0  T
   2    -45.6157903 -0.749668E-05  0.117E-01    8.76       1.0  T
   3    -45.6157961 -0.582653E-05  0.240E-02    8.76       1.0  T
   4    -45.6157967 -0.570264E-06  0.636E-03    8.76       3.3  T
   5    -45.6157968 -0.524788E-07  0.197E-03    8.76      10.6  T
   6    -45.6157968 -0.439493E-08  0.106E-03    8.76      19.8  T
speedup  0.87
cpu  time for SCC    0.00 s
wall time for SCC    0.00 s
speedup  0.96
cpu  time for grad    0.01 s
wall time for grad    0.01 s
 E :    -45.36001393  G :  0.011642    pred/act E change: -0.131D-03 -0.156D-03
Maxdispl :   0.0733   ||displ|| :   0.1607   Lambda : -0.320D-03
Largest |displ|/coords:  0.0733 (   4)  0.0628 (   5)  0.0530 (   2)
................................................................................
.............................. CYCLE   47 ......................................
................................................................................
   1    -45.6149912 -0.456150E+02  0.131E-01    8.77       0.0  T
   2    -45.6149988 -0.757921E-05  0.935E-02    8.77       1.0  T
   3    -45.6150026 -0.386613E-05  0.200E-02    8.77       1.0  T
   4    -45.6150033 -0.681843E-06  0.703E-03    8.77       3.0  T
   5    -45.6150034 -0.465478E-07  0.139E-03    8.77      15.0  T
   6    -45.6150034 -0.293184E-08  0.878E-04    8.77      23.8  T
speedup  1.06
cpu  time for SCC    0.01 s
wall time for SCC    0.00 s
speedup  0.96
cpu  time for grad    0.01 s
wall time for grad    0.01 s
 E :    -45.36010406  G :  0.009296    pred/act E change: -0.205D-03 -0.901D-04
Maxdispl :   0.0664   ||displ|| :   0.1666   Lambda : -0.364D-03
Largest |displ|/coords:  0.0664 (   9)  0.0656 (   5)  0.0571 (   3)
................................................................................
.............................. CYCLE   48 ......................................
................................................................................
   1    -45.6133396 -0.456133E+02  0.118E-01    8.76       0.0  T
   2    -45.6133428 -0.320479E-05  0.881E-02    8.76       1.0  T
   3    -45.6133455 -0.269268E-05  0.138E-02    8.76       1.5  T
   4    -45.6133459 -0.345220E-06  0.445E-03    8.76       4.7  T
   5    -45.6133459 -0.260541E-07  0.137E-03    8.76      15.2  T
   6    -45.6133459 -0.282170E-08  0.865E-04    8.76      24.1  T
speedup  1.06
cpu  time for SCC    0.00 s
wall time for SCC    0.00 s
speedup  1.04
cpu  time for grad    0.01 s
wall time for grad    0.01 s
 E :    -45.36027999  G :  0.009013    pred/act E change: -0.164D-03 -0.176D-03
Maxdispl :   0.0552   ||displ|| :   0.1383   Lambda : -0.224D-03
Largest |displ|/coords:  0.0552 (   2)  0.0517 (   4)  0.0510 (   9)
................................................................................
.............................. CYCLE   49 ......................................
................................................................................
   1    -45.6123822 -0.456124E+02  0.106E-01    8.74       0.0  T
   2    -45.6123841 -0.197033E-05  0.789E-02    8.74       1.0  T
   3    -45.6123855 -0.135621E-05  0.992E-03    8.75       2.1  T
   4    -45.6123858 -0.260972E-06  0.289E-03    8.75       7.2  T
   5    -45.6123858 -0.960699E-08  0.910E-04    8.75      22.9  T
speedup  1.03
cpu  time for SCC    0.00 s
wall time for SCC    0.00 s
speedup  1.04
cpu  time for grad    0.01 s
wall time for grad    0.01 s
 E :    -45.36037450  G :  0.010020    pred/act E change: -0.187D-03 -0.945D-04
Maxdispl :   0.0850   ||displ|| :   0.1370   Lambda : -0.199D-03
Largest |displ|/coords:  0.0850 (   2)  0.0479 (   3)  0.0405 (   8)
................................................................................
.............................. CYCLE   50 ......................................
................................................................................
   1    -45.6162674 -0.456163E+02  0.774E-02    8.78       0.0  T
   2    -45.6162694 -0.199718E-05  0.567E-02    8.78       1.0  T
   3    -45.6162710 -0.161873E-05  0.105E-02    8.77       2.0  T
   4    -45.6162712 -0.172616E-06  0.284E-03    8.77       7.3  T
   5    -45.6162712 -0.107604E-07  0.959E-04    8.77      21.7  T
speedup  1.03
cpu  time for SCC    0.00 s
wall time for SCC    0.00 s
speedup  1.03
cpu  time for grad    0.01 s
wall time for grad    0.01 s
 E :    -45.36044162  G :  0.006945    pred/act E change: -0.114D-03 -0.671D-04
Maxdispl :   0.1277   ||displ|| :   0.2351   Lambda : -0.195D-03
Largest |displ|/coords:  0.1277 (   4)  0.1069 (   9)  0.0890 (   5)
................................................................................
.............................. CYCLE   51 ......................................
................................................................................
   1    -45.6151230 -0.456151E+02  0.157E-01    8.75       0.0  T
   2    -45.6151309 -0.788052E-05  0.117E-01    8.75       1.0  T
   3    -45.6151359 -0.495789E-05  0.223E-02    8.76       1.0  T
   4    -45.6151370 -0.107785E-05  0.915E-03    8.76       2.3  T
   5    -45.6151370 -0.745099E-07  0.189E-03    8.76      11.0  T
   6    -45.6151370 -0.451457E-08  0.124E-03    8.76      16.9  T
speedup  1.06
cpu  time for SCC    0.01 s
wall time for SCC    0.00 s
speedup  1.04
cpu  time for grad    0.01 s
wall time for grad    0.01 s
 E :    -45.36054972  G :  0.007496    pred/act E change: -0.102D-03 -0.108D-03
Maxdispl :   0.0632   ||displ|| :   0.1139   Lambda : -0.161D-03
Largest |displ|/coords:  0.0632 (   2)  0.0375 (   6)  0.0372 (  12)
................................................................................
.............................. CYCLE   52 ......................................
................................................................................
   1    -45.6163565 -0.456164E+02  0.741E-02    8.80       0.0  T
   2    -45.6163575 -0.102398E-05  0.552E-02    8.80       1.0  T
   3    -45.6163584 -0.886078E-06  0.717E-03    8.80       2.9  T
   4    -45.6163585 -0.106541E-06  0.313E-03    8.80       6.7  T
   5    -45.6163585 -0.980775E-08  0.788E-04    8.80      26.5  T
   6    -45.6163585 -0.600892E-09  0.517E-04    8.80      40.4  T
speedup  1.06
cpu  time for SCC    0.00 s
wall time for SCC    0.00 s
speedup  0.96
cpu  time for grad    0.01 s
wall time for grad    0.01 s
 E :    -45.36060797  G :  0.006728    pred/act E change: -0.103D-03 -0.582D-04
Maxdispl :   0.1515   ||displ|| :   0.2583   Lambda : -0.190D-03
Largest |displ|/coords:  0.1515 (   9)  0.1064 (   4)  0.0830 (   5)

generating ANC from model Hessian ...
 Shifting diagonal of input Hessian by   5.009021814690276E-003
 Lowest  eigenvalues of input Hessian
    0.005000   -0.000000   -0.000000    0.000000    0.000000    0.000000
    0.000000    0.005369    0.005773    0.006412    0.007235    0.007536
    0.008858    0.010288    0.010800    0.011098    0.013073    0.015066
 Highest eigenvalues
    1.381342    1.388100    1.465199    2.391857    3.300131    3.820257
 
cpu  time for ANC gen    0.02 s
wall time for ANC gen    0.02 s
................................................................................
.............................. CYCLE   53 ......................................
................................................................................
   1    -45.6140221 -0.456140E+02  0.182E-01    8.76       0.0  T
   2    -45.6140286 -0.653885E-05  0.136E-01    8.76       1.0  T
   3    -45.6140332 -0.461691E-05  0.207E-02    8.77       1.0  T
   4    -45.6140342 -0.955952E-06  0.622E-03    8.77       3.4  T
   5    -45.6140342 -0.434502E-07  0.185E-03    8.77      11.3  T
   6    -45.6140342 -0.382583E-08  0.104E-03    8.77      20.1  T
   7    -45.6140342 -0.205625E-08  0.273E-04    8.77      76.3  T
   8    -45.6140342 -0.181828E-09  0.914E-05    8.77     228.1  T
speedup  1.15
cpu  time for SCC    0.01 s
wall time for SCC    0.01 s
speedup  1.04
cpu  time for grad    0.01 s
wall time for grad    0.01 s
 E :    -45.36063048  G :  0.008803    pred/act E change:  0.000D+00 -0.225D-04
Maxdispl :   0.1019   ||displ|| :   0.1368   Lambda : -0.256D-03
Largest |displ|/coords:  0.1019 (   2)  0.0444 (   4)  0.0340 (   6)
................................................................................
.............................. CYCLE   54 ......................................
................................................................................
   1    -45.6157455 -0.456157E+02  0.961E-02    8.79       0.0  T
   2    -45.6157469 -0.142727E-05  0.725E-02    8.79       1.0  T
   3    -45.6157484 -0.147942E-05  0.733E-03    8.79       2.8  T
   4    -45.6157486 -0.151908E-06  0.327E-03    8.79       6.4  T
   5    -45.6157486 -0.131822E-07  0.916E-04    8.79      22.8  T
   6    -45.6157486 -0.944006E-09  0.521E-04    8.79      40.0  T
speedup  0.85
cpu  time for SCC    0.00 s
wall time for SCC    0.00 s
speedup  0.95
cpu  time for grad    0.01 s
wall time for grad    0.01 s
 E :    -45.36078271  G :  0.003934    pred/act E change:  0.000D+00 -0.152D-03
Maxdispl :   0.1015   ||displ|| :   0.1490   Lambda : -0.158D-03
Largest |displ|/coords:  0.1015 (   2)  0.0489 (   3)  0.0473 (   6)
................................................................................
.............................. CYCLE   55 ......................................
................................................................................
   1    -45.6171274 -0.456171E+02  0.992E-02    8.82       0.0  T
   2    -45.6171288 -0.142911E-05  0.746E-02    8.82       1.0  T
   3    -45.6171298 -0.106725E-05  0.659E-03    8.82       3.2  T
   4    -45.6171301 -0.211985E-06  0.280E-03    8.82       7.5  T
   5    -45.6171301 -0.145160E-07  0.968E-04    8.82      21.5  T
   6    -45.6171301 -0.947701E-09  0.542E-04    8.82      38.5  T
speedup  1.09
cpu  time for SCC    0.00 s
wall time for SCC    0.00 s
speedup  1.01
cpu  time for grad    0.01 s
wall time for grad    0.01 s
 E :    -45.36087590  G :  0.003989    pred/act E change: -0.130D-03 -0.932D-04
Maxdispl :   0.0926   ||displ|| :   0.1542   Lambda : -0.998D-04
Largest |displ|/coords:  0.0926 (   2)  0.0641 (   3)  0.0569 (   6)
................................................................................
.............................. CYCLE   56 ......................................
................................................................................
   1    -45.6173304 -0.456173E+02  0.978E-02    8.84       0.0  T
   2    -45.6173317 -0.133849E-05  0.738E-02    8.84       1.0  T
   3    -45.6173329 -0.120930E-05  0.647E-03    8.84       3.2  T
   4    -45.6173331 -0.158987E-06  0.307E-03    8.84       6.8  T
   5    -45.6173331 -0.120743E-07  0.897E-04    8.84      23.2  T
   6    -45.6173331 -0.856204E-09  0.542E-04    8.84      38.5  T
speedup  1.04
cpu  time for SCC    0.01 s
wall time for SCC    0.00 s
speedup  0.99
cpu  time for grad    0.01 s
wall time for grad    0.01 s
 E :    -45.36094215  G :  0.004447    pred/act E change: -0.805D-04 -0.663D-04
Maxdispl :   0.1173   ||displ|| :   0.1830   Lambda : -0.890D-04
Largest |displ|/coords:  0.1173 (   2)  0.0794 (   3)  0.0599 (   4)
................................................................................
.............................. CYCLE   57 ......................................
................................................................................
   1    -45.6167425 -0.456167E+02  0.111E-01    8.85       0.0  T
   2    -45.6167444 -0.188760E-05  0.833E-02    8.85       1.0  T
   3    -45.6167458 -0.135473E-05  0.879E-03    8.85       2.4  T
   4    -45.6167461 -0.282227E-06  0.328E-03    8.85       6.4  T
   5    -45.6167461 -0.138918E-07  0.100E-03    8.85      20.8  T
   6    -45.6167461 -0.100883E-08  0.577E-04    8.85      36.1  T
speedup  1.09
cpu  time for SCC    0.00 s
wall time for SCC    0.00 s
speedup  0.96
cpu  time for grad    0.01 s
wall time for grad    0.01 s
 E :    -45.36099559  G :  0.005003    pred/act E change: -0.511D-04 -0.534D-04
Maxdispl :   0.0446   ||displ|| :   0.0831   Lambda : -0.507D-04
Largest |displ|/coords:  0.0446 (   2)  0.0316 (   3)  0.0268 (  13)
................................................................................
.............................. CYCLE   58 ......................................
................................................................................
   1    -45.6170452 -0.456170E+02  0.455E-02    8.86       0.0  T
   2    -45.6170459 -0.766690E-06  0.340E-02    8.85       1.0  T
   3    -45.6170464 -0.485016E-06  0.610E-03    8.85       3.4  T
   4    -45.6170465 -0.109252E-06  0.187E-03    8.85      11.2  T
   5    -45.6170465 -0.562025E-08  0.621E-04    8.85      33.6  T
speedup  1.03
cpu  time for SCC    0.00 s
wall time for SCC    0.00 s
speedup  0.93
cpu  time for grad    0.01 s
wall time for grad    0.01 s
 E :    -45.36102696  G :  0.003212    pred/act E change: -0.460D-04 -0.314D-04
Maxdispl :   0.0565   ||displ|| :   0.0826   Lambda : -0.301D-04
Largest |displ|/coords:  0.0565 (   2)  0.0285 (   3)  0.0234 (   4)
................................................................................
.............................. CYCLE   59 ......................................
................................................................................
   1    -45.6171877 -0.456172E+02  0.530E-02    8.86       0.0  T
   2    -45.6171882 -0.528301E-06  0.395E-02    8.86       1.0  T
   3    -45.6171886 -0.419107E-06  0.627E-03    8.85       3.3  T
   4    -45.6171887 -0.681560E-07  0.186E-03    8.86      11.2  T
   5    -45.6171887 -0.388599E-08  0.540E-04    8.86      38.6  T
   6    -45.6171887 -0.324974E-09  0.335E-04    8.86      62.3  T
speedup  1.09
cpu  time for SCC    0.00 s
wall time for SCC    0.00 s
speedup  1.02
cpu  time for grad    0.01 s
wall time for grad    0.01 s
 E :    -45.36104925  G :  0.002627    pred/act E change: -0.255D-04 -0.223D-04
Maxdispl :   0.0603   ||displ|| :   0.0991   Lambda : -0.330D-04
Largest |displ|/coords:  0.0603 (   2)  0.0337 (   1)  0.0290 (   7)
................................................................................
.............................. CYCLE   60 ......................................
................................................................................
   1    -45.6176435 -0.456176E+02  0.691E-02    8.86       0.0  T
   2    -45.6176443 -0.806041E-06  0.511E-02    8.86       1.0  T
   3    -45.6176450 -0.720368E-06  0.874E-03    8.85       2.4  T
   4    -45.6176451 -0.819372E-07  0.242E-03    8.86       8.6  T
   5    -45.6176451 -0.747270E-08  0.690E-04    8.86      30.2  T
   6    -45.6176451 -0.418467E-09  0.448E-04    8.86      46.5  T
speedup  0.87
cpu  time for SCC    0.00 s
wall time for SCC    0.00 s
speedup  0.93
cpu  time for grad    0.01 s
wall time for grad    0.01 s
 E :    -45.36107032  G :  0.002063    pred/act E change: -0.151D-04 -0.211D-04
Maxdispl :   0.0348   ||displ|| :   0.0672   Lambda : -0.156D-04
Largest |displ|/coords:  0.0348 (   2)  0.0287 (   1)  0.0194 (   7)
................................................................................
.............................. CYCLE   61 ......................................
................................................................................
   1    -45.6177778 -0.456178E+02  0.499E-02    8.85       0.0  T
   2    -45.6177782 -0.369695E-06  0.369E-02    8.85       1.0  T
   3    -45.6177786 -0.366232E-06  0.610E-03    8.85       3.4  T
   4    -45.6177786 -0.309227E-07  0.162E-03    8.85      12.9  T
   5    -45.6177786 -0.359798E-08  0.462E-04    8.85      45.1  T
   6    -45.6177786 -0.171049E-09  0.299E-04    8.85      69.8  T
speedup  1.06
cpu  time for SCC    0.00 s
wall time for SCC    0.00 s
speedup  1.01
cpu  time for grad    0.01 s
wall time for grad    0.01 s
 E :    -45.36108178  G :  0.002412    pred/act E change: -0.167D-04 -0.115D-04
Maxdispl :   0.0524   ||displ|| :   0.1019   Lambda : -0.225D-04
Largest |displ|/coords:  0.0524 (   1)  0.0334 (   7)  0.0326 (   2)
................................................................................
.............................. CYCLE   62 ......................................
................................................................................
   1    -45.6182230 -0.456182E+02  0.729E-02    8.85       0.0  T
   2    -45.6182238 -0.848131E-06  0.538E-02    8.85       1.0  T
   3    -45.6182246 -0.773445E-06  0.916E-03    8.85       2.3  T
   4    -45.6182247 -0.742252E-07  0.251E-03    8.85       8.3  T
   5    -45.6182247 -0.755392E-08  0.681E-04    8.85      30.6  T
   6    -45.6182247 -0.365226E-09  0.421E-04    8.85      49.5  T
speedup  1.06
cpu  time for SCC    0.00 s
wall time for SCC    0.00 s
speedup  1.01
cpu  time for grad    0.01 s
wall time for grad    0.01 s
 E :    -45.36109758  G :  0.002347    pred/act E change: -0.782D-05 -0.158D-04
Maxdispl :   0.0832   ||displ|| :   0.1513   Lambda : -0.256D-04
Largest |displ|/coords:  0.0832 (   1)  0.0521 (   2)  0.0470 (   7)
................................................................................
.............................. CYCLE   63 ......................................
................................................................................
   1    -45.6179357 -0.456179E+02  0.107E-01    8.85       0.0  T
   2    -45.6179374 -0.164417E-05  0.794E-02    8.85       1.0  T
   3    -45.6179389 -0.158670E-05  0.124E-02    8.85       1.7  T
   4    -45.6179391 -0.142243E-06  0.372E-03    8.85       5.6  T
   5    -45.6179391 -0.157157E-07  0.968E-04    8.85      21.5  T
   6    -45.6179391 -0.638451E-09  0.607E-04    8.85      34.3  T
speedup  1.06
cpu  time for SCC    0.00 s
wall time for SCC    0.00 s
speedup  0.99
cpu  time for grad    0.01 s
wall time for grad    0.01 s
 E :    -45.36111206  G :  0.003956    pred/act E change: -0.114D-04 -0.145D-04
Maxdispl :   0.0956   ||displ|| :   0.1687   Lambda : -0.407D-04
Largest |displ|/coords:  0.0956 (   1)  0.0632 (   4)  0.0553 (   5)
................................................................................
.............................. CYCLE   64 ......................................
................................................................................
   1    -45.6188027 -0.456188E+02  0.930E-02    8.85       0.0  T
   2    -45.6188045 -0.181057E-05  0.684E-02    8.85       1.0  T
   3    -45.6188060 -0.145245E-05  0.124E-02    8.85       1.7  T
   4    -45.6188061 -0.178772E-06  0.363E-03    8.85       5.7  T
   5    -45.6188062 -0.152326E-07  0.975E-04    8.85      21.4  T
   6    -45.6188062 -0.935025E-09  0.561E-04    8.85      37.1  T
speedup  0.85
cpu  time for SCC    0.00 s
wall time for SCC    0.00 s
speedup  0.92
cpu  time for grad    0.01 s
wall time for grad    0.01 s
 E :    -45.36113584  G :  0.003076    pred/act E change: -0.131D-04 -0.238D-04
Maxdispl :   0.1859   ||displ|| :   0.3235   Lambda : -0.566D-04
Largest |displ|/coords:  0.1859 (   1)  0.0877 (   3)  0.0832 (  16)
................................................................................
.............................. CYCLE   65 ......................................
................................................................................
   1    -45.6181408 -0.456181E+02  0.201E-01    8.84       0.0  T
   2    -45.6181467 -0.588017E-05  0.150E-01    8.84       1.0  T
   3    -45.6181524 -0.571415E-05  0.224E-02    8.84       1.0  T
   4    -45.6181529 -0.498251E-06  0.684E-03    8.84       3.0  T
   5    -45.6181529 -0.526857E-07  0.197E-03    8.84      10.6  T
   6    -45.6181529 -0.261105E-08  0.117E-03    8.84      17.8  T
   7    -45.6181529 -0.150858E-08  0.251E-04    8.84      83.1  T
   8    -45.6181529 -0.175689E-09  0.992E-05    8.84     210.1  T
speedup  0.98
cpu  time for SCC    0.01 s
wall time for SCC    0.01 s
speedup  1.05
cpu  time for grad    0.01 s
wall time for grad    0.01 s
 E :    -45.36118783  G :  0.007201    pred/act E change: -0.209D-04 -0.520D-04
Maxdispl :   0.4074   ||displ|| :   0.6916   Lambda : -0.166D-03
Largest |displ|/coords:  0.4074 (   1)  0.2121 (   3)  0.1923 (   4)
................................................................................
.............................. CYCLE   66 ......................................
[...]
   2    -45.6276216 -0.292789E-06  0.373E-02    8.81       1.0  T
   3    -45.6276218 -0.245734E-06  0.378E-03    8.81       5.5  T
   4    -45.6276219 -0.368185E-07  0.142E-03    8.81      14.6  T
   5    -45.6276219 -0.144261E-08  0.313E-04    8.81      66.7  T
   6    -45.6276219 -0.555360E-10  0.198E-04    8.81     105.1  T
speedup  0.87
cpu  time for SCC    0.00 s
wall time for SCC    0.00 s
speedup  0.92
cpu  time for grad    0.01 s
wall time for grad    0.01 s
 E :    -45.36808261  G :  0.001066    pred/act E change: -0.173D-05 -0.450D-05
Maxdispl :   0.0259   ||displ|| :   0.0345   Lambda : -0.306D-05
Largest |displ|/coords:  0.0259 (   1)  0.0093 (  31)  0.0085 (  15)
................................................................................
.............................. CYCLE  133 ......................................
................................................................................
   1    -45.6276441 -0.456276E+02  0.248E-02    8.81       0.0  T
   2    -45.6276441 -0.676874E-07  0.187E-02    8.81       1.1  T
   3    -45.6276442 -0.527092E-07  0.169E-03    8.81      12.4  T
   4    -45.6276442 -0.924270E-08  0.698E-04    8.81      29.9  T
   5    -45.6276442 -0.361823E-09  0.154E-04    8.81     135.1  T
speedup  1.03
cpu  time for SCC    0.00 s
wall time for SCC    0.00 s
speedup  1.08
cpu  time for grad    0.01 s
wall time for grad    0.01 s
 E :    -45.36808487  G :  0.000930    pred/act E change: -0.348D-05 -0.226D-05
Maxdispl :   0.0321   ||displ|| :   0.0411   Lambda : -0.287D-05
Largest |displ|/coords:  0.0321 (   1)  0.0097 (  31)  0.0096 (  15)
................................................................................
.............................. CYCLE  134 ......................................
................................................................................
   1    -45.6276844 -0.456277E+02  0.290E-02    8.81       0.0  T
   2    -45.6276845 -0.101470E-06  0.219E-02    8.81       1.0  T
   3    -45.6276845 -0.790813E-07  0.191E-03    8.81      10.9  T
   4    -45.6276846 -0.142189E-07  0.831E-04    8.81      25.1  T
   5    -45.6276846 -0.692644E-09  0.205E-04    8.81     101.5  T
speedup  1.03
cpu  time for SCC    0.00 s
wall time for SCC    0.00 s
speedup  0.98
cpu  time for grad    0.01 s
wall time for grad    0.01 s
 E :    -45.36808681  G :  0.000736    pred/act E change: -0.153D-05 -0.194D-05
Maxdispl :   0.0213   ||displ|| :   0.0278   Lambda : -0.159D-05
Largest |displ|/coords:  0.0213 (   1)  0.0085 (  31)  0.0061 (   9)
................................................................................
.............................. CYCLE  135 ......................................
................................................................................
   1    -45.6277103 -0.456277E+02  0.211E-02    8.81       0.0  T
   2    -45.6277103 -0.652772E-07  0.158E-02    8.81       1.3  T
   3    -45.6277104 -0.374539E-07  0.207E-03    8.81      10.1  T
   4    -45.6277104 -0.109254E-07  0.714E-04    8.81      29.2  T
   5    -45.6277104 -0.331411E-09  0.132E-04    8.81     158.2  T
speedup  1.03
cpu  time for SCC    0.00 s
wall time for SCC    0.00 s
speedup  0.99
cpu  time for grad    0.01 s
wall time for grad    0.01 s
 E :    -45.36808794  G :  0.000613    pred/act E change: -0.144D-05 -0.113D-05
Maxdispl :   0.0162   ||displ|| :   0.0220   Lambda : -0.137D-05
Largest |displ|/coords:  0.0162 (   1)  0.0069 (  11)  0.0063 (  31)
................................................................................
.............................. CYCLE  136 ......................................
................................................................................
   1    -45.6277606 -0.456278E+02  0.176E-02    8.81       0.0  T
   2    -45.6277606 -0.548824E-07  0.131E-02    8.81       1.6  T
   3    -45.6277607 -0.331521E-07  0.217E-03    8.81       9.6  T
   4    -45.6277607 -0.802781E-08  0.647E-04    8.81      32.2  T
   5    -45.6277607 -0.336307E-09  0.125E-04    8.81     166.9  T
speedup  1.00
cpu  time for SCC    0.00 s
wall time for SCC    0.00 s
speedup  0.98
cpu  time for grad    0.01 s
wall time for grad    0.01 s
 E :    -45.36808878  G :  0.000306    pred/act E change: -0.793D-06 -0.833D-06
Maxdispl :   0.0120   ||displ|| :   0.0215   Lambda : -0.743D-06
Largest |displ|/coords:  0.0120 (  31)  0.0085 (   3)  0.0082 (   9)
................................................................................
.............................. CYCLE  137 ......................................
................................................................................
   1    -45.6276284 -0.456276E+02  0.211E-02    8.81       0.0  T
   2    -45.6276285 -0.769836E-07  0.157E-02    8.81       1.3  T
   3    -45.6276285 -0.371281E-07  0.278E-03    8.81       7.5  T
   4    -45.6276285 -0.120450E-07  0.879E-04    8.81      23.7  T
   5    -45.6276285 -0.404874E-09  0.112E-04    8.81     185.8  T
speedup  1.03
cpu  time for SCC    0.00 s
wall time for SCC    0.00 s
speedup  0.99
cpu  time for grad    0.01 s
wall time for grad    0.01 s
 E :    -45.36808904  G :  0.000638    pred/act E change: -0.686D-06 -0.263D-06
Maxdispl :   0.0058   ||displ|| :   0.0098   Lambda : -0.481D-06
Largest |displ|/coords:  0.0058 (   1)  0.0045 (   3)  0.0034 (  31)
................................................................................
.............................. CYCLE  138 ......................................
................................................................................
   1    -45.6276985 -0.456277E+02  0.720E-03    8.81       0.0  T
   2    -45.6276985 -0.918489E-08  0.537E-03    8.81       3.9  T
   3    -45.6276985 -0.388491E-08  0.762E-04    8.81      27.4  T
   4    -45.6276985 -0.164055E-08  0.243E-04    8.81      85.7  T
speedup  0.94
cpu  time for SCC    0.00 s
wall time for SCC    0.00 s
speedup  0.96
cpu  time for grad    0.01 s
wall time for grad    0.01 s
 E :    -45.36808928  G :  0.000196    pred/act E change: -0.372D-06 -0.235D-06
Maxdispl :   0.0018   ||displ|| :   0.0036   Lambda : -0.142D-06
Largest |displ|/coords:  0.0018 (   1)  0.0013 (   2)  0.0012 (   6)
................................................................................
.............................. CYCLE  139 ......................................
................................................................................
   1    -45.6276753 -0.456277E+02  0.264E-03    8.81       0.0  T
   2    -45.6276753 -0.169319E-08  0.199E-03    8.81      10.5  T
   3    -45.6276753 -0.865924E-09  0.276E-04    8.81      75.6  T
   4    -45.6276753 -0.310251E-09  0.934E-05    8.81     223.2  T
speedup  0.94
cpu  time for SCC    0.00 s
wall time for SCC    0.00 s
speedup  0.96
cpu  time for grad    0.01 s
wall time for grad    0.01 s
 E :    -45.36808938  G :  0.000127    pred/act E change: -0.240D-06 -0.103D-06
Maxdispl :   0.0037   ||displ|| :   0.0068   Lambda : -0.175D-06
Largest |displ|/coords:  0.0037 (   1)  0.0036 (   2)  0.0024 (  31)
................................................................................
.............................. CYCLE  140 ......................................
................................................................................
   1    -45.6276603 -0.456277E+02  0.570E-03    8.81       0.0  T
   2    -45.6276603 -0.740213E-08  0.428E-03    8.81       4.9  T
   3    -45.6276603 -0.284340E-08  0.634E-04    8.81      32.9  T
   4    -45.6276603 -0.145764E-08  0.216E-04    8.81      96.4  T
speedup  0.91
cpu  time for SCC    0.00 s
wall time for SCC    0.00 s
speedup  0.95
cpu  time for grad    0.01 s
wall time for grad    0.01 s
 E :    -45.36808951  G :  0.000194    pred/act E change: -0.709D-07 -0.129D-06
Maxdispl :   0.0039   ||displ|| :   0.0075   Lambda : -0.134D-06
Largest |displ|/coords:  0.0039 (   2)  0.0030 (  31)  0.0029 (   1)
................................................................................
.............................. CYCLE  141 ......................................
................................................................................
   1    -45.6276605 -0.456277E+02  0.704E-03    8.81       0.0  T
   2    -45.6276605 -0.964772E-08  0.530E-03    8.81       3.9  T
   3    -45.6276605 -0.399407E-08  0.739E-04    8.81      28.2  T
   4    -45.6276605 -0.188643E-08  0.281E-04    8.81      74.2  T
speedup  0.94
cpu  time for SCC    0.00 s
wall time for SCC    0.00 s
speedup  1.06
cpu  time for grad    0.01 s
wall time for grad    0.01 s
 E :    -45.36808961  G :  0.000225    pred/act E change: -0.877D-07 -0.102D-06
Maxdispl :   0.0034   ||displ|| :   0.0065   Lambda : -0.922D-07
Largest |displ|/coords:  0.0034 (   1)  0.0031 (   2)  0.0024 (   7)
................................................................................
.............................. CYCLE  142 ......................................
................................................................................
   1    -45.6276853 -0.456277E+02  0.579E-03    8.81       0.0  T
   2    -45.6276853 -0.520816E-08  0.437E-03    8.81       4.8  T
   3    -45.6276853 -0.287410E-08  0.502E-04    8.81      41.5  T
   4    -45.6276853 -0.928985E-09  0.230E-04    8.81      90.7  T
speedup  0.94
cpu  time for SCC    0.00 s
wall time for SCC    0.00 s
speedup  0.94
cpu  time for grad    0.01 s
wall time for grad    0.01 s
 E :    -45.36808968  G :  0.000175    pred/act E change: -0.671D-07 -0.704D-07
Maxdispl :   0.0019   ||displ|| :   0.0040   Lambda : -0.512D-07
Largest |displ|/coords:  0.0019 (   1)  0.0016 (   2)  0.0015 (   7)

   *** GEOMETRY OPTIMIZATION CONVERGED AFTER 142 ITERATIONS ***

------------------------------------------------------------------------
 total energy gain (kcal):     -0.1284
------------------------------------------------------------------------
================
 final structure:
================
$coord
        1.30179489327345        3.86030414287375       -0.65378236347162      S 
       -0.85626690246623        4.47420749066496       -2.19536777229939      O 
        3.19691302766583        5.75757771973067       -0.34739054451806      O 
        0.21586207510867        3.42209325147791        2.19653311844865      O 
        2.31294991254991        1.35032457432558       -1.31620256916549      O 
        0.71480223126343       -0.66946473274569       -2.84326754071115      H 
        0.95553923495744        4.88833183404819        2.92314180616206      H 
       -0.20097944733347       -2.14448215396078       -3.58359887032588      O 
        0.55730671323733       -2.43903923158601       -5.20037418384344      H 
        4.08466936653709       -1.41091250609056        2.29926059496391      O 
        5.82839408945711       -1.73018048509896        1.93042792213786      H 
        3.51551759742940       -0.14495124791051        1.03694229693404      H 
       -3.33669268789747       -0.38821182867634        2.66397972855814      O 
       -4.06184284500255        0.07431403891815        0.98344388758045      H 
       -2.21960357587540        1.01066555199867        3.04482661261001      H 
       -4.30194673992799        0.88841906624156       -1.99051501057810      O 
       -3.23201541934926        2.40581886441839       -2.11359213547319      H 
       -3.42738277800771       -0.36479556409296       -2.98771048887698      H 
       -0.20208646772959       -3.84130613969860        1.23764286203568      N 
        1.57263600875332       -3.20223755503947        1.84715142233758      H 
       -0.56234913862993       -5.63323144387162        1.80870258801951      H 
       -1.59720308550009       -2.50106940594037        1.97722395240725      H 
       -0.25801606251728       -3.66217425898342       -0.71747535078403      H 
$end
 
 Bond Distances (Angstroems)
 ---------------------------
S1-O2=1.4405         S1-O3=1.4283         S1-O4=1.6307         S1-O5=1.4742         O2-S1=1.4405         O3-S1=1.4283         
O4-S1=1.6307         O4-H7=0.9503         O5-S1=1.4742         H6-O8=0.9988         H7-O4=0.9503         O8-H6=0.9988         
O8-H9=0.9578         H9-O8=0.9578         O10-H11=0.9582       O10-H12=0.9928       H11-O10=0.9582       H12-O10=0.9928       
O13-H14=0.9990       O13-H15=0.9685       H14-O13=0.9990       H15-O13=0.9685       O16-H17=0.9847       O16-H18=0.9656       
H17-O16=0.9847       H18-O16=0.9656       N19-H20=1.0490       N19-H21=1.0133       N19-H22=1.0960       N19-H23=1.0394       
H20-N19=1.0490       H21-N19=1.0133       H22-N19=1.0960       H23-N19=1.0394       
 N  H  Rav=1.0494 sigma=0.0299  Rmin=1.0133  Rmax=1.0960     4
 O  H  Rav=0.9751 sigma=0.0179  Rmin=0.9503  Rmax=0.9990     9
 S  O  Rav=1.4934 sigma=0.0810  Rmin=1.4283  Rmax=1.6307     4
 
 selected bond angles (degree)
 --------------------
O3-S1-O2=117.54                O4-S1-O2=106.05                O4-S1-O3=104.03                O5-S1-O2=110.87                
O5-S1-O3=113.92                O5-S1-O4=102.69                H7-O4-S1= 96.49                H9-O8-H6=105.92                
H12-O10-H11=105.91             
 
 selected dihedral angles (degree)
 ---------------------------------
H7-O4-S1-O2=249.12            H7-O4-S1-O3= 13.72            H7-O4-S1-O5=132.71            
 
 CMA Distance (Angstroems)
 ---------------------------
R(CMA):  2.9075

========================================================================
 FINAL SINGLEPOINT CALCULATION ON OPTIMIZED GEOMETRY
========================================================================

 Ncao       : 59
 Nao        : 58
 Nshell     : 34
 Nel        : 72
 T(el)      :   300.0
 intcut     :    25.0
 scfconv/Eh :  0.100E-05
   qconv/e  :  0.100E-03
 intneglect :  0.100E-07
 broydamp   :      0.250
 iter      E             dE          RMSdq      gap      omega  full diag
   1    -45.6276853 -0.456277E+02  0.697E-05    8.81       0.0  T
   2    -45.6276853 -0.211742E-11  0.438E-05    8.81     476.2  T
   3    -45.6276853 -0.103739E-11  0.697E-06    8.81    2990.4  T
speedup  1.30
cpu  time for SCC    0.00 s
wall time for SCC    0.00 s

   *** convergence criteria satisfied after 3 iterations ***

          eigenvalues
 #    :          24         25         26         27         28         29         30         31
 occ. :        2.000      2.000      2.000      2.000      2.000      2.000      2.000      2.000
 eps  :       -13.723    -13.485    -13.050    -12.557    -12.448    -12.354    -12.210    -12.108
 #    :          32         33         34         35         36         37         38         39
 occ. :        2.000      2.000      2.000      2.000      2.000      0.000      0.000      0.000
 eps  :       -11.884    -11.699    -11.622    -11.579    -11.314     -2.503     -1.342     -0.424
 #    :          40         41         42         43         44         45         46         47
 occ. :        0.000      0.000      0.000      0.000      0.000      0.000      0.000      0.000
 eps  :         1.232      1.383      1.526      2.238      2.544      4.177      4.793      5.863


   #   Z            q   n(s)   n(p)   n(d)      C6AA      α(0)
   1  16 S      1.636  1.590  1.811  0.963    90.232    15.988
   2   8 O     -0.707  1.767  4.940  0.000    28.890     7.206
   3   8 O     -0.704  1.769  4.934  0.000    28.816     7.197
   4   8 O     -0.626  1.752  4.874  0.000    25.781     6.854
   5   8 O     -0.751  1.768  4.983  0.000    30.124     7.359
   6   1 H      0.342  0.658  0.000  0.000     0.607     1.224
   7   1 H      0.343  0.657  0.000  0.000     0.594     1.205
   8   8 O     -0.631  1.744  4.887  0.000    25.938     6.874
   9   1 H      0.286  0.714  0.000  0.000     0.764     1.373
  10   8 O     -0.617  1.743  4.874  0.000    25.610     6.830
  11   1 H      0.287  0.713  0.000  0.000     0.762     1.371
  12   1 H      0.335  0.665  0.000  0.000     0.626     1.243
  13   8 O     -0.610  1.755  4.855  0.000    25.410     6.804
  14   1 H      0.343  0.657  0.000  0.000     0.606     1.224
  15   1 H      0.318  0.682  0.000  0.000     0.669     1.285
  16   8 O     -0.625  1.756  4.870  0.000    25.806     6.856
  17   1 H      0.327  0.673  0.000  0.000     0.647     1.263
  18   1 H      0.304  0.696  0.000  0.000     0.708     1.322
  19   7 N     -0.347  1.275  4.071  0.000    28.905     7.985
  20   1 H      0.288  0.712  0.000  0.000     0.752     1.358
  21   1 H      0.222  0.778  0.000  0.000     1.000     1.566
  22   1 H      0.307  0.693  0.000  0.000     0.691     1.302
  23   1 H      0.280  0.720  0.000  0.000     0.776     1.380

 Mol. C6AA /au·bohr⁶  :       4496.032253
 Mol. C8AA /au·bohr⁸  :      99116.629387
 Mol. α(0) /au        :         97.069981

 
 Wiberg/Mayer (AO) data. WBOs > 0.1 written file <wbo>
 largest (>0.05) Wiberg bond orders for each atom
           total WBO             WBO to atom ...
     1  S   4.896    O    3 1.434    O    2 1.372    O    5 1.233    O    4 0.823
     2  O   1.760    S    1 1.372    O    3 0.117    O    5 0.107    O    4 0.073    H   17 0.063
     3  O   1.750    S    1 1.434    O    2 0.117    O    5 0.105    O    4 0.079
     4  O   1.936    H    7 0.861    S    1 0.823    O    3 0.079    O    2 0.073    O    5 0.063
     5  O   1.742    S    1 1.233    O    2 0.107    O    3 0.105    H    6 0.088    H   12 0.081    O    4 0.063
     6  H   0.883    O    8 0.789    O    5 0.088
     7  H   0.882    O    4 0.861
     8  O   1.870    H    9 0.909    H    6 0.789    H   23 0.064
     9  H   0.918    O    8 0.909
    10  O   1.883    H   11 0.911    H   12 0.803    H   20 0.086
    11  H   0.918    O   10 0.911
    12  H   0.888    O   10 0.803    O    5 0.081
    13  O   1.974    H   15 0.870    H   14 0.789    H   22 0.177    N   19 0.078
    14  H   0.883    O   13 0.789    O   16 0.092
    15  H   0.899    O   13 0.870
    16  O   1.890    H   18 0.883    H   17 0.827    H   14 0.092
    17  H   0.893    O   16 0.827    O    2 0.063
    18  H   0.907    O   16 0.883
    19  N   3.517    H   21 0.947    H   23 0.852    H   20 0.826    H   22 0.725    O   13 0.078
    20  H   0.917    N   19 0.826    O   10 0.086
    21  H   0.951    N   19 0.947
    22  H   0.906    N   19 0.725    O   13 0.177
    23  H   0.922    N   19 0.852    O    8 0.064
 MOs/occ written to file <molden.input>
 
molecular dipole:
                 x           y           z       tot (Debye)
 q only:        0.160      -3.557       0.860
   full:        0.849      -3.024       0.508       8.088
molecular quadrupole (traceless):
                xx          xy          yy          xz          yz          zz
 q only:       -5.842      -6.686       1.170      -0.982       6.739       4.671
  q+dip:       -7.780      -7.314       2.980      -1.225       9.288       4.801
   full:       -8.124      -7.133       2.996      -1.384       9.513       5.128

SCC energy    :     -45.6276853
rep           :       0.2593503
ES            :       0.2410832
AES           :      -0.0672699
AXC           :      -0.0069523
disp          :      -0.0171714
XB            :       0.0000000
fix           :       0.0000000
total E       :     -45.3680897
atomizationE  :       4.4511522     2793.14
(atE without considering molecular charge,
 total energy contains solvation terms)
H-L gap (eV)  :          8.8110
optimized geometry written to: xtbopt.xyz


------------------------------------------------------------------------
 * finished run on 2019/09/16 at 12:15:10.449     
------------------------------------------------------------------------
 total:
 * wall-time:     0 d,  0 h,  0 min,  2.829 sec
 *  cpu-time:     0 d,  0 h,  0 min,  2.692 sec
 * ratio c/w:     0.951 speedup
 SCF:
 * wall-time:     0 d,  0 h,  0 min,  0.212 sec
 *  cpu-time:     0 d,  0 h,  0 min,  0.134 sec
 * ratio c/w:     0.631 speedup
 ANC optimizer:
 * wall-time:     0 d,  0 h,  0 min,  2.589 sec
 *  cpu-time:     0 d,  0 h,  0 min,  2.532 sec
 * ratio c/w:     0.978 speedup

