      -----------------------------------------------------------      
     |                   =====================                   |     
     |                           x T B                           |     
     |                   =====================                   |     
     |                         S. Grimme                         |     
     |          Mulliken Center for Theoretical Chemistry        |     
     |                    University of Bonn                     |     
     |                 Version 6.0.1 (SAW181210)                 |     
      -----------------------------------------------------------      

   This program is distributed in the hope that it will be useful,
   but WITHOUT ANY WARRANTY; without even the implied warranty of
   MERCHANTABILITY or FITNESS FOR A PARTICULAR PURPOSE.
   
   FOR NON-COMMERCIAL, ACADEMIA USE ONLY.
   
   Cite this work as:
   S. Grimme, C. Bannwarth, P. Shushkov, J. Comput. Theory Chem., 2017,
   13, 1989-2009.
   C. Bannwarth, S. Ehlert and S. Grimme., ChemRxiv, 2018, preprint.
   http://doi.org/10.26434/chemrxiv.7246238.v1
   
   for sTDA-xTB:
   S. Grimme and C. Bannwarth, J. Chem. Phys., 2016, 145, 054103.
   
   in the mass-spec context:
   V. Asgeirsson, C. Bauer and S. Grimme, Chem. Sci., 2017, 8, 4879.
   
   if GBSA is used:
   P. Shushkov, F. März and S. Grimme, unpublished.
   
   for ANC optimizer:
   S. Grimme, unpublished.
   Rational Function algorithm used in ANCopt:
   F. Eckert, P. Pulay, H.-J. Werner, J. Comput. Chem., 1997, 18, 1473.
   
   with help from (in alphabetical order)
   C. Bannwarth, F. Bohle, G. Brandenburg, E. Caldeweyher, M. Checinski,
   S. Dohm, S. Ehlert, S. Ehrlich, F. März, H. Neugebauer, J. Pisarek,
   P. Pracht, P. Shushkov, and S. Spicher.
   
 * started run on 2019/09/16 at 12:44:59.032     
========================================================================
 # omp threads = 1
========================================================================
number of atoms            : 23
number of electrons        : 72
charge                     : 0
spin                       : .0
first test random number   : .0611

########################################################################
# WARNING! Please study the warnings concerning your input carefully
#  - XTBPATH is not set, using XTBHOME instead
#  - the use of '-opt' is discouraged, please use '--opt' next time
#  - the use of '-chrg' is discouraged, please use '--chrg' next time
#  - the use of '-uhf' is discouraged, please use '--uhf' next time
########################################################################

           ------------------------------------------------- 
          |                 G F N 2 - x T B                 |
          | Geometry, Frequencies, Noncovalent interactions |
          |            JCTC 2018 parametrisation            |
           ------------------------------------------------- 
      method parameters     
 k(s)        :  1.8500
 k(p)        :  2.2300
 k(d)        :  2.2300
 k(f)        :  2.0000
 kEN (H0ij)  : -2.0000
 D4 a1       :  0.5200
 D4 a2       :  5.0000
 D4 s6       :  1.0000
 D4 s8       :  2.7000
 D4 s9       :  5.0000
 alphaj      :  2.0000


            Z     q(EN)     CN     RAES       Cart. coordinates
     1  S   6.0    0.58    4.30    4.25    -2.57442     0.68787    -1.77230
     2  O   6.0   -0.31    1.12    1.80    -1.63378    -1.85226    -1.27801
     3  O   6.0   -0.30    1.13    1.80    -2.86115     1.70068    -4.28818
     4  O   6.0   -0.23    2.02    1.83    -5.21269     0.99683    -0.19448
     5  O   6.0   -0.24    2.08    1.84    -0.94285     2.75001    -0.23827
     6  H   1.0    0.18    1.31    1.50    -0.56153     2.09773     1.43967
     7  H   1.0    0.15    1.12    1.45    -6.01664    -0.65787    -0.14986
     8  O   6.0   -0.40    1.63    1.81    -0.01073     0.79317     3.84477
     9  H   1.0    0.18    0.94    1.42     0.16136     1.96734     5.28542
    10  O   6.0   -0.29    2.00    1.83     2.05975     1.79292    -6.16753
    11  H   1.0    0.15    0.97    1.43     2.47077     2.25994    -7.87855
    12  H   1.0    0.17    1.02    1.43     0.26798     2.07402    -6.00894
    13  O   6.0   -0.27    1.96    1.82    -3.42262    -2.35983     4.37377
    14  H   1.0    0.18    1.14    1.45    -2.09005    -1.14093     4.14322
    15  H   1.0    0.14    0.97    1.43    -4.34271    -1.79573     5.84001
    16  O   6.0   -0.29    2.00    1.83     4.31886     0.67690    -1.73332
    17  H   1.0    0.17    1.03    1.43     3.80172     0.85792    -3.46952
    18  H   1.0    0.15    0.97    1.43     3.94414     2.27709    -0.95001
    19  N   5.0   -0.14    3.96    2.75     2.52891    -2.62516     1.84042
    20  H   1.0    0.08    0.99    1.43     3.53539    -3.84141     2.97716
    21  H   1.0    0.13    1.17    1.46     1.66026    -1.27734     2.94191
    22  H   1.0    0.10    1.03    1.43     3.73845    -1.75783     0.58774
    23  H   1.0    0.11    1.00    1.43     1.18155    -3.62405     0.85489

  Z AO/shell   Hii/eV     exponent
  1     Wed Apr 25 08:07:45 CEST 2018   EN: 2.200 GM2: 0.406  GM3: 0.0800  RAES: 1.40
     1s    -10.707211    1.230000
  7     Wed Apr 25 08:07:45 CEST 2018   EN: 3.040 GM2: 0.461  GM3:-0.0640  RAES: 1.90
     2s    -16.686243    2.339881
     2p    -12.523956    2.014332
  8     Wed Apr 25 08:07:45 CEST 2018   EN: 3.440 GM2: 0.452  GM3:-0.0517  RAES: 1.80
     2s    -20.229985    2.439742
     2p    -15.503117    2.137023
 16     Tue Apr 24 11:44:34 CEST 2018   EN: 2.580 GM2: 0.340  GM3:-0.0502  RAES: 3.10
     3s    -20.029654    1.981333
     3p    -11.377694    2.025643
     3d     -0.420282    1.702555
 no old-style atom pair restraining (fixing) potential

molecular fragmentation (1/2 indicates fragments):
11111112222222222222222
# atoms in fragment 1/2:     7    16
 fragment masses (1/2) :       98.07       89.09
CMA distance (Bohr)    :   4.356
constraining FC (au)   :  0.0500
           ------------------------------------------------- 
          |        Self-Consistent Charge Iterations        |
           ------------------------------------------------- 

 Ncao       : 59
 Nao        : 58
 Nshell     : 34
 Nel        : 72
 T(el)      :   300.0
 intcut     :    25.0
 scfconv/Eh :  0.100E-05
   qconv/e  :  0.100E-03
 intneglect :  0.100E-07
 broydamp   :      0.250
 iter      E             dE          RMSdq      gap      omega  full diag
   1    -45.4701950 -0.454702E+02  0.722E+00    8.19       0.0  T
   2    -45.5181412 -0.479462E-01  0.508E+00    7.21       1.0  T
   3    -45.5560468 -0.379056E-01  0.125E+00    4.71       1.0  T
   4    -45.5594881 -0.344133E-02  0.698E-01    4.87       1.0  T
   5    -45.5609692 -0.148115E-02  0.276E-01    4.92       1.0  T
   6    -45.5612773 -0.308054E-03  0.168E-01    4.94       1.0  T
   7    -45.5614391 -0.161776E-03  0.470E-02    4.95       1.0  T
   8    -45.5614488 -0.968149E-05  0.254E-02    4.95       1.0  T
   9    -45.5614517 -0.297982E-05  0.926E-03    4.96       2.3  T
  10    -45.5614521 -0.377442E-06  0.270E-03    4.96       7.7  T
  11    -45.5614521 -0.174858E-07  0.130E-03    4.96      16.1  T
  12    -45.5614521 -0.696993E-08  0.386E-04    4.96      54.0  T
  13    -45.5614521 -0.460119E-09  0.207E-04    4.96     100.7  T
speedup  0.98
cpu  time for SCC    0.01 s
wall time for SCC    0.02 s

   *** convergence criteria satisfied after 13 iterations ***

          eigenvalues
 #    :          24         25         26         27         28         29         30         31
 occ. :        2.000      2.000      2.000      2.000      2.000      2.000      2.000      2.000
 eps  :       -13.256    -12.689    -12.508    -12.489    -12.473    -12.311    -12.160    -12.128
 #    :          32         33         34         35         36         37         38         39
 occ. :        2.000      2.000      2.000      2.000      2.000      0.000      0.000      0.000
 eps  :       -12.033    -11.961    -10.425     -9.794     -9.466     -4.507     -1.799     -0.850
 #    :          40         41         42         43         44         45         46         47
 occ. :        0.000      0.000      0.000      0.000      0.000      0.000      0.000      0.000
 eps  :        -0.688      0.940      1.582      2.774      3.492      3.629      4.083      5.059


   #   Z            q   n(s)   n(p)   n(d)      C6AA      α(0)
   1  16 S      1.646  1.632  1.801  0.922    90.011    15.968
   2   8 O     -0.663  1.769  4.894  0.000    27.720     7.059
   3   8 O     -0.649  1.765  4.883  0.000    27.342     7.011
   4   8 O     -0.565  1.760  4.805  0.000    24.325     6.658
   5   8 O     -0.603  1.760  4.843  0.000    25.232     6.781
   6   1 H      0.387  0.613  0.000  0.000     0.504     1.112
   7   1 H      0.352  0.648  0.000  0.000     0.581     1.196
   8   8 O     -0.868  1.838  5.030  0.000    33.702     7.784
   9   1 H      0.206  0.794  0.000  0.000     1.089     1.640
  10   8 O     -0.602  1.736  4.866  0.000    25.243     6.781
  11   1 H      0.288  0.712  0.000  0.000     0.758     1.367
  12   1 H      0.317  0.683  0.000  0.000     0.671     1.286
  13   8 O     -0.661  1.760  4.901  0.000    26.689     6.973
  14   1 H      0.322  0.678  0.000  0.000     0.655     1.270
  15   1 H      0.252  0.748  0.000  0.000     0.885     1.477
  16   8 O     -0.614  1.733  4.881  0.000    25.515     6.817
  17   1 H      0.329  0.671  0.000  0.000     0.641     1.257
  18   1 H      0.297  0.703  0.000  0.000     0.731     1.343
  19   7 N     -0.295  1.257  4.039  0.000    27.596     7.802
  20   1 H      0.230  0.770  0.000  0.000     0.964     1.538
  21   1 H      0.327  0.673  0.000  0.000     0.637     1.249
  22   1 H      0.287  0.713  0.000  0.000     0.754     1.361
  23   1 H      0.280  0.720  0.000  0.000     0.777     1.381

 Mol. C6AA /au·bohr⁶  :       4496.975954
 Mol. C8AA /au·bohr⁸  :      98956.947513
 Mol. α(0) /au        :         97.111959

 
 Wiberg/Mayer (AO) data. WBOs > 0.1 written file <wbo>
 largest (>0.05) Wiberg bond orders for each atom
           total WBO             WBO to atom ...
     1  S   4.761    O    3 1.434    O    2 1.403    O    5 1.000    O    4 0.894
     2  O   1.764    S    1 1.403    O    3 0.140    O    5 0.105    O    4 0.094
     3  O   1.801    S    1 1.434    O    2 0.140    O    5 0.089    O    4 0.088
     4  O   1.991    S    1 0.894    H    7 0.857    O    2 0.094    O    3 0.088    O    5 0.056
     5  O   1.980    S    1 1.000    H    6 0.663    O    2 0.105    O    3 0.089    O    4 0.056    O    8 0.054
     6  H   0.850    O    5 0.663    O    8 0.174
     7  H   0.876    O    4 0.857
     8  O   1.576    H    9 0.942    H    6 0.174    H   21 0.161    H   14 0.117    N   19 0.066    O    5 0.054    O   13 0.050
     9  H   0.958    O    8 0.942
    10  O   1.842    H   11 0.910    H   12 0.867
    11  H   0.917    O   10 0.910
    12  H   0.899    O   10 0.867
    13  O   1.771    H   15 0.935    H   14 0.778    O    8 0.050
    14  H   0.896    O   13 0.778    O    8 0.117
    15  H   0.936    O   13 0.935
    16  O   1.855    H   18 0.908    H   17 0.850
    17  H   0.892    O   16 0.850
    18  H   0.912    O   16 0.908
    19  N   3.549    H   20 0.942    H   23 0.904    H   22 0.864    H   21 0.725    O    8 0.066
    20  H   0.947    N   19 0.942
    21  H   0.893    N   19 0.725    O    8 0.161
    22  H   0.918    N   19 0.864
    23  H   0.922    N   19 0.904
 MOs/occ written to file <molden.input>
 
molecular dipole:
                 x           y           z       tot (Debye)
 q only:        1.751      -1.201      -0.171
   full:        1.370      -0.796      -0.004       4.027
molecular quadrupole (traceless):
                xx          xy          yy          xz          yz          zz
 q only:        2.511      -3.447      -1.474       3.927      -2.866      -1.037
  q+dip:       -0.131      -2.813      -3.955       3.756      -2.557       4.086
   full:       -0.111      -2.515      -4.267       3.510      -2.295       4.378

SCC energy    :     -45.5614521
rep           :       0.2572746
ES            :       0.2622122
AES           :      -0.0454552
AXC           :      -0.0047877
disp          :      -0.0165377
XB            :       0.0000000
fix           :       0.0000000
total E       :     -45.3039993
atomizationE  :       4.3870618     2752.92
(atE without considering molecular charge,
 total energy contains solvation terms)
H-L gap (eV)  :          4.9593
           ------------------------------------------------- 
          |                 ===============                 |
          |                   A N C O P T                   |
          |                 ===============                 |
          |          Approximate Normal Coordinate          |
          |           Rational Function Optimizer           |
           ------------------------------------------------- 
dumping coords to <xtbopt.coord> and <xtbopt.log>
 optlevel               2
 Maxcycle             460
 Maxmicro              25
 Econv         1.000000000000000E-007
 Gconv         2.000000000000000E-004
 Maxdispl       1.00000000000000     
 Hlow          5.000000000000000E-003
 S6             20.0000000000000     
 Nvar               63

generating ANC from model Hessian ...
 Shifting diagonal of input Hessian by   5.036796722272568E-003
 Lowest  eigenvalues of input Hessian
    0.005000   -0.000000   -0.000000    0.000000    0.000000    0.000000
    0.000000    0.005140    0.005482    0.005593    0.005741    0.006056
    0.006269    0.006328    0.006653    0.007074    0.007452    0.007677
 Highest eigenvalues
    1.424180    1.432097    1.442696    1.953333    2.766623    3.589037
 
cpu  time for ANC gen    0.01 s
wall time for ANC gen    0.01 s
................................................................................
.............................. CYCLE    1 ......................................
................................................................................
   1    -45.5614521 -0.455615E+02  0.651E-05    4.96       0.0  T
   2    -45.5614521 -0.613909E-11  0.519E-05    4.96     402.0  T
   3    -45.5614521 -0.920863E-11  0.196E-05    4.96    1062.7  T
speedup  0.80
cpu  time for SCC    0.00 s
wall time for SCC    0.00 s
speedup  0.92
cpu  time for grad    0.01 s
wall time for grad    0.01 s
 E :    -45.30399922  G :  0.159097    pred/act E change:  0.000D+00  0.381D-07
Maxdispl :   0.1594   ||displ|| :   0.3367   Lambda : -0.238D-01
Largest |displ|/coords:  0.1594 (  13)  0.1236 (  22)  0.1078 (  19)
................................................................................
.............................. CYCLE    2 ......................................
................................................................................
   1    -45.5732574 -0.455733E+02  0.446E-01    5.74       0.0  T
   2    -45.5734519 -0.194474E-03  0.329E-01    5.83       1.0  T
   3    -45.5735328 -0.808684E-04  0.805E-02    6.01       1.0  T
   4    -45.5735555 -0.227389E-04  0.279E-02    6.00       1.0  T
   5    -45.5735566 -0.107598E-05  0.769E-03    5.99       2.7  T
   6    -45.5735567 -0.975368E-07  0.336E-03    5.99       6.2  T
   7    -45.5735567 -0.137298E-07  0.155E-03    5.99      13.4  T
speedup  1.09
cpu  time for SCC    0.01 s
wall time for SCC    0.01 s
speedup  0.98
cpu  time for grad    0.01 s
wall time for grad    0.01 s
 E :    -45.32206405  G :  0.092107    pred/act E change:  0.000D+00 -0.181D-01
Maxdispl :   0.1607   ||displ|| :   0.3403   Lambda : -0.108D-01
Largest |displ|/coords:  0.1607 (  13)  0.1245 (  19)  0.0876 (  10)
................................................................................
.............................. CYCLE    3 ......................................
................................................................................
   1    -45.5839789 -0.455840E+02  0.279E-01    6.71       0.0  T
   2    -45.5841818 -0.202837E-03  0.199E-01    6.82       1.0  T
   3    -45.5842567 -0.749375E-04  0.681E-02    7.00       1.0  T
   4    -45.5842680 -0.112777E-04  0.198E-02    7.01       1.1  T
   5    -45.5842686 -0.666262E-06  0.500E-03    7.00       4.2  T
   6    -45.5842687 -0.378200E-07  0.305E-03    7.00       6.8  T
speedup  0.87
cpu  time for SCC    0.00 s
wall time for SCC    0.00 s
speedup  0.97
cpu  time for grad    0.01 s
wall time for grad    0.01 s
 E :    -45.33101675  G :  0.062785    pred/act E change: -0.133D-01 -0.895D-02
Maxdispl :   0.1865   ||displ|| :   0.3745   Lambda : -0.682D-02
Largest |displ|/coords:  0.1865 (  13)  0.1510 (   7)  0.1368 (  19)
................................................................................
.............................. CYCLE    4 ......................................
................................................................................
   1    -45.5875829 -0.455876E+02  0.306E-01    7.50       0.0  T
   2    -45.5877656 -0.182703E-03  0.223E-01    7.60       1.0  T
   3    -45.5878331 -0.675221E-04  0.707E-02    7.79       1.0  T
   4    -45.5878482 -0.150127E-04  0.194E-02    7.78       1.1  T
   5    -45.5878490 -0.877988E-06  0.500E-03    7.76       4.2  T
   6    -45.5878491 -0.276322E-07  0.322E-03    7.76       6.5  T
speedup  0.83
cpu  time for SCC    0.00 s
wall time for SCC    0.00 s
speedup  0.87
cpu  time for grad    0.01 s
wall time for grad    0.01 s
 E :    -45.33651132  G :  0.047065    pred/act E change: -0.601D-02 -0.549D-02
Maxdispl :   0.2246   ||displ|| :   0.6343   Lambda : -0.117D-01
Largest |displ|/coords:  0.2246 (  20)  0.1893 (  19)  0.1582 (  25)
................................................................................
.............................. CYCLE    5 ......................................
................................................................................
   1    -45.5969560 -0.455970E+02  0.721E-01    8.92       0.0  T
   2    -45.5980850 -0.112904E-02  0.527E-01    9.07       1.0  T
   3    -45.5985037 -0.418711E-03  0.174E-01    9.33       1.0  T
   4    -45.5985884 -0.846422E-04  0.457E-02    9.36       1.0  T
   5    -45.5985943 -0.591498E-05  0.127E-02    9.34       1.6  T
   6    -45.5985945 -0.254927E-06  0.848E-03    9.34       2.5  T
   7    -45.5985946 -0.107474E-06  0.211E-03    9.34       9.9  T
   8    -45.5985947 -0.847324E-08  0.802E-04    9.34      26.0  T
speedup  0.97
cpu  time for SCC    0.01 s
wall time for SCC    0.01 s
speedup  1.01
cpu  time for grad    0.01 s
wall time for grad    0.01 s
 E :    -45.34094925  G :  0.048902    pred/act E change: -0.389D-02 -0.444D-02
Maxdispl :   0.2329   ||displ|| :   0.4364   Lambda : -0.604D-02
Largest |displ|/coords:  0.2329 (   7)  0.2306 (  13)  0.1337 (  11)
................................................................................
.............................. CYCLE    6 ......................................
................................................................................
   1    -45.5970137 -0.455970E+02  0.486E-01    9.32       0.0  T
   2    -45.5970990 -0.853949E-04  0.368E-01    9.34       1.0  T
   3    -45.5971494 -0.503819E-04  0.592E-02    9.40       1.0  T
   4    -45.5971636 -0.141523E-04  0.162E-02    9.40       1.3  T
   5    -45.5971642 -0.650275E-06  0.591E-03    9.40       3.5  T
   6    -45.5971642 -0.184968E-07  0.343E-03    9.40       6.1  T
speedup  1.06
cpu  time for SCC    0.00 s
wall time for SCC    0.00 s
speedup  1.05
cpu  time for grad    0.01 s
wall time for grad    0.01 s
 E :    -45.34443504  G :  0.046531    pred/act E change: -0.819D-02 -0.349D-02
Maxdispl :   0.2927   ||displ|| :   0.4936   Lambda : -0.534D-02
Largest |displ|/coords:  0.2927 (   7)  0.1358 (   6)  0.1107 (   8)
................................................................................
.............................. CYCLE    7 ......................................
................................................................................
   1    -45.5999697 -0.456000E+02  0.537E-01    9.12       0.0  T
   2    -45.6000929 -0.123155E-03  0.407E-01    9.16       1.0  T
   3    -45.6001527 -0.598345E-04  0.751E-02    9.21       1.0  T
   4    -45.6001739 -0.211760E-04  0.219E-02    9.21       1.0  T
   5    -45.6001749 -0.103718E-05  0.605E-03    9.21       3.4  T
   6    -45.6001749 -0.148691E-07  0.353E-03    9.21       5.9  T
   7    -45.6001749 -0.213649E-07  0.817E-04    9.21      25.5  T
speedup  0.89
cpu  time for SCC    0.00 s
wall time for SCC    0.01 s
speedup  0.96
cpu  time for grad    0.01 s
wall time for grad    0.01 s
 E :    -45.34621042  G :  0.046138    pred/act E change: -0.360D-02 -0.178D-02
Maxdispl :   0.2069   ||displ|| :   0.4449   Lambda : -0.643D-02
Largest |displ|/coords:  0.2069 (  13)  0.1452 (   9)  0.1250 (   2)
................................................................................
.............................. CYCLE    8 ......................................
................................................................................
   1    -45.6014417 -0.456014E+02  0.443E-01    8.93       0.0  T
   2    -45.6015895 -0.147809E-03  0.337E-01    8.94       1.0  T
   3    -45.6016441 -0.546435E-04  0.921E-02    8.95       1.0  T
   4    -45.6016674 -0.233242E-04  0.253E-02    8.95       1.0  T
   5    -45.6016683 -0.905847E-06  0.615E-03    8.95       3.4  T
   6    -45.6016684 -0.311539E-07  0.368E-03    8.95       5.7  T
   7    -45.6016684 -0.204316E-07  0.112E-03    8.95      18.6  T
speedup  0.93
cpu  time for SCC    0.00 s
wall time for SCC    0.01 s
speedup  0.98
cpu  time for grad    0.01 s
wall time for grad    0.01 s
 E :    -45.35115197  G :  0.039625    pred/act E change: -0.332D-02 -0.494D-02
Maxdispl :   0.2356   ||displ|| :   0.6295   Lambda : -0.809D-02
Largest |displ|/coords:  0.2356 (  13)  0.2140 (  20)  0.2061 (  27)
................................................................................
.............................. CYCLE    9 ......................................
................................................................................
   1    -45.6038464 -0.456038E+02  0.570E-01    8.87       0.0  T
   2    -45.6042932 -0.446847E-03  0.429E-01    8.88       1.0  T
   3    -45.6045063 -0.213072E-03  0.150E-01    8.88       1.0  T
   4    -45.6045527 -0.464513E-04  0.419E-02    8.87       1.0  T
   5    -45.6045569 -0.413089E-05  0.130E-02    8.88       1.6  T
   6    -45.6045570 -0.103690E-06  0.739E-03    8.88       2.8  T
   7    -45.6045571 -0.971946E-07  0.210E-03    8.88       9.9  T
   8    -45.6045571 -0.982229E-08  0.588E-04    8.88      35.4  T
speedup  0.98
cpu  time for SCC    0.01 s
wall time for SCC    0.01 s
speedup  1.02
cpu  time for grad    0.01 s
wall time for grad    0.01 s
 E :    -45.35589282  G :  0.062002    pred/act E change: -0.385D-02 -0.474D-02
Maxdispl :   0.1479   ||displ|| :   0.3841   Lambda : -0.723D-02
Largest |displ|/coords:  0.1479 (  14)  0.1445 (   5)  0.1184 (  10)
................................................................................
.............................. CYCLE   10 ......................................
................................................................................
   1    -45.6130584 -0.456131E+02  0.330E-01    8.93       0.0  T
   2    -45.6131505 -0.921161E-04  0.245E-01    8.94       1.0  T
   3    -45.6132087 -0.582805E-04  0.577E-02    8.94       1.0  T
   4    -45.6132187 -0.997669E-05  0.175E-02    8.94       1.2  T
   5    -45.6132191 -0.418208E-06  0.602E-03    8.94       3.5  T
   6    -45.6132192 -0.216153E-07  0.306E-03    8.94       6.8  T
   7    -45.6132192 -0.165860E-07  0.723E-04    8.94      28.8  T
speedup  1.11
cpu  time for SCC    0.01 s
wall time for SCC    0.01 s
speedup  0.98
cpu  time for grad    0.01 s
wall time for grad    0.01 s
 E :    -45.35899129  G :  0.056286    pred/act E change: -0.565D-02 -0.310D-02
Maxdispl :   0.1697   ||displ|| :   0.4092   Lambda : -0.717D-02
Largest |displ|/coords:  0.1697 (  20)  0.1426 (  23)  0.1366 (   2)
................................................................................
.............................. CYCLE   11 ......................................
................................................................................
   1    -45.6120964 -0.456121E+02  0.376E-01    8.97       0.0  T
   2    -45.6122520 -0.155548E-03  0.277E-01    8.97       1.0  T
   3    -45.6123428 -0.907905E-04  0.755E-02    8.97       1.0  T
   4    -45.6123595 -0.167394E-04  0.220E-02    8.97       1.0  T
   5    -45.6123606 -0.105918E-05  0.806E-03    8.97       2.6  T
   6    -45.6123607 -0.959948E-07  0.483E-03    8.97       4.3  T
   7    -45.6123607 -0.258837E-07  0.930E-04    8.97      22.4  T
speedup  1.11
cpu  time for SCC    0.01 s
wall time for SCC    0.01 s
speedup  1.07
cpu  time for grad    0.01 s
wall time for grad    0.01 s
 E :    -45.36120036  G :  0.050691    pred/act E change: -0.415D-02 -0.221D-02
Maxdispl :   0.1691   ||displ|| :   0.4136   Lambda : -0.708D-02
Largest |displ|/coords:  0.1691 (   1)  0.1588 (   3)  0.1560 (   5)
................................................................................
.............................. CYCLE   12 ......................................
................................................................................
   1    -45.6176132 -0.456176E+02  0.517E-01    9.07       0.0  T
   2    -45.6177411 -0.127879E-03  0.389E-01    9.08       1.0  T
   3    -45.6178267 -0.855268E-04  0.700E-02    9.07       1.0  T
   4    -45.6178437 -0.170294E-04  0.195E-02    9.07       1.1  T
   5    -45.6178444 -0.731049E-06  0.658E-03    9.07       3.2  T
   6    -45.6178444 -0.157633E-07  0.376E-03    9.07       5.5  T
   7    -45.6178445 -0.227920E-07  0.694E-04    9.07      30.0  T
speedup  0.94
cpu  time for SCC    0.01 s
wall time for SCC    0.01 s
speedup  0.99
cpu  time for grad    0.01 s
wall time for grad    0.01 s
 E :    -45.36195675  G :  0.063684    pred/act E change: -0.419D-02 -0.756D-03
Maxdispl :   0.2382   ||displ|| :   0.4172   Lambda : -0.114D-01
Largest |displ|/coords:  0.2382 (   4)  0.1638 (   6)  0.0963 (  22)
................................................................................
.............................. CYCLE   13 ......................................
................................................................................
   1    -45.6191664 -0.456192E+02  0.645E-01    9.09       0.0  T
   2    -45.6193601 -0.193752E-03  0.488E-01    9.10       1.0  T
   3    -45.6194990 -0.138877E-03  0.875E-02    9.12       1.0  T
   4    -45.6195239 -0.248741E-04  0.255E-02    9.12       1.0  T
   5    -45.6195252 -0.134784E-05  0.911E-03    9.12       2.3  T
   6    -45.6195253 -0.461940E-07  0.482E-03    9.12       4.3  T
   7    -45.6195253 -0.303474E-07  0.122E-03    9.12      17.0  T
speedup  0.93
cpu  time for SCC    0.00 s
wall time for SCC    0.01 s
speedup  0.98
cpu  time for grad    0.01 s
wall time for grad    0.01 s
 E :    -45.36224893  G :  0.053270    pred/act E change: -0.415D-02 -0.292D-03
Maxdispl :   0.1314   ||displ|| :   0.3798   Lambda : -0.828D-02
Largest |displ|/coords:  0.1314 (   3)  0.1245 (  13)  0.1245 (   6)
................................................................................
.............................. CYCLE   14 ......................................
................................................................................
   1    -45.6238197 -0.456238E+02  0.417E-01    9.17       0.0  T
   2    -45.6239177 -0.980270E-04  0.317E-01    9.17       1.0  T
   3    -45.6239965 -0.787544E-04  0.647E-02    9.15       1.0  T
   4    -45.6240086 -0.120575E-04  0.221E-02    9.15       1.0  T
   5    -45.6240092 -0.671330E-06  0.698E-03    9.15       3.0  T
   6    -45.6240093 -0.334557E-07  0.375E-03    9.15       5.6  T
   7    -45.6240093 -0.259417E-07  0.109E-03    9.15      19.2  T
speedup  0.91
cpu  time for SCC    0.01 s
wall time for SCC    0.01 s
speedup  0.96
cpu  time for grad    0.01 s
wall time for grad    0.01 s
 E :    -45.36501561  G :  0.038114    pred/act E change: -0.670D-02 -0.277D-02
Maxdispl :   0.1247   ||displ|| :   0.2632   Lambda : -0.318D-02
Largest |displ|/coords:  0.1247 (   3)  0.1092 (  17)  0.0849 (  14)
................................................................................
.............................. CYCLE   15 ......................................
................................................................................
   1    -45.6145602 -0.456146E+02  0.240E-01    9.11       0.0  T
   2    -45.6146009 -0.407686E-04  0.181E-01    9.12       1.0  T
   3    -45.6146251 -0.241349E-04  0.422E-02    9.14       1.0  T
   4    -45.6146302 -0.512174E-05  0.157E-02    9.14       1.3  T
   5    -45.6146306 -0.434532E-06  0.417E-03    9.14       5.0  T
   6    -45.6146306 -0.163237E-07  0.238E-03    9.14       8.8  T
speedup  1.09
cpu  time for SCC    0.00 s
wall time for SCC    0.00 s
speedup  0.96
cpu  time for grad    0.01 s
wall time for grad    0.01 s
 E :    -45.36600581  G :  0.033590    pred/act E change: -0.474D-02 -0.990D-03
Maxdispl :   0.1261   ||displ|| :   0.3095   Lambda : -0.287D-02
Largest |displ|/coords:  0.1261 (   2)  0.1252 (   6)  0.1171 (   4)
................................................................................
.............................. CYCLE   16 ......................................
................................................................................
   1    -45.6268666 -0.456269E+02  0.338E-01    9.20       0.0  T
   2    -45.6269110 -0.444290E-04  0.255E-01    9.21       1.0  T
   3    -45.6269444 -0.333570E-04  0.425E-02    9.21       1.0  T
   4    -45.6269501 -0.574405E-05  0.948E-03    9.21       2.2  T
   5    -45.6269503 -0.183313E-06  0.421E-03    9.21       5.0  T
   6    -45.6269503 -0.925976E-08  0.209E-03    9.21      10.0  T
speedup  1.09
cpu  time for SCC    0.00 s
wall time for SCC    0.00 s
speedup  1.05
cpu  time for grad    0.01 s
wall time for grad    0.01 s
 E :    -45.36655881  G :  0.037520    pred/act E change: -0.170D-02 -0.553D-03
Maxdispl :   0.1147   ||displ|| :   0.2181   Lambda : -0.235D-02
Largest |displ|/coords:  0.1147 (   5)  0.0701 (   3)  0.0611 (   7)
................................................................................
.............................. CYCLE   17 ......................................
................................................................................
   1    -45.6272240 -0.456272E+02  0.206E-01    9.26       0.0  T
   2    -45.6272469 -0.228931E-04  0.154E-01    9.25       1.0  T
   3    -45.6272605 -0.135966E-04  0.307E-02    9.25       1.0  T
   4    -45.6272634 -0.294886E-05  0.985E-03    9.25       2.1  T
   5    -45.6272636 -0.171190E-06  0.332E-03    9.25       6.3  T
   6    -45.6272636 -0.101432E-07  0.190E-03    9.25      11.0  T
speedup  0.85
cpu  time for SCC    0.00 s
wall time for SCC    0.00 s
speedup  0.96
cpu  time for grad    0.01 s
wall time for grad    0.01 s
 E :    -45.36779984  G :  0.015327    pred/act E change: -0.158D-02 -0.124D-02
Maxdispl :   0.1797   ||displ|| :   0.3717   Lambda : -0.226D-02
Largest |displ|/coords:  0.1797 (   3)  0.1218 (  13)  0.1087 (   2)
................................................................................
.............................. CYCLE   18 ......................................
................................................................................
   1    -45.6203895 -0.456204E+02  0.367E-01    9.28       0.0  T
   2    -45.6204435 -0.540116E-04  0.276E-01    9.28       1.0  T
   3    -45.6204716 -0.281199E-04  0.531E-02    9.27       1.0  T
   4    -45.6204800 -0.836958E-05  0.154E-02    9.27       1.4  T
   5    -45.6204804 -0.437829E-06  0.425E-03    9.27       4.9  T
   6    -45.6204804 -0.634496E-08  0.257E-03    9.27       8.1  T
   7    -45.6204804 -0.106506E-07  0.445E-04    9.27      46.8  T
speedup  1.13
cpu  time for SCC    0.01 s
wall time for SCC    0.01 s
speedup  0.99
cpu  time for grad    0.01 s
wall time for grad    0.01 s
 E :    -45.36845132  G :  0.035859    pred/act E change: -0.123D-02 -0.651D-03
Maxdispl :   0.0723   ||displ|| :   0.1731   Lambda : -0.174D-02
Largest |displ|/coords:  0.0723 (  16)  0.0488 (   3)  0.0473 (   2)
................................................................................
.............................. CYCLE   19 ......................................
................................................................................
   1    -45.6294516 -0.456295E+02  0.123E-01    9.35       0.0  T
   2    -45.6294634 -0.118175E-04  0.913E-02    9.35       1.0  T
   3    -45.6294725 -0.910646E-05  0.214E-02    9.35       1.0  T
   4    -45.6294739 -0.135172E-05  0.783E-03    9.35       2.7  T
   5    -45.6294740 -0.908677E-07  0.250E-03    9.35       8.3  T
   6    -45.6294740 -0.782332E-08  0.131E-03    9.35      15.9  T
speedup  1.06
cpu  time for SCC    0.00 s
wall time for SCC    0.00 s
speedup  1.04
cpu  time for grad    0.01 s
wall time for grad    0.01 s
 E :    -45.36937407  G :  0.020591    pred/act E change: -0.129D-02 -0.923D-03
Maxdispl :   0.1381   ||displ|| :   0.3727   Lambda : -0.222D-02
Largest |displ|/coords:  0.1381 (   2)  0.1218 (  17)  0.1203 (  14)
................................................................................
.............................. CYCLE   20 ......................................
................................................................................
   1    -45.6259304 -0.456259E+02  0.252E-01    9.38       0.0  T
   2    -45.6259580 -0.275791E-04  0.189E-01    9.38       1.0  T
   3    -45.6259732 -0.152409E-04  0.341E-02    9.40       1.0  T
   4    -45.6259771 -0.390601E-05  0.122E-02    9.40       1.7  T
   5    -45.6259773 -0.143980E-06  0.298E-03    9.39       7.0  T
   6    -45.6259773 -0.103817E-07  0.165E-03    9.39      12.6  T
speedup  0.85
cpu  time for SCC    0.00 s
wall time for SCC    0.00 s
speedup  0.96
cpu  time for grad    0.01 s
wall time for grad    0.01 s
 E :    -45.36936393  G :  0.034526    pred/act E change: -0.894D-03  0.101D-04
Maxdispl :   0.0815   ||displ|| :   0.2148   Lambda : -0.236D-02
Largest |displ|/coords:  0.0815 (  14)  0.0785 (   8)  0.0613 (   5)
................................................................................
.............................. CYCLE   21 ......................................
................................................................................
   1    -45.6280906 -0.456281E+02  0.197E-01    9.40       0.0  T
   2    -45.6281217 -0.310669E-04  0.148E-01    9.40       1.0  T
   3    -45.6281358 -0.141002E-04  0.340E-02    9.39       1.0  T
   4    -45.6281408 -0.499561E-05  0.931E-03    9.39       2.2  T
   5    -45.6281409 -0.133201E-06  0.332E-03    9.39       6.3  T
   6    -45.6281409 -0.134403E-07  0.158E-03    9.39      13.2  T
speedup  0.85
cpu  time for SCC    0.00 s
wall time for SCC    0.00 s
speedup  0.96
cpu  time for grad    0.01 s
wall time for grad    0.01 s
 E :    -45.37046836  G :  0.020966    pred/act E change: -0.126D-02 -0.110D-02
Maxdispl :   0.1265   ||displ|| :   0.2772   Lambda : -0.175D-02
Largest |displ|/coords:  0.1265 (   4)  0.1099 (   3)  0.0898 (  16)
................................................................................
.............................. CYCLE   22 ......................................
................................................................................
   1    -45.6279274 -0.456279E+02  0.381E-01    9.42       0.0  T
   2    -45.6279697 -0.422489E-04  0.289E-01    9.42       1.0  T
   3    -45.6280011 -0.314297E-04  0.413E-02    9.42       1.0  T
   4    -45.6280068 -0.564784E-05  0.137E-02    9.42       1.5  T
   5    -45.6280071 -0.347586E-06  0.379E-03    9.42       5.5  T
   6    -45.6280071 -0.134137E-07  0.234E-03    9.42       8.9  T
speedup  0.85
cpu  time for SCC    0.00 s
wall time for SCC    0.00 s
speedup  0.96
cpu  time for grad    0.01 s
wall time for grad    0.01 s
 E :    -45.37027225  G :  0.033170    pred/act E change: -0.124D-02  0.196D-03
Maxdispl :   0.1189   ||displ|| :   0.1899   Lambda : -0.212D-02
Largest |displ|/coords:  0.1189 (   2)  0.0741 (   5)  0.0620 (  17)
................................................................................
.............................. CYCLE   23 ......................................
................................................................................
   1    -45.6301535 -0.456302E+02  0.245E-01    9.41       0.0  T
   2    -45.6301774 -0.239053E-04  0.184E-01    9.41       1.0  T
   3    -45.6301938 -0.163880E-04  0.299E-02    9.41       1.0  T
   4    -45.6301972 -0.339735E-05  0.762E-03    9.41       2.7  T
   5    -45.6301972 -0.961830E-07  0.334E-03    9.41       6.2  T
   6    -45.6301973 -0.744932E-08  0.174E-03    9.41      12.0  T
speedup  0.87
cpu  time for SCC    0.00 s
wall time for SCC    0.00 s
speedup  0.96
cpu  time for grad    0.01 s
wall time for grad    0.01 s
 E :    -45.37132200  G :  0.013485    pred/act E change: -0.945D-03 -0.105D-02
Maxdispl :   0.1058   ||displ|| :   0.2487   Lambda : -0.735D-03
Largest |displ|/coords:  0.1058 (   3)  0.0910 (   8)  0.0830 (   5)
................................................................................
.............................. CYCLE   24 ......................................
................................................................................
   1    -45.6260370 -0.456260E+02  0.193E-01    9.39       0.0  T
   2    -45.6260455 -0.846629E-05  0.145E-01    9.39       1.0  T
   3    -45.6260499 -0.442609E-05  0.174E-02    9.39       1.2  T
   4    -45.6260515 -0.158500E-05  0.493E-03    9.39       4.2  T
   5    -45.6260515 -0.286345E-07  0.205E-03    9.39      10.2  T
   6    -45.6260515 -0.376941E-08  0.923E-04    9.39      22.6  T
speedup  1.04
cpu  time for SCC    0.00 s
wall time for SCC    0.00 s
speedup  1.04
cpu  time for grad    0.01 s
wall time for grad    0.01 s
 E :    -45.37139666  G :  0.018523    pred/act E change: -0.110D-02 -0.747D-04
Maxdispl :   0.1169   ||displ|| :   0.2817   Lambda : -0.133D-02
Largest |displ|/coords:  0.1169 (   7)  0.0915 (   4)  0.0902 (   6)
................................................................................
.............................. CYCLE   25 ......................................
................................................................................
   1    -45.6255899 -0.456256E+02  0.260E-01    9.36       0.0  T
   2    -45.6256050 -0.150627E-04  0.197E-01    9.36       1.0  T
   3    -45.6256190 -0.140021E-04  0.226E-02    9.36       1.0  T
   4    -45.6256206 -0.155198E-05  0.992E-03    9.36       2.1  T
   5    -45.6256207 -0.981021E-07  0.283E-03    9.36       7.4  T
   6    -45.6256207 -0.836923E-08  0.167E-03    9.36      12.5  T
speedup  1.09
cpu  time for SCC    0.01 s
wall time for SCC    0.00 s
speedup  1.04
cpu  time for grad    0.01 s
wall time for grad    0.01 s
 E :    -45.37129684  G :  0.032241    pred/act E change: -0.390D-03  0.998D-04
Maxdispl :   0.1357   ||displ|| :   0.2640   Lambda : -0.225D-02
Largest |displ|/coords:  0.1357 (   5)  0.1057 (   2)  0.0884 (  10)

generating ANC from model Hessian ...
 Shifting diagonal of input Hessian by   4.739669858555914E-003
 Lowest  eigenvalues of input Hessian
   -0.000000   -0.000000    0.000000    0.000000    0.000000    0.000000
    0.005000    0.005130    0.005555    0.006072    0.007508    0.008391
    0.009929    0.011070    0.011567    0.012284    0.012456    0.012952
 Highest eigenvalues
    1.406827    1.448424    1.481415    2.664663    3.355072    3.659915
 
cpu  time for ANC gen    0.01 s
wall time for ANC gen    0.01 s
................................................................................
.............................. CYCLE   26 ......................................
................................................................................
   1    -45.6289766 -0.456290E+02  0.253E-01    9.36       0.0  T
   2    -45.6290003 -0.236351E-04  0.190E-01    9.36       1.0  T
   3    -45.6290199 -0.195960E-04  0.302E-02    9.36       1.0  T
   4    -45.6290225 -0.266632E-05  0.109E-02    9.36       1.9  T
   5    -45.6290227 -0.165816E-06  0.386E-03    9.36       5.4  T
   6    -45.6290227 -0.162992E-07  0.197E-03    9.36      10.6  T
   7    -45.6290227 -0.900959E-08  0.541E-04    9.36      38.6  T
   8    -45.6290227 -0.106334E-08  0.240E-04    9.36      86.8  T
speedup  0.98
cpu  time for SCC    0.01 s
wall time for SCC    0.01 s
speedup  0.97
cpu  time for grad    0.01 s
wall time for grad    0.01 s
 E :    -45.37188516  G :  0.029573    pred/act E change:  0.000D+00 -0.588D-03
Maxdispl :   0.0779   ||displ|| :   0.1821   Lambda : -0.143D-02
Largest |displ|/coords:  0.0779 (   3)  0.0694 (  20)  0.0618 (   6)
................................................................................
.............................. CYCLE   27 ......................................
................................................................................
   1    -45.6280938 -0.456281E+02  0.174E-01    9.37       0.0  T
   2    -45.6281005 -0.668767E-05  0.132E-01    9.37       1.0  T
   3    -45.6281068 -0.622158E-05  0.158E-02    9.37       1.3  T
   4    -45.6281075 -0.698438E-06  0.448E-03    9.37       4.7  T
   5    -45.6281075 -0.193295E-07  0.193E-03    9.37      10.8  T
speedup  1.00
cpu  time for SCC    0.00 s
wall time for SCC    0.00 s
speedup  1.02
cpu  time for grad    0.01 s
wall time for grad    0.01 s
 E :    -45.37287605  G :  0.011287    pred/act E change:  0.000D+00 -0.991D-03
Maxdispl :   0.1004   ||displ|| :   0.2423   Lambda : -0.768D-03
Largest |displ|/coords:  0.1004 (   2)  0.0860 (   9)  0.0851 (  18)
................................................................................
.............................. CYCLE   28 ......................................
................................................................................
   1    -45.6273787 -0.456274E+02  0.183E-01    9.37       0.0  T
   2    -45.6273868 -0.808436E-05  0.137E-01    9.37       1.0  T
   3    -45.6273927 -0.587307E-05  0.186E-02    9.36       1.1  T
   4    -45.6273937 -0.105891E-05  0.410E-03    9.36       5.1  T
   5    -45.6273938 -0.308665E-07  0.202E-03    9.36      10.3  T
   6    -45.6273938 -0.547096E-08  0.852E-04    9.36      24.5  T
speedup  1.04
cpu  time for SCC    0.00 s
wall time for SCC    0.00 s
speedup  1.02
cpu  time for grad    0.01 s
wall time for grad    0.01 s
 E :    -45.37330331  G :  0.012417    pred/act E change: -0.740D-03 -0.427D-03
Maxdispl :   0.0757   ||displ|| :   0.1940   Lambda : -0.392D-03
Largest |displ|/coords:  0.0757 (   6)  0.0748 (  18)  0.0699 (   9)
................................................................................
.............................. CYCLE   29 ......................................
................................................................................
   1    -45.6284877 -0.456285E+02  0.123E-01    9.36       0.0  T
   2    -45.6284911 -0.341049E-05  0.925E-02    9.36       1.0  T
   3    -45.6284942 -0.314382E-05  0.139E-02    9.36       1.5  T
   4    -45.6284946 -0.371774E-06  0.487E-03    9.36       4.3  T
   5    -45.6284946 -0.248247E-07  0.133E-03    9.36      15.7  T
   6    -45.6284946 -0.188829E-08  0.843E-04    9.36      24.7  T
speedup  1.04
cpu  time for SCC    0.01 s
wall time for SCC    0.00 s
speedup  1.03
cpu  time for grad    0.01 s
wall time for grad    0.01 s
 E :    -45.37358772  G :  0.009198    pred/act E change: -0.407D-03 -0.284D-03
Maxdispl :   0.1760   ||displ|| :   0.3501   Lambda : -0.504D-03
Largest |displ|/coords:  0.1760 (   2)  0.1467 (   9)  0.1042 (   1)
................................................................................
.............................. CYCLE   30 ......................................
................................................................................
   1    -45.6277478 -0.456277E+02  0.220E-01    9.33       0.0  T
   2    -45.6277588 -0.109719E-04  0.165E-01    9.33       1.0  T
   3    -45.6277681 -0.927326E-05  0.256E-02    9.33       1.0  T
   4    -45.6277694 -0.136668E-05  0.868E-03    9.33       2.4  T
   5    -45.6277695 -0.690484E-07  0.237E-03    9.33       8.8  T
   6    -45.6277695 -0.581478E-08  0.145E-03    9.33      14.4  T
speedup  0.85
cpu  time for SCC    0.00 s
wall time for SCC    0.00 s
speedup  0.95
cpu  time for grad    0.01 s
wall time for grad    0.01 s
 E :    -45.37392236  G :  0.009319    pred/act E change: -0.204D-03 -0.335D-03
Maxdispl :   0.1511   ||displ|| :   0.2922   Lambda : -0.358D-03
Largest |displ|/coords:  0.1511 (   2)  0.1355 (   9)  0.0860 (   1)
................................................................................
.............................. CYCLE   31 ......................................
................................................................................
   1    -45.6282074 -0.456282E+02  0.152E-01    9.32       0.0  T
   2    -45.6282125 -0.503511E-05  0.113E-01    9.31       1.0  T
   3    -45.6282163 -0.383775E-05  0.174E-02    9.31       1.2  T
   4    -45.6282169 -0.620036E-06  0.449E-03    9.31       4.6  T
   5    -45.6282169 -0.235741E-07  0.135E-03    9.31      15.4  T
   6    -45.6282169 -0.189495E-08  0.748E-04    9.31      27.9  T
speedup  1.06
cpu  time for SCC    0.00 s
wall time for SCC    0.00 s
speedup  1.04
cpu  time for grad    0.01 s
wall time for grad    0.01 s
 E :    -45.37414061  G :  0.007097    pred/act E change: -0.283D-03 -0.218D-03
Maxdispl :   0.1424   ||displ|| :   0.2439   Lambda : -0.286D-03
Largest |displ|/coords:  0.1424 (   2)  0.0866 (   1)  0.0775 (   3)
................................................................................
.............................. CYCLE   32 ......................................
................................................................................
   1    -45.6285839 -0.456286E+02  0.145E-01    9.33       0.0  T
   2    -45.6285880 -0.414155E-05  0.109E-01    9.32       1.0  T
   3    -45.6285914 -0.337079E-05  0.162E-02    9.32       1.3  T
   4    -45.6285919 -0.546395E-06  0.420E-03    9.32       5.0  T
   5    -45.6285920 -0.271870E-07  0.157E-03    9.32      13.3  T
   6    -45.6285920 -0.214590E-08  0.814E-04    9.32      25.6  T
speedup  0.87
cpu  time for SCC    0.00 s
wall time for SCC    0.00 s
speedup  0.96
cpu  time for grad    0.01 s
wall time for grad    0.01 s
 E :    -45.37428738  G :  0.009677    pred/act E change: -0.194D-03 -0.147D-03
Maxdispl :   0.1054   ||displ|| :   0.1957   Lambda : -0.237D-03
Largest |displ|/coords:  0.1054 (   2)  0.0818 (   9)  0.0744 (   1)
................................................................................
.............................. CYCLE   33 ......................................
................................................................................
   1    -45.6275229 -0.456275E+02  0.110E-01    9.35       0.0  T
   2    -45.6275263 -0.336577E-05  0.826E-02    9.35       1.0  T
   3    -45.6275284 -0.215223E-05  0.128E-02    9.35       1.6  T
   4    -45.6275290 -0.529425E-06  0.346E-03    9.35       6.0  T
   5    -45.6275290 -0.163035E-07  0.115E-03    9.35      18.2  T
   6    -45.6275290 -0.120728E-08  0.595E-04    9.35      35.1  T
speedup  1.06
cpu  time for SCC    0.00 s
wall time for SCC    0.00 s
speedup  0.96
cpu  time for grad    0.01 s
wall time for grad    0.01 s
 E :    -45.37442808  G :  0.007498    pred/act E change: -0.151D-03 -0.141D-03
Maxdispl :   0.1015   ||displ|| :   0.1943   Lambda : -0.233D-03
Largest |displ|/coords:  0.1015 (   2)  0.0881 (   1)  0.0602 (   7)
................................................................................
.............................. CYCLE   34 ......................................
................................................................................
   1    -45.6298882 -0.456299E+02  0.948E-02    9.40       0.0  T
   2    -45.6298925 -0.430808E-05  0.702E-02    9.40       1.0  T
   3    -45.6298946 -0.209913E-05  0.154E-02    9.40       1.4  T
   4    -45.6298952 -0.568455E-06  0.441E-03    9.40       4.7  T
   5    -45.6298952 -0.294030E-07  0.124E-03    9.40      16.9  T
   6    -45.6298952 -0.180403E-08  0.712E-04    9.40      29.3  T
speedup  1.09
cpu  time for SCC    0.00 s
wall time for SCC    0.00 s
speedup  1.05
cpu  time for grad    0.01 s
wall time for grad    0.01 s
 E :    -45.37451222  G :  0.008514    pred/act E change: -0.123D-03 -0.841D-04
Maxdispl :   0.1559   ||displ|| :   0.2683   Lambda : -0.220D-03
Largest |displ|/coords:  0.1559 (   2)  0.1190 (   1)  0.0835 (   6)
................................................................................
.............................. CYCLE   35 ......................................
................................................................................
   1    -45.6263798 -0.456264E+02  0.146E-01    9.39       0.0  T
   2    -45.6263849 -0.516194E-05  0.109E-01    9.39       1.0  T
   3    -45.6263878 -0.286118E-05  0.183E-02    9.38       1.1  T
   4    -45.6263886 -0.827341E-06  0.420E-03    9.39       5.0  T
   5    -45.6263886 -0.313249E-07  0.149E-03    9.39      14.0  T
   6    -45.6263887 -0.134620E-08  0.813E-04    9.39      25.7  T
speedup  0.85
cpu  time for SCC    0.00 s
wall time for SCC    0.00 s
speedup  0.96
cpu  time for grad    0.01 s
wall time for grad    0.01 s
 E :    -45.37463190  G :  0.007265    pred/act E change: -0.121D-03 -0.120D-03
Maxdispl :   0.0380   ||displ|| :   0.0760   Lambda : -0.105D-03
Largest |displ|/coords:  0.0380 (   1)  0.0368 (   2)  0.0206 (  15)
................................................................................
.............................. CYCLE   36 ......................................
................................................................................
   1    -45.6282664 -0.456283E+02  0.422E-02    9.41       0.0  T
   2    -45.6282674 -0.100657E-05  0.309E-02    9.41       1.0  T
   3    -45.6282680 -0.664852E-06  0.801E-03    9.41       2.6  T
   4    -45.6282681 -0.107817E-06  0.204E-03    9.41      10.2  T
   5    -45.6282681 -0.752955E-08  0.763E-04    9.41      27.3  T
speedup  0.95
cpu  time for SCC    0.00 s
wall time for SCC    0.00 s
speedup  0.99
cpu  time for grad    0.01 s
wall time for grad    0.01 s
 E :    -45.37469449  G :  0.004114    pred/act E change: -0.118D-03 -0.626D-04
Maxdispl :   0.1400   ||displ|| :   0.2102   Lambda : -0.843D-04
Largest |displ|/coords:  0.1400 (   2)  0.1113 (   1)  0.0548 (   6)
................................................................................
.............................. CYCLE   37 ......................................
................................................................................
   1    -45.6284247 -0.456284E+02  0.833E-02    9.40       0.0  T
   2    -45.6284265 -0.184109E-05  0.620E-02    9.40       1.0  T
   3    -45.6284275 -0.101296E-05  0.115E-02    9.40       1.8  T
   4    -45.6284279 -0.311283E-06  0.215E-03    9.40       9.7  T
   5    -45.6284279 -0.666228E-08  0.903E-04    9.40      23.1  T
speedup  0.98
cpu  time for SCC    0.00 s
wall time for SCC    0.00 s
speedup  1.01
cpu  time for grad    0.01 s
wall time for grad    0.01 s
 E :    -45.37474787  G :  0.004465    pred/act E change: -0.529D-04 -0.534D-04
Maxdispl :   0.0945   ||displ|| :   0.1460   Lambda : -0.548D-04
Largest |displ|/coords:  0.0945 (   2)  0.0813 (   1)  0.0438 (   6)
................................................................................
.............................. CYCLE   38 ......................................
................................................................................
   1    -45.6290122 -0.456290E+02  0.601E-02    9.41       0.0  T
   2    -45.6290130 -0.777617E-06  0.447E-02    9.41       1.0  T
   3    -45.6290136 -0.619001E-06  0.805E-03    9.41       2.6  T
   4    -45.6290137 -0.105301E-06  0.206E-03    9.41      10.1  T
   5    -45.6290137 -0.521283E-08  0.688E-04    9.41      30.3  T
speedup  1.00
cpu  time for SCC    0.00 s
wall time for SCC    0.00 s
speedup  1.02
cpu  time for grad    0.01 s
wall time for grad    0.01 s
 E :    -45.37478319  G :  0.003256    pred/act E change: -0.440D-04 -0.353D-04
Maxdispl :   0.1174   ||displ|| :   0.1812   Lambda : -0.481D-04
Largest |displ|/coords:  0.1174 (   2)  0.0984 (   1)  0.0553 (   6)
................................................................................
.............................. CYCLE   39 ......................................
................................................................................
   1    -45.6287729 -0.456288E+02  0.873E-02    9.42       0.0  T
   2    -45.6287739 -0.998928E-06  0.651E-02    9.42       1.0  T
   3    -45.6287748 -0.961319E-06  0.962E-03    9.42       2.2  T
   4    -45.6287750 -0.121514E-06  0.234E-03    9.42       8.9  T
   5    -45.6287750 -0.777215E-08  0.919E-04    9.42      22.7  T
   6    -45.6287750 -0.103979E-08  0.465E-04    9.42      44.8  T
speedup  1.06
cpu  time for SCC    0.00 s
wall time for SCC    0.00 s
speedup  1.00
cpu  time for grad    0.01 s
wall time for grad    0.01 s
 E :    -45.37481403  G :  0.004776    pred/act E change: -0.280D-04 -0.308D-04
Maxdispl :   0.0810   ||displ|| :   0.1486   Lambda : -0.599D-04
Largest |displ|/coords:  0.0810 (   2)  0.0750 (   1)  0.0627 (   6)
................................................................................
.............................. CYCLE   40 ......................................
................................................................................
   1    -45.6289752 -0.456290E+02  0.847E-02    9.42       0.0  T
   2    -45.6289762 -0.971807E-06  0.631E-02    9.42       1.0  T
   3    -45.6289771 -0.948200E-06  0.908E-03    9.42       2.3  T
   4    -45.6289772 -0.970179E-07  0.246E-03    9.42       8.5  T
   5    -45.6289772 -0.851581E-08  0.873E-04    9.42      23.9  T
speedup  1.03
cpu  time for SCC    0.00 s
wall time for SCC    0.00 s
speedup  1.03
cpu  time for grad    0.01 s
wall time for grad    0.01 s
 E :    -45.37484401  G :  0.003799    pred/act E change: -0.248D-04 -0.300D-04
Maxdispl :   0.0581   ||displ|| :   0.1006   Lambda : -0.428D-04
Largest |displ|/coords:  0.0581 (   1)  0.0580 (   2)  0.0347 (   6)
................................................................................
.............................. CYCLE   41 ......................................
................................................................................
   1    -45.6288420 -0.456288E+02  0.659E-02    9.43       0.0  T
   2    -45.6288428 -0.825199E-06  0.496E-02    9.43       1.0  T
   3    -45.6288436 -0.796325E-06  0.592E-03    9.43       3.5  T
   4    -45.6288437 -0.104656E-06  0.187E-03    9.43      11.2  T
   5    -45.6288437 -0.484136E-08  0.696E-04    9.43      30.0  T
   6    -45.6288437 -0.532523E-09  0.322E-04    9.43      64.7  T
speedup  0.87
cpu  time for SCC    0.00 s
wall time for SCC    0.00 s
speedup  1.01
cpu  time for grad    0.01 s
wall time for grad    0.01 s
 E :    -45.37487130  G :  0.003305    pred/act E change: -0.306D-04 -0.273D-04
Maxdispl :   0.0351   ||displ|| :   0.0689   Lambda : -0.330D-04
Largest |displ|/coords:  0.0351 (   1)  0.0316 (   4)  0.0268 (   2)
................................................................................
.............................. CYCLE   42 ......................................
................................................................................
   1    -45.6287522 -0.456288E+02  0.469E-02    9.42       0.0  T
   2    -45.6287527 -0.488292E-06  0.346E-02    9.42       1.0  T
   3    -45.6287531 -0.344175E-06  0.589E-03    9.42       3.5  T
   4    -45.6287531 -0.629481E-07  0.153E-03    9.42      13.6  T
   5    -45.6287531 -0.380359E-08  0.451E-04    9.42      46.3  T
   6    -45.6287531 -0.255753E-09  0.269E-04    9.42      77.5  T
speedup  0.87
cpu  time for SCC    0.00 s
wall time for SCC    0.00 s
speedup  1.02
cpu  time for grad    0.01 s
wall time for grad    0.01 s
 E :    -45.37489368  G :  0.002654    pred/act E change: -0.216D-04 -0.224D-04
Maxdispl :   0.0311   ||displ|| :   0.0574   Lambda : -0.202D-04
Largest |displ|/coords:  0.0311 (   1)  0.0288 (   4)  0.0180 (  11)
................................................................................
.............................. CYCLE   43 ......................................
................................................................................
   1    -45.6292597 -0.456293E+02  0.400E-02    9.42       0.0  T
   2    -45.6292600 -0.277717E-06  0.297E-02    9.42       1.0  T
   3    -45.6292602 -0.239744E-06  0.430E-03    9.42       4.9  T
   4    -45.6292602 -0.286056E-07  0.108E-03    9.42      19.3  T
   5    -45.6292602 -0.257668E-08  0.384E-04    9.42      54.4  T
   6    -45.6292602 -0.171227E-09  0.227E-04    9.42      91.9  T
speedup  0.85
cpu  time for SCC    0.00 s
wall time for SCC    0.00 s
speedup  0.92
cpu  time for grad    0.01 s
wall time for grad    0.01 s
 E :    -45.37490581  G :  0.001971    pred/act E change: -0.166D-04 -0.121D-04
Maxdispl :   0.0839   ||displ|| :   0.1293   Lambda : -0.151D-04
Largest |displ|/coords:  0.0839 (   1)  0.0707 (   2)  0.0328 (   6)
................................................................................
.............................. CYCLE   44 ......................................
................................................................................
   1    -45.6284747 -0.456285E+02  0.670E-02    9.41       0.0  T
   2    -45.6284753 -0.632058E-06  0.501E-02    9.41       1.0  T
   3    -45.6284759 -0.521677E-06  0.706E-03    9.41       3.0  T
   4    -45.6284760 -0.854040E-07  0.196E-03    9.41      10.7  T
   5    -45.6284760 -0.394289E-08  0.572E-04    9.41      36.4  T
   6    -45.6284760 -0.307736E-09  0.350E-04    9.41      59.5  T
speedup  1.04
cpu  time for SCC    0.00 s
wall time for SCC    0.00 s
speedup  1.00
cpu  time for grad    0.01 s
wall time for grad    0.01 s
 E :    -45.37491192  G :  0.002485    pred/act E change: -0.101D-04 -0.611D-05
Maxdispl :   0.0128   ||displ|| :   0.0265   Lambda : -0.112D-04
Largest |displ|/coords:  0.0128 (   9)  0.0114 (   6)  0.0085 (   4)
................................................................................
.............................. CYCLE   45 ......................................
................................................................................
   1    -45.6292848 -0.456293E+02  0.196E-02    9.42       0.0  T
   2    -45.6292849 -0.991020E-07  0.146E-02    9.42       1.4  T
   3    -45.6292850 -0.533550E-07  0.260E-03    9.42       8.0  T
   4    -45.6292850 -0.136540E-07  0.719E-04    9.42      29.0  T
   5    -45.6292850 -0.711772E-09  0.162E-04    9.42     128.6  T
speedup  1.03
cpu  time for SCC    0.00 s
wall time for SCC    0.00 s
speedup  0.99
cpu  time for grad    0.01 s
wall time for grad    0.01 s
 E :    -45.37491852  G :  0.001269    pred/act E change: -0.768D-05 -0.660D-05
Maxdispl :   0.0276   ||displ|| :   0.0410   Lambda : -0.789D-05
Largest |displ|/coords:  0.0276 (   1)  0.0158 (   2)  0.0105 (   7)
................................................................................
.............................. CYCLE   46 ......................................
................................................................................
   1    -45.6294193 -0.456294E+02  0.259E-02    9.43       0.0  T
   2    -45.6294194 -0.897084E-07  0.195E-02    9.42       1.1  T
   3    -45.6294195 -0.830780E-07  0.184E-03    9.42      11.4  T
   4    -45.6294195 -0.996927E-08  0.813E-04    9.42      25.7  T
   5    -45.6294195 -0.675499E-09  0.218E-04    9.42      95.5  T
speedup  1.00
cpu  time for SCC    0.00 s
wall time for SCC    0.00 s
speedup  0.98
cpu  time for grad    0.01 s
wall time for grad    0.01 s
 E :    -45.37492297  G :  0.001298    pred/act E change: -0.562D-05 -0.444D-05
Maxdispl :   0.0323   ||displ|| :   0.0482   Lambda : -0.540D-05
Largest |displ|/coords:  0.0323 (   1)  0.0202 (   2)  0.0138 (   7)
................................................................................
.............................. CYCLE   47 ......................................
................................................................................
   1    -45.6294242 -0.456294E+02  0.300E-02    9.43       0.0  T
   2    -45.6294243 -0.895609E-07  0.227E-02    9.43       1.0  T
   3    -45.6294244 -0.978675E-07  0.167E-03    9.43      12.5  T
   4    -45.6294244 -0.859936E-08  0.790E-04    9.43      26.4  T
   5    -45.6294244 -0.606761E-09  0.254E-04    9.43      82.0  T
speedup  1.00
cpu  time for SCC    0.00 s
wall time for SCC    0.00 s
speedup  0.98
cpu  time for grad    0.01 s
wall time for grad    0.01 s
 E :    -45.37492665  G :  0.001544    pred/act E change: -0.395D-05 -0.369D-05
Maxdispl :   0.0342   ||displ|| :   0.0571   Lambda : -0.642D-05
Largest |displ|/coords:  0.0342 (   1)  0.0224 (   2)  0.0185 (   7)
................................................................................
.............................. CYCLE   48 ......................................
................................................................................
   1    -45.6292144 -0.456292E+02  0.354E-02    9.42       0.0  T
   2    -45.6292145 -0.965908E-07  0.267E-02    9.42       1.0  T
   3    -45.6292146 -0.104989E-06  0.170E-03    9.42      12.3  T
   4    -45.6292146 -0.859915E-08  0.777E-04    9.42      26.8  T
   5    -45.6292146 -0.600046E-09  0.277E-04    9.42      75.2  T
speedup  0.98
cpu  time for SCC    0.00 s
wall time for SCC    0.00 s
speedup  1.06
cpu  time for grad    0.01 s
wall time for grad    0.01 s
 E :    -45.37493063  G :  0.001307    pred/act E change: -0.271D-05 -0.397D-05
Maxdispl :   0.0213   ||displ|| :   0.0339   Lambda : -0.451D-05
Largest |displ|/coords:  0.0213 (   1)  0.0100 (   4)  0.0099 (   8)
................................................................................
.............................. CYCLE   49 ......................................
................................................................................
   1    -45.6292278 -0.456292E+02  0.275E-02    9.42       0.0  T
   2    -45.6292278 -0.662994E-07  0.208E-02    9.42       1.0  T
   3    -45.6292279 -0.791571E-07  0.137E-03    9.42      15.2  T
   4    -45.6292279 -0.451371E-08  0.611E-04    9.42      34.1  T
   5    -45.6292279 -0.354085E-09  0.200E-04    9.42     104.1  T
speedup  1.03
cpu  time for SCC    0.00 s
wall time for SCC    0.00 s
speedup  0.99
cpu  time for grad    0.01 s
wall time for grad    0.01 s
 E :    -45.37493375  G :  0.001133    pred/act E change: -0.322D-05 -0.313D-05
Maxdispl :   0.0187   ||displ|| :   0.0283   Lambda : -0.386D-05
Largest |displ|/coords:  0.0187 (   1)  0.0086 (   8)  0.0082 (   3)
................................................................................
.............................. CYCLE   50 ......................................
................................................................................
   1    -45.6293073 -0.456293E+02  0.252E-02    9.42       0.0  T
   2    -45.6293074 -0.612713E-07  0.191E-02    9.42       1.1  T
   3    -45.6293074 -0.644598E-07  0.145E-03    9.42      14.4  T
   4    -45.6293074 -0.572369E-08  0.542E-04    9.42      38.5  T
   5    -45.6293074 -0.319581E-09  0.175E-04    9.42     119.3  T
speedup  1.03
cpu  time for SCC    0.00 s
wall time for SCC    0.00 s
speedup  0.98
cpu  time for grad    0.01 s
wall time for grad    0.01 s
 E :    -45.37493631  G :  0.000751    pred/act E change: -0.226D-05 -0.256D-05
Maxdispl :   0.0192   ||displ|| :   0.0240   Lambda : -0.235D-05
Largest |displ|/coords:  0.0192 (   1)  0.0074 (   8)  0.0069 (   3)
................................................................................
.............................. CYCLE   51 ......................................
................................................................................
   1    -45.6293091 -0.456293E+02  0.210E-02    9.42       0.0  T
   2    -45.6293091 -0.341153E-07  0.159E-02    9.42       1.3  T
   3    -45.6293091 -0.385027E-07  0.108E-03    9.42      19.3  T
   4    -45.6293091 -0.247728E-08  0.463E-04    9.42      45.0  T
   5    -45.6293091 -0.156241E-09  0.121E-04    9.42     173.0  T
speedup  1.00
cpu  time for SCC    0.00 s
wall time for SCC    0.00 s
speedup  0.96
cpu  time for grad    0.01 s
wall time for grad    0.01 s
 E :    -45.37493785  G :  0.000845    pred/act E change: -0.193D-05 -0.153D-05
Maxdispl :   0.0192   ||displ|| :   0.0262   Lambda : -0.201D-05
Largest |displ|/coords:  0.0192 (   1)  0.0103 (   2)  0.0059 (   3)
................................................................................
.............................. CYCLE   52 ......................................
................................................................................
   1    -45.6293746 -0.456294E+02  0.208E-02    9.42       0.0  T
   2    -45.6293747 -0.349678E-07  0.158E-02    9.42       1.3  T
   3    -45.6293747 -0.411456E-07  0.117E-03    9.42      17.9  T
   4    -45.6293747 -0.210603E-08  0.515E-04    9.42      40.5  T
   5    -45.6293747 -0.175291E-09  0.119E-04    9.42     175.4  T
speedup  1.03
cpu  time for SCC    0.00 s
wall time for SCC    0.00 s
speedup  0.99
cpu  time for grad    0.01 s
wall time for grad    0.01 s
 E :    -45.37493912  G :  0.000746    pred/act E change: -0.117D-05 -0.127D-05
Maxdispl :   0.0166   ||displ|| :   0.0225   Lambda : -0.137D-05
Largest |displ|/coords:  0.0166 (   1)  0.0090 (   2)  0.0054 (   3)

generating ANC from model Hessian ...
 Shifting diagonal of input Hessian by   4.801539918136919E-003
 Lowest  eigenvalues of input Hessian
   -0.000000   -0.000000   -0.000000   -0.000000   -0.000000    0.000000
    0.005000    0.005177    0.005713    0.006201    0.007225    0.008381
    0.009430    0.010602    0.011701    0.013108    0.013484    0.013782
 Highest eigenvalues
    1.394540    1.414913    1.480057    2.772457    3.316727    3.640552
 
cpu  time for ANC gen    0.01 s
wall time for ANC gen    0.01 s
................................................................................
.............................. CYCLE   53 ......................................
................................................................................
   1    -45.6293397 -0.456293E+02  0.158E-02    9.42       0.0  T
   2    -45.6293397 -0.179312E-07  0.119E-02    9.42       1.7  T
   3    -45.6293397 -0.211682E-07  0.962E-04    9.42      21.7  T
   4    -45.6293397 -0.107745E-08  0.252E-04    9.42      82.8  T
speedup  0.91
cpu  time for SCC    0.00 s
wall time for SCC    0.00 s
speedup  1.05
cpu  time for grad    0.01 s
wall time for grad    0.01 s
 E :    -45.37494008  G :  0.000657    pred/act E change:  0.000D+00 -0.963D-06
Maxdispl :   0.0054   ||displ|| :   0.0096   Lambda : -0.114D-05
Largest |displ|/coords:  0.0054 (   4)  0.0051 (   3)  0.0033 (   2)
................................................................................
.............................. CYCLE   54 ......................................
................................................................................
   1    -45.6293658 -0.456294E+02  0.692E-03    9.42       0.0  T
   2    -45.6293658 -0.926705E-08  0.524E-03    9.42       4.0  T
   3    -45.6293658 -0.100836E-07  0.555E-04    9.42      37.6  T
   4    -45.6293658 -0.100245E-08  0.270E-04    9.42      77.3  T
speedup  0.94
cpu  time for SCC    0.00 s
wall time for SCC    0.00 s
speedup  0.96
cpu  time for grad    0.01 s
wall time for grad    0.01 s
 E :    -45.37494073  G :  0.000414    pred/act E change:  0.000D+00 -0.646D-06
Maxdispl :   0.0071   ||displ|| :   0.0128   Lambda : -0.106D-05
Largest |displ|/coords:  0.0071 (   3)  0.0060 (   4)  0.0050 (   2)
................................................................................
.............................. CYCLE   55 ......................................
................................................................................
   1    -45.6293793 -0.456294E+02  0.853E-03    9.42       0.0  T
   2    -45.6293793 -0.136070E-07  0.647E-03    9.42       3.2  T
   3    -45.6293793 -0.120293E-07  0.683E-04    9.42      30.5  T
   4    -45.6293793 -0.172105E-08  0.363E-04    9.42      57.4  T
speedup  0.94
cpu  time for SCC    0.00 s
wall time for SCC    0.00 s
speedup  1.06
cpu  time for grad    0.01 s
wall time for grad    0.01 s
 E :    -45.37494101  G :  0.000351    pred/act E change: -0.572D-06 -0.278D-06
Maxdispl :   0.0027   ||displ|| :   0.0057   Lambda : -0.559D-06
Largest |displ|/coords:  0.0027 (   3)  0.0026 (   4)  0.0023 (  12)
................................................................................
.............................. CYCLE   56 ......................................
................................................................................
   1    -45.6293547 -0.456294E+02  0.371E-03    9.42       0.0  T
   2    -45.6293547 -0.163834E-08  0.279E-03    9.42       7.5  T
   3    -45.6293547 -0.149740E-08  0.268E-04    9.42      77.8  T
   4    -45.6293547 -0.179263E-09  0.100E-04    9.42     208.2  T
speedup  0.94
cpu  time for SCC    0.00 s
wall time for SCC    0.00 s
speedup  0.95
cpu  time for grad    0.01 s
wall time for grad    0.01 s
 E :    -45.37494136  G :  0.000233    pred/act E change: -0.532D-06 -0.354D-06
Maxdispl :   0.0046   ||displ|| :   0.0074   Lambda : -0.295D-06
Largest |displ|/coords:  0.0046 (   2)  0.0025 (   4)  0.0024 (  12)
................................................................................
.............................. CYCLE   57 ......................................
................................................................................
   1    -45.6293085 -0.456293E+02  0.392E-03    9.42       0.0  T
   2    -45.6293085 -0.239537E-08  0.294E-03    9.42       7.1  T
   3    -45.6293085 -0.196533E-08  0.342E-04    9.42      61.0  T
   4    -45.6293085 -0.286974E-09  0.106E-04    9.42     197.2  T
speedup  0.94
cpu  time for SCC    0.00 s
wall time for SCC    0.00 s
speedup  0.96
cpu  time for grad    0.01 s
wall time for grad    0.01 s
 E :    -45.37494157  G :  0.000132    pred/act E change: -0.280D-06 -0.206D-06
Maxdispl :   0.0067   ||displ|| :   0.0114   Lambda : -0.253D-06
Largest |displ|/coords:  0.0067 (   2)  0.0053 (   4)  0.0037 (  10)
................................................................................
.............................. CYCLE   58 ......................................
................................................................................
   1    -45.6292609 -0.456293E+02  0.624E-03    9.42       0.0  T
   2    -45.6292609 -0.458917E-08  0.469E-03    9.42       4.4  T
   3    -45.6292609 -0.418324E-08  0.460E-04    9.42      45.3  T
   4    -45.6292609 -0.505686E-09  0.197E-04    9.42     105.7  T
speedup  1.14
cpu  time for SCC    0.00 s
wall time for SCC    0.00 s
speedup  1.03
cpu  time for grad    0.01 s
wall time for grad    0.01 s
 E :    -45.37494173  G :  0.000155    pred/act E change: -0.147D-06 -0.161D-06
Maxdispl :   0.0046   ||displ|| :   0.0064   Lambda : -0.935D-07
Largest |displ|/coords:  0.0046 (   2)  0.0019 (   4)  0.0018 (   5)
................................................................................
.............................. CYCLE   59 ......................................
................................................................................
   1    -45.6292601 -0.456293E+02  0.297E-03    9.42       0.0  T
   2    -45.6292601 -0.105442E-08  0.222E-03    9.42       9.4  T
   3    -45.6292601 -0.961855E-09  0.259E-04    9.42      80.5  T
   4    -45.6292601 -0.117936E-09  0.793E-05    9.42     262.8  T
speedup  1.25
cpu  time for SCC    0.00 s
wall time for SCC    0.00 s
speedup  1.06
cpu  time for grad    0.01 s
wall time for grad    0.01 s
 E :    -45.37494180  G :  0.000138    pred/act E change: -0.127D-06 -0.688D-07
Maxdispl :   0.0036   ||displ|| :   0.0051   Lambda : -0.573D-07
Largest |displ|/coords:  0.0036 (   2)  0.0015 (   6)  0.0014 (   4)

   *** GEOMETRY OPTIMIZATION CONVERGED AFTER 59 ITERATIONS ***

------------------------------------------------------------------------
 total energy gain (kcal):     -0.0011
------------------------------------------------------------------------
================
 final structure:
================
$coord
       -2.32087722619575        0.39376255500840       -1.57546070097397      S 
       -1.42570789698448       -2.21068797323493       -1.28262715452223      O 
       -2.27526629677835        1.27539029582385       -4.14290385877169      O 
       -5.11109530408938        0.45426379386465       -0.63962874090728      O 
       -0.87167586057419        2.06421648235277        0.12843847488942      O 
       -0.19290161945742        1.08345087493425        2.80807356087844      H 
       -5.05443132164109       -0.38958162205069        1.01281698174351      H 
        0.25426056097826        0.33133931738842        4.49316032330676      O 
        0.70997772422973        1.73225167583920        5.54770121754625      H 
        2.33206277091350        0.62373158642667       -5.92056812635784      O 
        2.43446654237111        1.64415148933562       -7.41468756528577      H 
        0.55593589343660        0.72095455221466       -5.37244359677586      H 
       -4.62880275154612       -1.33176957089154        4.03374959708321      O 
       -2.86046658391736       -0.98575838061634        4.42864827972778      H 
       -5.63255293326547       -0.27829212688692        5.11612417944462      H 
        3.96311516345899        1.95473760692622       -1.35499295902347      O 
        3.75449617785321        1.55604956503121       -3.15695537527710      H 
        2.28048826885537        2.51741283799482       -0.83524720022978      H 
        2.88505665022229       -2.29186357648390        0.85632833148601      N 
        3.95497014005485       -3.87280896352992        0.71133728140199      H 
        2.45177420401474       -1.84450272644758        2.69515553587194      H 
        3.71991036111552       -0.66143366277001       -0.02838968439958      H 
        1.07726333695223       -2.48501406804189       -0.10762878192899      H 
$end
 
 Bond Distances (Angstroems)
 ---------------------------
S1-O2=1.4656         S1-O3=1.4367         S1-O4=1.5577         S1-O5=1.4773         O2-S1=1.4656         O3-S1=1.4367         
O4-S1=1.5577         O4-H7=0.9823         O5-S1=1.4773         H6-O8=1.0048         H7-O4=0.9823         O8-H6=1.0048         
O8-H9=0.9587         H9-O8=0.9587         O10-H11=0.9590       O10-H12=0.9850       H11-O10=0.9590       H12-O10=0.9850       
O13-H14=0.9761       O13-H15=0.9597       H14-O13=0.9761       H15-O13=0.9597       O16-H17=0.9828       O16-H18=0.9783       
H17-O16=0.9828       H18-O16=0.9783       N19-H20=1.0131       N19-H21=1.0274       N19-H22=1.0765       N19-H23=1.0890       
H20-N19=1.0131       H21-N19=1.0274       H22-N19=1.0765       H23-N19=1.0890       
 N  H  Rav=1.0515 sigma=0.0320  Rmin=1.0131  Rmax=1.0890     4
 O  H  Rav=0.9763 sigma=0.0144  Rmin=0.9587  Rmax=1.0048     9
 S  O  Rav=1.4843 sigma=0.0449  Rmin=1.4367  Rmax=1.5577     4
 
 selected bond angles (degree)
 --------------------
O3-S1-O2=113.57                O4-S1-O2=106.98                O4-S1-O3=108.05                O5-S1-O2=109.29                
O5-S1-O3=111.97                O5-S1-O4=106.60                H7-O4-S1=104.17                H9-O8-H6=105.64                
H12-O10-H11=105.50             
 
 selected dihedral angles (degree)
 ---------------------------------
H7-O4-S1-O2= 49.44            H7-O4-S1-O3=172.08            H7-O4-S1-O5=292.60            
 
 CMA Distance (Angstroems)
 ---------------------------
R(CMA):  2.0262

========================================================================
 FINAL SINGLEPOINT CALCULATION ON OPTIMIZED GEOMETRY
========================================================================

 Ncao       : 59
 Nao        : 58
 Nshell     : 34
 Nel        : 72
 T(el)      :   300.0
 intcut     :    25.0
 scfconv/Eh :  0.100E-05
   qconv/e  :  0.100E-03
 intneglect :  0.100E-07
 broydamp   :      0.250
 iter      E             dE          RMSdq      gap      omega  full diag
   1    -45.6292601 -0.456293E+02  0.249E-05    9.42       0.0  T
   2    -45.6292601 -0.397904E-12  0.156E-05    9.42    1334.9  T
   3    -45.6292601 -0.255795E-12  0.338E-06    9.42    6163.5  T
speedup  1.20
cpu  time for SCC    0.00 s
wall time for SCC    0.00 s

   *** convergence criteria satisfied after 3 iterations ***

          eigenvalues
 #    :          24         25         26         27         28         29         30         31
 occ. :        2.000      2.000      2.000      2.000      2.000      2.000      2.000      2.000
 eps  :       -13.672    -13.474    -12.960    -12.604    -12.514    -12.146    -12.079    -11.984
 #    :          32         33         34         35         36         37         38         39
 occ. :        2.000      2.000      2.000      2.000      2.000      0.000      0.000      0.000
 eps  :       -11.954    -11.767    -11.717    -11.642    -11.476     -2.056     -0.682      0.086
 #    :          40         41         42         43         44         45         46         47
 occ. :        0.000      0.000      0.000      0.000      0.000      0.000      0.000      0.000
 eps  :         0.720      1.413      1.455      2.214      3.093      4.217      5.231      5.589


   #   Z            q   n(s)   n(p)   n(d)      C6AA      α(0)
   1  16 S      1.666  1.584  1.796  0.954    89.554    15.927
   2   8 O     -0.735  1.769  4.966  0.000    29.648     7.301
   3   8 O     -0.700  1.760  4.939  0.000    28.703     7.183
   4   8 O     -0.603  1.756  4.847  0.000    25.239     6.782
   5   8 O     -0.773  1.776  4.997  0.000    30.765     7.437
   6   1 H      0.341  0.659  0.000  0.000     0.609     1.226
   7   1 H      0.374  0.626  0.000  0.000     0.528     1.138
   8   8 O     -0.644  1.757  4.887  0.000    26.276     6.918
   9   1 H      0.286  0.714  0.000  0.000     0.763     1.372
  10   8 O     -0.618  1.745  4.873  0.000    25.633     6.833
  11   1 H      0.287  0.713  0.000  0.000     0.761     1.370
  12   1 H      0.325  0.675  0.000  0.000     0.651     1.268
  13   8 O     -0.601  1.751  4.850  0.000    25.217     6.777
  14   1 H      0.330  0.670  0.000  0.000     0.639     1.255
  15   1 H      0.294  0.706  0.000  0.000     0.740     1.351
  16   8 O     -0.618  1.755  4.862  0.000    25.617     6.831
  17   1 H      0.329  0.671  0.000  0.000     0.640     1.257
  18   1 H      0.319  0.681  0.000  0.000     0.667     1.283
  19   7 N     -0.353  1.278  4.074  0.000    29.061     8.007
  20   1 H      0.227  0.773  0.000  0.000     0.979     1.550
  21   1 H      0.264  0.736  0.000  0.000     0.832     1.429
  22   1 H      0.297  0.703  0.000  0.000     0.724     1.333
  23   1 H      0.307  0.693  0.000  0.000     0.689     1.300

 Mol. C6AA /au·bohr⁶  :       4502.628179
 Mol. C8AA /au·bohr⁸  :      99195.929945
 Mol. α(0) /au        :         97.128601

 
 Wiberg/Mayer (AO) data. WBOs > 0.1 written file <wbo>
 largest (>0.05) Wiberg bond orders for each atom
           total WBO             WBO to atom ...
     1  S   4.869    O    3 1.387    O    2 1.256    O    5 1.220    O    4 0.959
     2  O   1.758    S    1 1.256    H   23 0.155    O    3 0.107    O    5 0.105    O    4 0.075    N   19 0.058
     3  O   1.771    S    1 1.387    O    2 0.107    O    5 0.102    O    4 0.068    H   12 0.065
     4  O   1.981    S    1 0.959    H    7 0.763    O    5 0.075    O    2 0.075    O    3 0.068
     5  O   1.710    S    1 1.220    O    2 0.105    O    3 0.102    H    6 0.102    O    4 0.075
     6  H   0.884    O    8 0.775    O    5 0.102
     7  H   0.860    O    4 0.763    O   13 0.080
     8  O   1.859    H    9 0.911    H    6 0.775
     9  H   0.918    O    8 0.911
    10  O   1.861    H   11 0.913    H   12 0.825    H   17 0.061
    11  H   0.917    O   10 0.913
    12  H   0.894    O   10 0.825    O    3 0.065
    13  O   1.892    H   15 0.912    H   14 0.842    H    7 0.080
    14  H   0.891    O   13 0.842
    15  H   0.914    O   13 0.912
    16  O   1.945    H   18 0.848    H   17 0.828    H   22 0.142    N   19 0.068
    17  H   0.892    O   16 0.828    O   10 0.061
    18  H   0.898    O   16 0.848
    19  N   3.509    H   20 0.945    H   21 0.891    H   22 0.765    H   23 0.741    O   16 0.068    O    2 0.058
    20  H   0.948    N   19 0.945
    21  H   0.930    N   19 0.891
    22  H   0.912    N   19 0.765    O   16 0.142
    23  H   0.906    N   19 0.741    O    2 0.155
 MOs/occ written to file <molden.input>
 
molecular dipole:
                 x           y           z       tot (Debye)
 q only:        1.714      -0.670       1.919
   full:        1.163      -0.215       1.990       5.885
molecular quadrupole (traceless):
                xx          xy          yy          xz          yz          zz
 q only:       -1.904      -7.367      -1.497      -6.328       0.487       3.401
  q+dip:       -4.950      -9.128      -2.111      -6.312       1.176       7.061
   full:       -4.649      -9.230      -2.672      -6.547       1.138       7.321

SCC energy    :     -45.6292601
rep           :       0.2541649
ES            :       0.2369678
AES           :      -0.0664245
AXC           :      -0.0085313
disp          :      -0.0174590
XB            :       0.0000000
fix           :       0.0000000
total E       :     -45.3749418
atomizationE  :       4.4580043     2797.44
(atE without considering molecular charge,
 total energy contains solvation terms)
H-L gap (eV)  :          9.4196
optimized geometry written to: xtbopt.xyz


------------------------------------------------------------------------
 * finished run on 2019/09/16 at 12:45:00.377     
------------------------------------------------------------------------
 total:
 * wall-time:     0 d,  0 h,  0 min,  1.343 sec
 *  cpu-time:     0 d,  0 h,  0 min,  1.290 sec
 * ratio c/w:     0.961 speedup
 SCF:
 * wall-time:     0 d,  0 h,  0 min,  0.139 sec
 *  cpu-time:     0 d,  0 h,  0 min,  0.136 sec
 * ratio c/w:     0.975 speedup
 ANC optimizer:
 * wall-time:     0 d,  0 h,  0 min,  1.175 sec
 *  cpu-time:     0 d,  0 h,  0 min,  1.129 sec
 * ratio c/w:     0.961 speedup

