      -----------------------------------------------------------      
     |                   =====================                   |     
     |                           x T B                           |     
     |                   =====================                   |     
     |                         S. Grimme                         |     
     |          Mulliken Center for Theoretical Chemistry        |     
     |                    University of Bonn                     |     
     |                 Version 6.0.1 (SAW181210)                 |     
      -----------------------------------------------------------      

   This program is distributed in the hope that it will be useful,
   but WITHOUT ANY WARRANTY; without even the implied warranty of
   MERCHANTABILITY or FITNESS FOR A PARTICULAR PURPOSE.
   
   FOR NON-COMMERCIAL, ACADEMIA USE ONLY.
   
   Cite this work as:
   S. Grimme, C. Bannwarth, P. Shushkov, J. Comput. Theory Chem., 2017,
   13, 1989-2009.
   C. Bannwarth, S. Ehlert and S. Grimme., ChemRxiv, 2018, preprint.
   http://doi.org/10.26434/chemrxiv.7246238.v1
   
   for sTDA-xTB:
   S. Grimme and C. Bannwarth, J. Chem. Phys., 2016, 145, 054103.
   
   in the mass-spec context:
   V. Asgeirsson, C. Bauer and S. Grimme, Chem. Sci., 2017, 8, 4879.
   
   if GBSA is used:
   P. Shushkov, F. März and S. Grimme, unpublished.
   
   for ANC optimizer:
   S. Grimme, unpublished.
   Rational Function algorithm used in ANCopt:
   F. Eckert, P. Pulay, H.-J. Werner, J. Comput. Chem., 1997, 18, 1473.
   
   with help from (in alphabetical order)
   C. Bannwarth, F. Bohle, G. Brandenburg, E. Caldeweyher, M. Checinski,
   S. Dohm, S. Ehlert, S. Ehrlich, F. März, H. Neugebauer, J. Pisarek,
   P. Pracht, P. Shushkov, and S. Spicher.
   
 * started run on 2019/09/16 at 11:14:58.024     
========================================================================
 # omp threads = 1
========================================================================
number of atoms            : 23
number of electrons        : 72
charge                     : 0
spin                       : .0
first test random number   : .2094

########################################################################
# WARNING! Please study the warnings concerning your input carefully
#  - XTBPATH is not set, using XTBHOME instead
#  - the use of '-opt' is discouraged, please use '--opt' next time
#  - the use of '-chrg' is discouraged, please use '--chrg' next time
#  - the use of '-uhf' is discouraged, please use '--uhf' next time
########################################################################

           ------------------------------------------------- 
          |                 G F N 2 - x T B                 |
          | Geometry, Frequencies, Noncovalent interactions |
          |            JCTC 2018 parametrisation            |
           ------------------------------------------------- 
      method parameters     
 k(s)        :  1.8500
 k(p)        :  2.2300
 k(d)        :  2.2300
 k(f)        :  2.0000
 kEN (H0ij)  : -2.0000
 D4 a1       :  0.5200
 D4 a2       :  5.0000
 D4 s6       :  1.0000
 D4 s8       :  2.7000
 D4 s9       :  5.0000
 alphaj      :  2.0000


            Z     q(EN)     CN     RAES       Cart. coordinates
     1  S   6.0    0.59    4.29    4.21     2.57258    -0.36232     1.27298
     2  O   6.0   -0.33    1.16    1.80    -0.08734     0.05778     1.84722
     3  O   6.0   -0.31    1.15    1.80     4.53523    -0.24509     3.16293
     4  O   6.0   -0.23    2.02    1.83     2.75104    -3.02628    -0.28165
     5  O   6.0   -0.23    2.07    1.83     3.48545     1.47803    -0.97368
     6  H   1.0    0.18    1.30    1.50     2.15926     1.59029    -2.24450
     7  H   1.0    0.14    1.12    1.45     1.41158    -4.11700     0.35282
     8  O   6.0   -0.39    1.63    1.81    -0.09716     1.28555    -3.88500
     9  H   1.0    0.17    0.95    1.42     0.51580     2.04770    -5.47471
    10  O   6.0   -0.29    2.03    1.83    -4.76811     1.89418     2.68648
    11  H   1.0    0.17    1.03    1.43    -3.06776     1.24497     2.64230
    12  H   1.0    0.15    0.97    1.43    -5.05389     2.37799     4.41821
    13  O   6.0   -0.25    1.93    1.82     7.01791    -0.71227     7.67287
    14  H   1.0    0.15    0.97    1.43     8.70436    -0.12585     7.31701
    15  H   1.0    0.18    1.03    1.43     6.10982    -0.54781     6.10349
    16  O   6.0   -0.28    1.98    1.82    -1.73407    -3.10119    -3.89619
    17  H   1.0    0.18    1.14    1.45    -1.00430    -1.43352    -3.92659
    18  H   1.0    0.15    0.97    1.43    -0.60998    -4.13672    -4.88549
    19  N   5.0   -0.14    3.96    2.75    -4.56808     1.16631    -2.38170
    20  H   1.0    0.11    1.06    1.44    -4.78293     1.58634    -0.49441
    21  H   1.0    0.08    0.99    1.43    -5.75996     2.28628    -3.43505
    22  H   1.0    0.13    1.17    1.46    -2.72679     1.49844    -2.91442
    23  H   1.0    0.09    1.00    1.43    -5.00265    -0.70581    -2.68293

  Z AO/shell   Hii/eV     exponent
  1     Wed Apr 25 08:07:45 CEST 2018   EN: 2.200 GM2: 0.406  GM3: 0.0800  RAES: 1.40
     1s    -10.707211    1.230000
  7     Wed Apr 25 08:07:45 CEST 2018   EN: 3.040 GM2: 0.461  GM3:-0.0640  RAES: 1.90
     2s    -16.686243    2.339881
     2p    -12.523956    2.014332
  8     Wed Apr 25 08:07:45 CEST 2018   EN: 3.440 GM2: 0.452  GM3:-0.0517  RAES: 1.80
     2s    -20.229985    2.439742
     2p    -15.503117    2.137023
 16     Tue Apr 24 11:44:34 CEST 2018   EN: 2.580 GM2: 0.340  GM3:-0.0502  RAES: 3.10
     3s    -20.029654    1.981333
     3p    -11.377694    2.025643
     3d     -0.420282    1.702555
 no old-style atom pair restraining (fixing) potential

molecular fragmentation (1/2 indicates fragments):
11111112222222222222222
# atoms in fragment 1/2:     7    16
 fragment masses (1/2) :       98.07       89.09
CMA distance (Bohr)    :   3.581
constraining FC (au)   :  0.0500
           ------------------------------------------------- 
          |        Self-Consistent Charge Iterations        |
           ------------------------------------------------- 

 Ncao       : 59
 Nao        : 58
 Nshell     : 34
 Nel        : 72
 T(el)      :   300.0
 intcut     :    25.0
 scfconv/Eh :  0.100E-05
   qconv/e  :  0.100E-03
 intneglect :  0.100E-07
 broydamp   :      0.250
 iter      E             dE          RMSdq      gap      omega  full diag
   1    -45.4599086 -0.454599E+02  0.729E+00    7.93       0.0  T
   2    -45.5102325 -0.503239E-01  0.511E+00    7.02       1.0  T
   3    -45.5494878 -0.392553E-01  0.129E+00    4.66       1.0  T
   4    -45.5530964 -0.360859E-02  0.675E-01    4.84       1.0  T
   5    -45.5544185 -0.132212E-02  0.290E-01    4.88       1.0  T
   6    -45.5547714 -0.352907E-03  0.175E-01    4.92       1.0  T
   7    -45.5549471 -0.175686E-03  0.474E-02    4.93       1.0  T
   8    -45.5549570 -0.996383E-05  0.272E-02    4.92       1.0  T
   9    -45.5549608 -0.376892E-05  0.745E-03    4.93       2.8  T
  10    -45.5549610 -0.174620E-06  0.257E-03    4.93       8.1  T
  11    -45.5549610 -0.203602E-07  0.125E-03    4.93      16.7  T
  12    -45.5549610 -0.563441E-08  0.397E-04    4.93      52.5  T
  13    -45.5549610 -0.333308E-09  0.198E-04    4.93     105.6  T
speedup  0.98
cpu  time for SCC    0.01 s
wall time for SCC    0.01 s

   *** convergence criteria satisfied after 13 iterations ***

          eigenvalues
 #    :          24         25         26         27         28         29         30         31
 occ. :        2.000      2.000      2.000      2.000      2.000      2.000      2.000      2.000
 eps  :       -13.133    -12.917    -12.825    -12.702    -12.653    -12.573    -12.456    -12.411
 #    :          32         33         34         35         36         37         38         39
 occ. :        2.000      2.000      2.000      2.000      2.000      0.000      0.000      0.000
 eps  :       -12.371    -11.069    -10.884    -10.059     -9.785     -4.852     -1.987     -1.317
 #    :          40         41         42         43         44         45         46         47
 occ. :        0.000      0.000      0.000      0.000      0.000      0.000      0.000      0.000
 eps  :        -0.947      0.539      1.697      2.670      3.200      3.475      4.082      4.755


   #   Z            q   n(s)   n(p)   n(d)      C6AA      α(0)
   1  16 S      1.657  1.629  1.791  0.923    89.753    15.945
   2   8 O     -0.683  1.765  4.918  0.000    28.248     7.126
   3   8 O     -0.640  1.765  4.875  0.000    27.130     6.984
   4   8 O     -0.563  1.760  4.803  0.000    24.296     6.654
   5   8 O     -0.594  1.761  4.833  0.000    25.020     6.752
   6   1 H      0.385  0.615  0.000  0.000     0.508     1.117
   7   1 H      0.351  0.649  0.000  0.000     0.583     1.198
   8   8 O     -0.869  1.841  5.027  0.000    33.732     7.787
   9   1 H      0.206  0.794  0.000  0.000     1.091     1.641
  10   8 O     -0.608  1.727  4.881  0.000    25.381     6.800
  11   1 H      0.333  0.667  0.000  0.000     0.631     1.247
  12   1 H      0.292  0.708  0.000  0.000     0.744     1.355
  13   8 O     -0.595  1.741  4.854  0.000    25.068     6.757
  14   1 H      0.271  0.729  0.000  0.000     0.815     1.418
  15   1 H      0.308  0.692  0.000  0.000     0.697     1.311
  16   8 O     -0.669  1.754  4.915  0.000    26.903     7.001
  17   1 H      0.329  0.671  0.000  0.000     0.637     1.252
  18   1 H      0.260  0.740  0.000  0.000     0.854     1.452
  19   7 N     -0.298  1.257  4.041  0.000    27.671     7.813
  20   1 H      0.297  0.703  0.000  0.000     0.723     1.332
  21   1 H      0.231  0.769  0.000  0.000     0.961     1.536
  22   1 H      0.328  0.672  0.000  0.000     0.634     1.246
  23   1 H      0.272  0.728  0.000  0.000     0.802     1.403

 Mol. C6AA /au·bohr⁶  :       4498.478901
 Mol. C8AA /au·bohr⁸  :      98955.976794
 Mol. α(0) /au        :         97.127698

 
 Wiberg/Mayer (AO) data. WBOs > 0.1 written file <wbo>
 largest (>0.05) Wiberg bond orders for each atom
           total WBO             WBO to atom ...
     1  S   4.758    O    3 1.443    O    2 1.377    O    5 1.006    O    4 0.892
     2  O   1.752    S    1 1.377    O    3 0.135    O    5 0.101    O    4 0.090
     3  O   1.807    S    1 1.443    O    2 0.135    O    4 0.089    O    5 0.088
     4  O   1.992    S    1 0.892    H    7 0.857    O    2 0.090    O    3 0.089    O    5 0.057
     5  O   1.988    S    1 1.006    H    6 0.667    O    2 0.101    O    3 0.088    O    4 0.057    O    8 0.053
     6  H   0.851    O    5 0.667    O    8 0.169
     7  H   0.877    O    4 0.857
     8  O   1.573    H    9 0.946    H    6 0.169    H   22 0.163    H   17 0.114    N   19 0.067    O    5 0.053
     9  H   0.958    O    8 0.946
    10  O   1.848    H   12 0.899    H   11 0.850    H   20 0.053
    11  H   0.889    O   10 0.850
    12  H   0.914    O   10 0.899
    13  O   1.821    H   14 0.926    H   15 0.873
    14  H   0.927    O   13 0.926
    15  H   0.905    O   13 0.873
    16  O   1.770    H   18 0.928    H   17 0.773
    17  H   0.892    O   16 0.773    O    8 0.114
    18  H   0.932    O   16 0.928
    19  N   3.545    H   21 0.942    H   23 0.914    H   20 0.851    H   22 0.721    O    8 0.067
    20  H   0.912    N   19 0.851    O   10 0.053
    21  H   0.947    N   19 0.942
    22  H   0.892    N   19 0.721    O    8 0.163
    23  H   0.926    N   19 0.914
 MOs/occ written to file <molden.input>
 
molecular dipole:
                 x           y           z       tot (Debye)
 q only:       -3.190       0.469      -0.971
   full:       -2.903       0.472      -1.409       8.291
molecular quadrupole (traceless):
                xx          xy          yy          xz          yz          zz
 q only:        8.772      -5.685       3.885      -4.043       0.176     -12.657
  q+dip:        7.337      -5.572       4.916      -7.790       1.044     -12.254
   full:        7.244      -5.393       4.909      -7.927       0.959     -12.153

SCC energy    :     -45.5549610
rep           :       0.2574805
ES            :       0.2632107
AES           :      -0.0466882
AXC           :      -0.0047370
disp          :      -0.0145410
XB            :       0.0000000
fix           :       0.0000000
total E       :     -45.2973751
atomizationE  :       4.3804376     2748.77
(atE without considering molecular charge,
 total energy contains solvation terms)
H-L gap (eV)  :          4.9326
           ------------------------------------------------- 
          |                 ===============                 |
          |                   A N C O P T                   |
          |                 ===============                 |
          |          Approximate Normal Coordinate          |
          |           Rational Function Optimizer           |
           ------------------------------------------------- 
dumping coords to <xtbopt.coord> and <xtbopt.log>
 optlevel               2
 Maxcycle             460
 Maxmicro              25
 Econv         1.000000000000000E-007
 Gconv         2.000000000000000E-004
 Maxdispl       1.00000000000000     
 Hlow          5.000000000000000E-003
 S6             20.0000000000000     
 Nvar               63

generating ANC from model Hessian ...
 Shifting diagonal of input Hessian by   5.491773718463501E-003
 Lowest  eigenvalues of input Hessian
    0.005000    0.005338    0.005434   -0.000000   -0.000000   -0.000000
    0.000000    0.000000    0.000000    0.005564    0.005766    0.005854
    0.006185    0.006405    0.006850    0.006988    0.007694    0.008040
 Highest eigenvalues
    1.430986    1.432898    1.445601    1.954613    2.774757    3.598353
 
cpu  time for ANC gen    0.01 s
wall time for ANC gen    0.01 s
................................................................................
.............................. CYCLE    1 ......................................
................................................................................
   1    -45.5549610 -0.455550E+02  0.570E-05    4.93       0.0  T
   2    -45.5549610 -0.439826E-11  0.448E-05    4.93     465.2  T
   3    -45.5549610 -0.500222E-11  0.183E-05    4.93    1137.1  T
speedup  1.20
cpu  time for SCC    0.00 s
wall time for SCC    0.00 s
speedup  1.09
cpu  time for grad    0.01 s
wall time for grad    0.01 s
 E :    -45.29737510  G :  0.160866    pred/act E change:  0.000D+00  0.297D-07
Maxdispl :   0.0959   ||displ|| :   0.2319   Lambda : -0.221D-01
Largest |displ|/coords:  0.0959 (  23)  0.0708 (  21)  0.0655 (  20)
................................................................................
.............................. CYCLE    2 ......................................
................................................................................
   1    -45.5691251 -0.455691E+02  0.337E-01    5.77       0.0  T
   2    -45.5692825 -0.157352E-03  0.243E-01    5.86       1.0  T
   3    -45.5693513 -0.688606E-04  0.668E-02    6.04       1.0  T
   4    -45.5693631 -0.118184E-04  0.259E-02    6.04       1.0  T
   5    -45.5693639 -0.761327E-06  0.598E-03    6.03       3.5  T
   6    -45.5693640 -0.644541E-07  0.337E-03    6.03       6.2  T
speedup  1.09
cpu  time for SCC    0.00 s
wall time for SCC    0.00 s
speedup  1.03
cpu  time for grad    0.01 s
wall time for grad    0.01 s
 E :    -45.31425336  G :  0.092771    pred/act E change:  0.000D+00 -0.169D-01
Maxdispl :   0.0869   ||displ|| :   0.2424   Lambda : -0.954D-02
Largest |displ|/coords:  0.0869 (  23)  0.0846 (  20)  0.0651 (  11)
................................................................................
.............................. CYCLE    3 ......................................
................................................................................
   1    -45.5788408 -0.455788E+02  0.250E-01    6.78       0.0  T
   2    -45.5789827 -0.141971E-03  0.180E-01    6.89       1.0  T
   3    -45.5790415 -0.587801E-04  0.554E-02    7.09       1.0  T
   4    -45.5790497 -0.815752E-05  0.186E-02    7.08       1.1  T
   5    -45.5790502 -0.531610E-06  0.420E-03    7.07       5.0  T
   6    -45.5790502 -0.307433E-07  0.285E-03    7.07       7.3  T
speedup  1.09
cpu  time for SCC    0.01 s
wall time for SCC    0.00 s
speedup  1.01
cpu  time for grad    0.01 s
wall time for grad    0.01 s
 E :    -45.32205002  G :  0.061206    pred/act E change: -0.116D-01 -0.780D-02
Maxdispl :   0.1010   ||displ|| :   0.2383   Lambda : -0.523D-02
Largest |displ|/coords:  0.1010 (  23)  0.0707 (  17)  0.0700 (  20)
................................................................................
.............................. CYCLE    4 ......................................
................................................................................
   1    -45.5831389 -0.455831E+02  0.260E-01    7.58       0.0  T
   2    -45.5832553 -0.116353E-03  0.192E-01    7.60       1.0  T
   3    -45.5833009 -0.456028E-04  0.560E-02    7.62       1.0  T
   4    -45.5833110 -0.101359E-04  0.184E-02    7.62       1.1  T
   5    -45.5833116 -0.615717E-06  0.376E-03    7.62       5.5  T
   6    -45.5833117 -0.213551E-07  0.247E-03    7.62       8.4  T
speedup  0.87
cpu  time for SCC    0.00 s
wall time for SCC    0.00 s
speedup  1.01
cpu  time for grad    0.01 s
wall time for grad    0.01 s
 E :    -45.32624035  G :  0.041597    pred/act E change: -0.505D-02 -0.419D-02
Maxdispl :   0.2326   ||displ|| :   0.5145   Lambda : -0.820D-02
Largest |displ|/coords:  0.2326 (  11)  0.2169 (  13)  0.1612 (  17)
................................................................................
.............................. CYCLE    5 ......................................
................................................................................
   1    -45.5904650 -0.455905E+02  0.634E-01    8.34       0.0  T
   2    -45.5911342 -0.669236E-03  0.467E-01    8.35       1.0  T
   3    -45.5913925 -0.258209E-03  0.133E-01    8.39       1.0  T
   4    -45.5914545 -0.620964E-04  0.381E-02    8.39       1.0  T
   5    -45.5914580 -0.344560E-05  0.942E-03    8.39       2.2  T
   6    -45.5914581 -0.129265E-06  0.622E-03    8.39       3.4  T
   7    -45.5914582 -0.730027E-07  0.200E-03    8.39      10.4  T
   8    -45.5914582 -0.644921E-08  0.759E-04    8.39      27.5  T
speedup  0.98
cpu  time for SCC    0.01 s
wall time for SCC    0.01 s
speedup  1.06
cpu  time for grad    0.01 s
wall time for grad    0.01 s
 E :    -45.32859510  G :  0.034627    pred/act E change: -0.276D-02 -0.235D-02
Maxdispl :   0.1726   ||displ|| :   0.3606   Lambda : -0.428D-02
Largest |displ|/coords:  0.1726 (   9)  0.1407 (  23)  0.1383 (  13)
................................................................................
.............................. CYCLE    6 ......................................
................................................................................
   1    -45.5916107 -0.455916E+02  0.503E-01    8.24       0.0  T
   2    -45.5916609 -0.501611E-04  0.383E-01    8.25       1.0  T
   3    -45.5917025 -0.415958E-04  0.404E-02    8.26       1.0  T
   4    -45.5917094 -0.696685E-05  0.124E-02    8.26       1.7  T
   5    -45.5917097 -0.230616E-06  0.463E-03    8.26       4.5  T
   6    -45.5917097 -0.104749E-07  0.238E-03    8.26       8.8  T
speedup  1.04
cpu  time for SCC    0.00 s
wall time for SCC    0.00 s
speedup  1.01
cpu  time for grad    0.01 s
wall time for grad    0.01 s
 E :    -45.33090802  G :  0.025152    pred/act E change: -0.519D-02 -0.231D-02
Maxdispl :   0.1332   ||displ|| :   0.2754   Lambda : -0.154D-02
Largest |displ|/coords:  0.1332 (  10)  0.1028 (  12)  0.0934 (  23)
................................................................................
.............................. CYCLE    7 ......................................
................................................................................
   1    -45.5858808 -0.455859E+02  0.247E-01    8.02       0.0  T
   2    -45.5859137 -0.329562E-04  0.185E-01    8.02       1.0  T
   3    -45.5859243 -0.105971E-04  0.437E-02    8.02       1.0  T
   4    -45.5859294 -0.506396E-05  0.114E-02    8.02       1.8  T
   5    -45.5859296 -0.255757E-06  0.266E-03    8.02       7.8  T
   6    -45.5859296 -0.618490E-08  0.164E-03    8.02      12.7  T
speedup  0.87
cpu  time for SCC    0.00 s
wall time for SCC    0.00 s
speedup  0.92
cpu  time for grad    0.01 s
wall time for grad    0.01 s
 E :    -45.33175010  G :  0.026171    pred/act E change: -0.242D-02 -0.842D-03
Maxdispl :   0.1723   ||displ|| :   0.3645   Lambda : -0.204D-02
Largest |displ|/coords:  0.1723 (  13)  0.1343 (   5)  0.1277 (  23)
................................................................................
.............................. CYCLE    8 ......................................
................................................................................
   1    -45.5869159 -0.455869E+02  0.356E-01    7.75       0.0  T
   2    -45.5869783 -0.623692E-04  0.269E-01    7.76       1.0  T
   3    -45.5869983 -0.199372E-04  0.629E-02    7.79       1.0  T
   4    -45.5870089 -0.106170E-04  0.167E-02    7.79       1.2  T
   5    -45.5870093 -0.393908E-06  0.376E-03    7.79       5.5  T
   6    -45.5870093 -0.709962E-08  0.229E-03    7.79       9.1  T
speedup  1.09
cpu  time for SCC    0.00 s
wall time for SCC    0.00 s
speedup  1.02
cpu  time for grad    0.01 s
wall time for grad    0.01 s
 E :    -45.33248357  G :  0.025427    pred/act E change: -0.830D-03 -0.733D-03
Maxdispl :   0.1172   ||displ|| :   0.2880   Lambda : -0.151D-02
Largest |displ|/coords:  0.1172 (   1)  0.0955 (  23)  0.0832 (   7)
................................................................................
.............................. CYCLE    9 ......................................
................................................................................
   1    -45.5873017 -0.455873E+02  0.268E-01    7.84       0.0  T
   2    -45.5873572 -0.554972E-04  0.202E-01    7.84       1.0  T
   3    -45.5873835 -0.262853E-04  0.467E-02    7.87       1.0  T
   4    -45.5873910 -0.750559E-05  0.136E-02    7.87       1.5  T
   5    -45.5873916 -0.562674E-06  0.369E-03    7.87       5.7  T
   6    -45.5873916 -0.124391E-07  0.229E-03    7.87       9.1  T
speedup  1.06
cpu  time for SCC    0.00 s
wall time for SCC    0.00 s
speedup  1.01
cpu  time for grad    0.01 s
wall time for grad    0.01 s
 E :    -45.33321258  G :  0.027486    pred/act E change: -0.116D-02 -0.729D-03
Maxdispl :   0.1761   ||displ|| :   0.4539   Lambda : -0.282D-02
Largest |displ|/coords:  0.1761 (  14)  0.1514 (   1)  0.1450 (  23)
................................................................................
.............................. CYCLE   10 ......................................
................................................................................
   1    -45.5953845 -0.455954E+02  0.437E-01    8.06       0.0  T
   2    -45.5955601 -0.175574E-03  0.328E-01    8.08       1.0  T
   3    -45.5956609 -0.100833E-03  0.729E-02    8.12       1.0  T
   4    -45.5956826 -0.216822E-04  0.200E-02    8.12       1.0  T
   5    -45.5956836 -0.101330E-05  0.751E-03    8.12       2.8  T
   6    -45.5956837 -0.542079E-07  0.464E-03    8.12       4.5  T
   7    -45.5956837 -0.275841E-07  0.124E-03    8.12      16.8  T
speedup  0.93
cpu  time for SCC    0.00 s
wall time for SCC    0.01 s
speedup  0.95
cpu  time for grad    0.01 s
wall time for grad    0.01 s
 E :    -45.33262270  G :  0.051066    pred/act E change: -0.819D-03  0.590D-03
Maxdispl :   0.1411   ||displ|| :   0.3804   Lambda : -0.705D-02
Largest |displ|/coords:  0.1411 (  12)  0.1263 (  13)  0.1165 (  14)
................................................................................
.............................. CYCLE   11 ......................................
................................................................................
   1    -45.5809941 -0.455810E+02  0.544E-01    7.91       0.0  T
   2    -45.5811346 -0.140492E-03  0.409E-01    7.90       1.0  T
   3    -45.5812324 -0.978647E-04  0.691E-02    7.88       1.0  T
   4    -45.5812497 -0.172921E-04  0.177E-02    7.88       1.2  T
   5    -45.5812503 -0.559425E-06  0.665E-03    7.88       3.1  T
   6    -45.5812504 -0.685386E-07  0.335E-03    7.88       6.2  T
   7    -45.5812504 -0.188463E-07  0.956E-04    7.88      21.8  T
speedup  0.94
cpu  time for SCC    0.00 s
wall time for SCC    0.01 s
speedup  1.03
cpu  time for grad    0.01 s
wall time for grad    0.01 s
 E :    -45.33286995  G :  0.052684    pred/act E change: -0.170D-02 -0.247D-03
Maxdispl :   0.1297   ||displ|| :   0.3631   Lambda : -0.833D-02
Largest |displ|/coords:  0.1297 (  12)  0.1084 (   3)  0.1069 (  14)
................................................................................
.............................. CYCLE   12 ......................................
................................................................................
   1    -45.6014889 -0.456015E+02  0.531E-01    8.05       0.0  T
   2    -45.6016309 -0.142029E-03  0.400E-01    8.06       1.0  T
   3    -45.6017432 -0.112348E-03  0.717E-02    8.10       1.0  T
   4    -45.6017588 -0.155860E-04  0.215E-02    8.10       1.0  T
   5    -45.6017596 -0.779530E-06  0.750E-03    8.10       2.8  T
   6    -45.6017596 -0.462953E-07  0.427E-03    8.10       4.9  T
   7    -45.6017597 -0.288426E-07  0.956E-04    8.10      21.8  T
speedup  1.11
cpu  time for SCC    0.01 s
wall time for SCC    0.01 s
speedup  1.03
cpu  time for grad    0.01 s
wall time for grad    0.01 s
 E :    -45.33362668  G :  0.057018    pred/act E change: -0.403D-02 -0.757D-03
Maxdispl :   0.1337   ||displ|| :   0.2748   Lambda : -0.506D-02
Largest |displ|/coords:  0.1337 (  23)  0.0953 (   3)  0.0793 (  12)
................................................................................
.............................. CYCLE   13 ......................................
................................................................................
   1    -45.5885491 -0.455885E+02  0.375E-01    8.09       0.0  T
   2    -45.5886382 -0.891017E-04  0.280E-01    8.09       1.0  T
   3    -45.5886926 -0.543547E-04  0.562E-02    8.08       1.0  T
   4    -45.5887044 -0.117864E-04  0.144E-02    8.08       1.4  T
   5    -45.5887047 -0.300802E-06  0.569E-03    8.08       3.7  T
   6    -45.5887047 -0.490529E-07  0.312E-03    8.08       6.7  T
speedup  0.87
cpu  time for SCC    0.00 s
wall time for SCC    0.00 s
speedup  0.93
cpu  time for grad    0.01 s
wall time for grad    0.01 s
 E :    -45.33519059  G :  0.037368    pred/act E change: -0.471D-02 -0.156D-02
Maxdispl :   0.1078   ||displ|| :   0.2136   Lambda : -0.186D-02
Largest |displ|/coords:  0.1078 (   9)  0.0932 (  10)  0.0816 (   5)
................................................................................
.............................. CYCLE   14 ......................................
................................................................................
   1    -45.5916730 -0.455917E+02  0.192E-01    8.00       0.0  T
   2    -45.5917074 -0.344099E-04  0.142E-01    8.01       1.0  T
   3    -45.5917236 -0.162128E-04  0.375E-02    8.03       1.0  T
   4    -45.5917275 -0.389344E-05  0.120E-02    8.02       1.7  T
   5    -45.5917278 -0.234437E-06  0.324E-03    8.02       6.4  T
   6    -45.5917278 -0.105556E-07  0.178E-03    8.02      11.7  T
speedup  1.09
cpu  time for SCC    0.00 s
wall time for SCC    0.00 s
speedup  1.02
cpu  time for grad    0.01 s
wall time for grad    0.01 s
 E :    -45.33622615  G :  0.022634    pred/act E change: -0.272D-02 -0.104D-02
Maxdispl :   0.1193   ||displ|| :   0.3140   Lambda : -0.165D-02
Largest |displ|/coords:  0.1193 (   1)  0.0960 (   5)  0.0906 (  10)
................................................................................
.............................. CYCLE   15 ......................................
................................................................................
   1    -45.5990992 -0.455991E+02  0.198E-01    8.07       0.0  T
   2    -45.5991527 -0.534919E-04  0.149E-01    8.08       1.0  T
   3    -45.5991836 -0.308853E-04  0.477E-02    8.10       1.0  T
   4    -45.5991890 -0.541964E-05  0.186E-02    8.10       1.1  T
   5    -45.5991894 -0.431276E-06  0.450E-03    8.10       4.6  T
   6    -45.5991895 -0.272825E-07  0.246E-03    8.10       8.5  T
speedup  1.09
cpu  time for SCC    0.01 s
wall time for SCC    0.00 s
speedup  1.02
cpu  time for grad    0.01 s
wall time for grad    0.01 s
 E :    -45.33731940  G :  0.026448    pred/act E change: -0.971D-03 -0.109D-02
Maxdispl :   0.2062   ||displ|| :   0.4249   Lambda : -0.215D-02
Largest |displ|/coords:  0.2062 (   5)  0.1525 (   7)  0.1375 (  10)
................................................................................
.............................. CYCLE   16 ......................................
................................................................................
   1    -45.6028679 -0.456029E+02  0.331E-01    8.10       0.0  T
   2    -45.6029562 -0.882943E-04  0.245E-01    8.11       1.0  T
   3    -45.6030025 -0.462557E-04  0.641E-02    8.13       1.0  T
   4    -45.6030132 -0.107557E-04  0.228E-02    8.13       1.0  T
   5    -45.6030137 -0.516158E-06  0.593E-03    8.13       3.5  T
   6    -45.6030138 -0.616248E-07  0.337E-03    8.13       6.2  T
speedup  0.87
cpu  time for SCC    0.00 s
wall time for SCC    0.00 s
speedup  1.01
cpu  time for grad    0.01 s
wall time for grad    0.01 s
 E :    -45.33892585  G :  0.025516    pred/act E change: -0.907D-03 -0.161D-02
Maxdispl :   0.1414   ||displ|| :   0.3693   Lambda : -0.257D-02
Largest |displ|/coords:  0.1414 (  10)  0.1351 (   4)  0.0932 (   6)
................................................................................
.............................. CYCLE   17 ......................................
................................................................................
   1    -45.6083587 -0.456084E+02  0.364E-01    8.12       0.0  T
   2    -45.6084286 -0.698879E-04  0.264E-01    8.11       1.0  T
   3    -45.6084671 -0.384945E-04  0.608E-02    8.10       1.0  T
   4    -45.6084748 -0.771073E-05  0.171E-02    8.11       1.2  T
   5    -45.6084754 -0.522880E-06  0.455E-03    8.11       4.6  T
   6    -45.6084754 -0.318450E-07  0.252E-03    8.11       8.3  T
speedup  1.09
cpu  time for SCC    0.00 s
wall time for SCC    0.00 s
speedup  1.01
cpu  time for grad    0.01 s
wall time for grad    0.01 s
 E :    -45.33915486  G :  0.025354    pred/act E change: -0.127D-02 -0.229D-03
Maxdispl :   0.1180   ||displ|| :   0.2288   Lambda : -0.196D-02
Largest |displ|/coords:  0.1180 (   5)  0.0892 (   7)  0.0763 (   6)
................................................................................
.............................. CYCLE   18 ......................................
................................................................................
   1    -45.5997632 -0.455998E+02  0.274E-01    8.05       0.0  T
   2    -45.5997838 -0.206388E-04  0.207E-01    8.06       1.0  T
   3    -45.5997981 -0.142335E-04  0.268E-02    8.08       1.0  T
   4    -45.5998012 -0.315751E-05  0.993E-03    8.08       2.1  T
   5    -45.5998013 -0.869217E-07  0.280E-03    8.08       7.4  T
   6    -45.5998013 -0.578432E-08  0.147E-03    8.08      14.2  T
speedup  1.09
cpu  time for SCC    0.00 s
wall time for SCC    0.00 s
speedup  1.02
cpu  time for grad    0.01 s
wall time for grad    0.01 s
 E :    -45.33995144  G :  0.019840    pred/act E change: -0.146D-02 -0.797D-03
Maxdispl :   0.0814   ||displ|| :   0.1863   Lambda : -0.687D-03
Largest |displ|/coords:  0.0814 (  10)  0.0648 (  23)  0.0548 (   5)
................................................................................
.............................. CYCLE   19 ......................................
................................................................................
   1    -45.6066115 -0.456066E+02  0.155E-01    8.15       0.0  T
   2    -45.6066239 -0.124199E-04  0.115E-01    8.15       1.0  T
   3    -45.6066314 -0.744978E-05  0.233E-02    8.15       1.0  T
   4    -45.6066329 -0.154972E-05  0.683E-03    8.15       3.1  T
   5    -45.6066330 -0.825606E-07  0.251E-03    8.15       8.3  T
   6    -45.6066330 -0.542023E-08  0.142E-03    8.15      14.7  T
speedup  1.09
cpu  time for SCC    0.00 s
wall time for SCC    0.00 s
speedup  1.01
cpu  time for grad    0.01 s
wall time for grad    0.01 s
 E :    -45.34012917  G :  0.013204    pred/act E change: -0.103D-02 -0.178D-03
Maxdispl :   0.1086   ||displ|| :   0.1678   Lambda : -0.449D-03
Largest |displ|/coords:  0.1086 (   4)  0.0671 (   1)  0.0548 (   5)
................................................................................
.............................. CYCLE   20 ......................................
................................................................................
   1    -45.6057496 -0.456057E+02  0.145E-01    8.15       0.0  T
   2    -45.6057562 -0.661389E-05  0.110E-01    8.15       1.0  T
   3    -45.6057610 -0.481004E-05  0.159E-02    8.13       1.3  T
   4    -45.6057620 -0.931201E-06  0.545E-03    8.14       3.8  T
   5    -45.6057620 -0.460707E-07  0.159E-03    8.14      13.1  T
   6    -45.6057620 -0.160905E-08  0.930E-04    8.14      22.4  T
speedup  1.06
cpu  time for SCC    0.00 s
wall time for SCC    0.00 s
speedup  0.99
cpu  time for grad    0.01 s
wall time for grad    0.01 s
 E :    -45.34037245  G :  0.014150    pred/act E change: -0.356D-03 -0.243D-03
Maxdispl :   0.1335   ||displ|| :   0.2860   Lambda : -0.638D-03
Largest |displ|/coords:  0.1335 (   2)  0.1228 (   5)  0.1144 (   7)
................................................................................
.............................. CYCLE   21 ......................................
................................................................................
   1    -45.6034496 -0.456034E+02  0.226E-01    8.12       0.0  T
   2    -45.6034624 -0.127920E-04  0.171E-01    8.13       1.0  T
   3    -45.6034719 -0.949548E-05  0.227E-02    8.14       1.0  T
   4    -45.6034736 -0.174761E-05  0.715E-03    8.14       2.9  T
   5    -45.6034737 -0.563806E-07  0.216E-03    8.14       9.7  T
   6    -45.6034737 -0.525652E-08  0.113E-03    8.14      18.4  T
speedup  1.06
cpu  time for SCC    0.00 s
wall time for SCC    0.00 s
speedup  1.01
cpu  time for grad    0.01 s
wall time for grad    0.01 s
 E :    -45.34063600  G :  0.015462    pred/act E change: -0.231D-03 -0.264D-03
Maxdispl :   0.1597   ||displ|| :   0.3130   Lambda : -0.703D-03
Largest |displ|/coords:  0.1597 (   4)  0.1471 (   5)  0.1262 (   2)
................................................................................
.............................. CYCLE   22 ......................................
................................................................................
   1    -45.6038235 -0.456038E+02  0.213E-01    8.16       0.0  T
   2    -45.6038369 -0.134494E-04  0.160E-01    8.15       1.0  T
   3    -45.6038447 -0.775936E-05  0.228E-02    8.13       1.0  T
   4    -45.6038468 -0.214121E-05  0.754E-03    8.14       2.8  T
   5    -45.6038470 -0.120229E-06  0.251E-03    8.14       8.3  T
   6    -45.6038470 -0.310840E-08  0.140E-03    8.14      14.9  T
speedup  0.83
cpu  time for SCC    0.00 s
wall time for SCC    0.00 s
speedup  0.99
cpu  time for grad    0.01 s
wall time for grad    0.01 s
 E :    -45.34077432  G :  0.022879    pred/act E change: -0.345D-03 -0.138D-03
Maxdispl :   0.0930   ||displ|| :   0.2024   Lambda : -0.923D-03
Largest |displ|/coords:  0.0930 (   2)  0.0676 (   4)  0.0658 (  18)
................................................................................
.............................. CYCLE   23 ......................................
................................................................................
   1    -45.6053777 -0.456054E+02  0.143E-01    8.17       0.0  T
   2    -45.6053866 -0.883343E-05  0.106E-01    8.17       1.0  T
   3    -45.6053919 -0.531499E-05  0.213E-02    8.17       1.0  T
   4    -45.6053930 -0.107595E-05  0.835E-03    8.17       2.5  T
   5    -45.6053931 -0.759675E-07  0.205E-03    8.17      10.2  T
   6    -45.6053931 -0.517829E-08  0.122E-03    8.17      17.0  T
speedup  1.09
cpu  time for SCC    0.00 s
wall time for SCC    0.00 s
speedup  1.01
cpu  time for grad    0.01 s
wall time for grad    0.01 s
 E :    -45.34126670  G :  0.009479    pred/act E change: -0.386D-03 -0.492D-03
Maxdispl :   0.1429   ||displ|| :   0.2755   Lambda : -0.568D-03
Largest |displ|/coords:  0.1429 (   2)  0.0973 (   7)  0.0968 (   4)
................................................................................
.............................. CYCLE   24 ......................................
................................................................................
   1    -45.6081643 -0.456082E+02  0.179E-01    8.21       0.0  T
   2    -45.6081698 -0.549833E-05  0.136E-01    8.21       1.0  T
   3    -45.6081750 -0.521705E-05  0.133E-02    8.23       1.6  T
   4    -45.6081756 -0.573010E-06  0.445E-03    8.22       4.7  T
   5    -45.6081756 -0.284725E-07  0.143E-03    8.22      14.5  T
   6    -45.6081756 -0.347157E-09  0.716E-04    8.22      29.1  T
speedup  0.87
cpu  time for SCC    0.00 s
wall time for SCC    0.00 s
speedup  1.01
cpu  time for grad    0.01 s
wall time for grad    0.01 s
 E :    -45.34159636  G :  0.011994    pred/act E change: -0.481D-03 -0.330D-03
Maxdispl :   0.2417   ||displ|| :   0.4506   Lambda : -0.584D-03
Largest |displ|/coords:  0.2417 (   2)  0.1757 (   5)  0.1616 (   4)
................................................................................
.............................. CYCLE   25 ......................................
................................................................................
   1    -45.6059066 -0.456059E+02  0.267E-01    8.21       0.0  T
   2    -45.6059157 -0.908648E-05  0.201E-01    8.22       1.0  T
   3    -45.6059232 -0.744755E-05  0.172E-02    8.22       1.2  T
   4    -45.6059244 -0.119747E-05  0.675E-03    8.22       3.1  T
   5    -45.6059244 -0.503673E-07  0.204E-03    8.22      10.2  T
   6    -45.6059244 -0.176638E-08  0.105E-03    8.22      19.8  T
speedup  1.09
cpu  time for SCC    0.00 s
wall time for SCC    0.00 s
speedup  1.01
cpu  time for grad    0.01 s
wall time for grad    0.01 s
 E :    -45.34202245  G :  0.016582    pred/act E change: -0.305D-03 -0.426D-03
Maxdispl :   0.2616   ||displ|| :   0.5613   Lambda : -0.100D-02
Largest |displ|/coords:  0.2616 (   2)  0.2362 (   4)  0.1860 (   5)

generating ANC from model Hessian ...
 Shifting diagonal of input Hessian by   5.155055049753495E-003
 Lowest  eigenvalues of input Hessian
    0.005000    0.005149   -0.000000   -0.000000   -0.000000    0.000000
    0.000000    0.000000    0.005298    0.005411    0.005823    0.006017
    0.006887    0.007236    0.007500    0.008375    0.008656    0.010143
 Highest eigenvalues
    1.412055    1.427814    1.451284    2.365816    3.493434    3.702620
 
cpu  time for ANC gen    0.01 s
wall time for ANC gen    0.01 s
................................................................................
.............................. CYCLE   26 ......................................
................................................................................
   1    -45.6057242 -0.456057E+02  0.337E-01    8.23       0.0  T
   2    -45.6057418 -0.175796E-04  0.254E-01    8.22       1.0  T
   3    -45.6057526 -0.108357E-04  0.241E-02    8.19       1.0  T
   4    -45.6057554 -0.277158E-05  0.105E-02    8.20       2.0  T
   5    -45.6057556 -0.179406E-06  0.260E-03    8.21       8.0  T
   6    -45.6057556 -0.272359E-08  0.145E-03    8.21      14.4  T
   7    -45.6057556 -0.327478E-08  0.438E-04    8.21      47.6  T
   8    -45.6057556 -0.331760E-09  0.124E-04    8.21     168.5  T
speedup  1.00
cpu  time for SCC    0.01 s
wall time for SCC    0.01 s
speedup  1.02
cpu  time for grad    0.01 s
wall time for grad    0.01 s
 E :    -45.34256261  G :  0.022504    pred/act E change:  0.000D+00 -0.540D-03
Maxdispl :   0.1010   ||displ|| :   0.2155   Lambda : -0.102D-02
Largest |displ|/coords:  0.1010 (   5)  0.0782 (   2)  0.0638 (   7)
................................................................................
.............................. CYCLE   27 ......................................
................................................................................
   1    -45.6085380 -0.456085E+02  0.201E-01    8.21       0.0  T
   2    -45.6085477 -0.967929E-05  0.152E-01    8.21       1.0  T
   3    -45.6085553 -0.760348E-05  0.191E-02    8.22       1.1  T
   4    -45.6085567 -0.137292E-05  0.714E-03    8.21       2.9  T
   5    -45.6085567 -0.642906E-07  0.220E-03    8.21       9.5  T
   6    -45.6085567 -0.327301E-08  0.123E-03    8.21      17.0  T
speedup  0.85
cpu  time for SCC    0.00 s
wall time for SCC    0.00 s
speedup  1.01
cpu  time for grad    0.01 s
wall time for grad    0.01 s
 E :    -45.34321343  G :  0.009345    pred/act E change:  0.000D+00 -0.651D-03
Maxdispl :   0.2005   ||displ|| :   0.3528   Lambda : -0.967D-03
Largest |displ|/coords:  0.2005 (   5)  0.1135 (   6)  0.1114 (   7)
................................................................................
.............................. CYCLE   28 ......................................
................................................................................
   1    -45.6098822 -0.456099E+02  0.393E-01    8.22       0.0  T
   2    -45.6099092 -0.269924E-04  0.298E-01    8.22       1.0  T
   3    -45.6099367 -0.274832E-04  0.302E-02    8.23       1.0  T
   4    -45.6099392 -0.254610E-05  0.115E-02    8.23       1.8  T
   5    -45.6099393 -0.102712E-06  0.356E-03    8.23       5.9  T
   6    -45.6099393 -0.862086E-08  0.192E-03    8.23      10.9  T
   7    -45.6099393 -0.498089E-08  0.453E-04    8.23      46.0  T
speedup  1.13
cpu  time for SCC    0.01 s
wall time for SCC    0.01 s
speedup  1.03
cpu  time for grad    0.01 s
wall time for grad    0.01 s
 E :    -45.34307625  G :  0.019869    pred/act E change: -0.536D-03  0.137D-03
Maxdispl :   0.1566   ||displ|| :   0.2159   Lambda : -0.127D-02
Largest |displ|/coords:  0.1566 (   2)  0.0841 (   6)  0.0841 (   1)
................................................................................
.............................. CYCLE   29 ......................................
................................................................................
   1    -45.6116809 -0.456117E+02  0.307E-01    8.27       0.0  T
   2    -45.6116959 -0.150041E-04  0.235E-01    8.26       1.0  T
   3    -45.6117134 -0.174875E-04  0.152E-02    8.25       1.4  T
   4    -45.6117143 -0.899357E-06  0.609E-03    8.26       3.4  T
   5    -45.6117143 -0.421817E-07  0.213E-03    8.26       9.8  T
   6    -45.6117143 -0.176428E-09  0.106E-03    8.26      19.7  T
speedup  0.85
cpu  time for SCC    0.00 s
wall time for SCC    0.00 s
speedup  1.00
cpu  time for grad    0.01 s
wall time for grad    0.01 s
 E :    -45.34374946  G :  0.013177    pred/act E change: -0.544D-03 -0.673D-03
Maxdispl :   0.0686   ||displ|| :   0.1656   Lambda : -0.435D-03
Largest |displ|/coords:  0.0686 (   5)  0.0625 (   3)  0.0588 (   2)
................................................................................
.............................. CYCLE   30 ......................................
................................................................................
   1    -45.6104427 -0.456104E+02  0.147E-01    8.26       0.0  T
   2    -45.6104477 -0.499006E-05  0.112E-01    8.26       1.0  T
   3    -45.6104516 -0.397801E-05  0.131E-02    8.26       1.6  T
   4    -45.6104523 -0.657322E-06  0.503E-03    8.26       4.1  T
   5    -45.6104523 -0.340422E-07  0.120E-03    8.26      17.4  T
   6    -45.6104523 -0.935252E-09  0.708E-04    8.26      29.4  T
speedup  1.09
cpu  time for SCC    0.00 s
wall time for SCC    0.00 s
speedup  1.08
cpu  time for grad    0.01 s
wall time for grad    0.01 s
 E :    -45.34401048  G :  0.007144    pred/act E change: -0.664D-03 -0.261D-03
Maxdispl :   0.1735   ||displ|| :   0.3642   Lambda : -0.553D-03
Largest |displ|/coords:  0.1735 (   5)  0.1486 (   4)  0.1136 (   2)
................................................................................
.............................. CYCLE   31 ......................................
................................................................................
   1    -45.6076708 -0.456077E+02  0.259E-01    8.28       0.0  T
   2    -45.6076852 -0.143559E-04  0.194E-01    8.28       1.0  T
   3    -45.6076929 -0.776449E-05  0.257E-02    8.27       1.0  T
   4    -45.6076955 -0.251695E-05  0.101E-02    8.27       2.1  T
   5    -45.6076956 -0.980557E-07  0.224E-03    8.27       9.3  T
   6    -45.6076956 -0.473677E-08  0.134E-03    8.27      15.6  T
speedup  1.04
cpu  time for SCC    0.01 s
wall time for SCC    0.00 s
speedup  0.99
cpu  time for grad    0.01 s
wall time for grad    0.01 s
 E :    -45.34443040  G :  0.015562    pred/act E change: -0.224D-03 -0.420D-03
Maxdispl :   0.2349   ||displ|| :   0.4870   Lambda : -0.798D-03
Largest |displ|/coords:  0.2349 (   4)  0.1971 (   5)  0.1597 (   3)
................................................................................
.............................. CYCLE   32 ......................................
................................................................................
   1    -45.6074256 -0.456074E+02  0.306E-01    8.34       0.0  T
   2    -45.6074486 -0.229825E-04  0.229E-01    8.32       1.0  T
   3    -45.6074598 -0.111980E-04  0.341E-02    8.29       1.0  T
   4    -45.6074638 -0.395802E-05  0.125E-02    8.30       1.7  T
   5    -45.6074639 -0.156973E-06  0.268E-03    8.30       7.8  T
   6    -45.6074639 -0.650275E-08  0.159E-03    8.30      13.1  T
speedup  1.04
cpu  time for SCC    0.00 s
wall time for SCC    0.00 s
speedup  0.98
cpu  time for grad    0.01 s
wall time for grad    0.01 s
 E :    -45.34485935  G :  0.027188    pred/act E change: -0.313D-03 -0.429D-03
Maxdispl :   0.1323   ||displ|| :   0.2922   Lambda : -0.768D-03
Largest |displ|/coords:  0.1323 (   4)  0.0999 (   5)  0.0982 (   1)
................................................................................
.............................. CYCLE   33 ......................................
................................................................................
   1    -45.6102030 -0.456102E+02  0.147E-01    8.32       0.0  T
   2    -45.6102093 -0.629860E-05  0.110E-01    8.33       1.0  T
   3    -45.6102132 -0.395318E-05  0.185E-02    8.34       1.1  T
   4    -45.6102141 -0.904352E-06  0.679E-03    8.34       3.1  T
   5    -45.6102142 -0.500951E-07  0.144E-03    8.33      14.4  T
   6    -45.6102142 -0.180550E-08  0.905E-04    8.33      23.1  T
speedup  0.87
cpu  time for SCC    0.00 s
wall time for SCC    0.00 s
speedup  0.92
cpu  time for grad    0.01 s
wall time for grad    0.01 s
 E :    -45.34542582  G :  0.017601    pred/act E change: -0.493D-03 -0.566D-03
Maxdispl :   0.2419   ||displ|| :   0.5607   Lambda : -0.151D-02
Largest |displ|/coords:  0.2419 (   4)  0.2186 (   7)  0.2152 (   5)
................................................................................
.............................. CYCLE   34 ......................................
................................................................................
   1    -45.6059340 -0.456059E+02  0.408E-01    8.29       0.0  T
   2    -45.6059936 -0.595564E-04  0.308E-01    8.30       1.0  T
   3    -45.6060381 -0.445858E-04  0.488E-02    8.31       1.0  T
   4    -45.6060463 -0.817900E-05  0.167E-02    8.30       1.2  T
   5    -45.6060467 -0.411488E-06  0.515E-03    8.30       4.0  T
   6    -45.6060467 -0.182981E-07  0.306E-03    8.30       6.8  T
   7    -45.6060468 -0.150360E-07  0.718E-04    8.30      29.0  T
   8    -45.6060468 -0.103198E-08  0.263E-04    8.30      79.4  T
speedup  0.97
cpu  time for SCC    0.01 s
wall time for SCC    0.01 s
speedup  1.03
cpu  time for grad    0.01 s
wall time for grad    0.01 s
 E :    -45.34511664  G :  0.045219    pred/act E change: -0.417D-03  0.309D-03
Maxdispl :   0.1127   ||displ|| :   0.2420   Lambda : -0.297D-02
Largest |displ|/coords:  0.1127 (   4)  0.0881 (  10)  0.0833 (   3)
................................................................................
.............................. CYCLE   35 ......................................
................................................................................
   1    -45.6160712 -0.456161E+02  0.221E-01    8.36       0.0  T
   2    -45.6161055 -0.342920E-04  0.163E-01    8.34       1.0  T
   3    -45.6161269 -0.214524E-04  0.358E-02    8.31       1.0  T
   4    -45.6161308 -0.389584E-05  0.897E-03    8.33       2.3  T
   5    -45.6161310 -0.113835E-06  0.373E-03    8.33       5.6  T
   6    -45.6161310 -0.767451E-08  0.189E-03    8.33      11.1  T
speedup  1.09
cpu  time for SCC    0.00 s
wall time for SCC    0.00 s
speedup  0.98
cpu  time for grad    0.01 s
wall time for grad    0.01 s
 E :    -45.34652730  G :  0.015653    pred/act E change: -0.995D-03 -0.141D-02
Maxdispl :   0.2589   ||displ|| :   0.6280   Lambda : -0.167D-02
Largest |displ|/coords:  0.2589 (   4)  0.2508 (   5)  0.2058 (   2)
................................................................................
.............................. CYCLE   36 ......................................
................................................................................
   1    -45.5981389 -0.455981E+02  0.433E-01    8.29       0.0  T
   2    -45.5982410 -0.102066E-03  0.321E-01    8.31       1.0  T
   3    -45.5982859 -0.449132E-04  0.715E-02    8.34       1.0  T
   4    -45.5983000 -0.141126E-04  0.213E-02    8.33       1.0  T
   5    -45.5983009 -0.883601E-06  0.578E-03    8.32       3.6  T
   6    -45.5983009 -0.300286E-07  0.345E-03    8.32       6.0  T
   7    -45.5983009 -0.151545E-07  0.118E-03    8.32      17.7  T
   8    -45.5983009 -0.234056E-08  0.299E-04    8.32      69.7  T
speedup  0.97
cpu  time for SCC    0.01 s
wall time for SCC    0.01 s
speedup  1.03
cpu  time for grad    0.01 s
wall time for grad    0.01 s
 E :    -45.34506979  G :  0.062608    pred/act E change: -0.157D-02  0.146D-02
Maxdispl :   0.1686   ||displ|| :   0.4039   Lambda : -0.978D-02
Largest |displ|/coords:  0.1686 (   2)  0.1534 (   5)  0.1275 (  21)
................................................................................
.............................. CYCLE   37 ......................................
................................................................................
   1    -45.6268845 -0.456269E+02  0.504E-01    8.43       0.0  T
   2    -45.6271401 -0.255584E-03  0.369E-01    8.39       1.0  T
   3    -45.6272730 -0.132942E-03  0.108E-01    8.33       1.0  T
   4    -45.6272963 -0.232506E-04  0.327E-02    8.35       1.0  T
   5    -45.6272988 -0.254820E-05  0.997E-03    8.37       2.1  T
   6    -45.6272989 -0.697989E-07  0.520E-03    8.37       4.0  T
   7    -45.6272989 -0.315602E-07  0.165E-03    8.37      12.7  T
speedup  1.11
cpu  time for SCC    0.01 s
wall time for SCC    0.01 s
speedup  1.03
cpu  time for grad    0.01 s
wall time for grad    0.01 s
 E :    -45.34425288  G :  0.078437    pred/act E change: -0.117D-02  0.817D-03
Maxdispl :   0.1587   ||displ|| :   0.3720   Lambda : -0.113D-01
Largest |displ|/coords:  0.1587 (   5)  0.1366 (   4)  0.1118 (  12)
................................................................................
.............................. CYCLE   38 ......................................
................................................................................
   1    -45.6041031 -0.456041E+02  0.442E-01    8.26       0.0  T
   2    -45.6043337 -0.230604E-03  0.323E-01    8.27       1.0  T
   3    -45.6044665 -0.132850E-03  0.958E-02    8.29       1.0  T
   4    -45.6044879 -0.214190E-04  0.297E-02    8.28       1.0  T
   5    -45.6044899 -0.192762E-05  0.924E-03    8.27       2.3  T
   6    -45.6044900 -0.975502E-07  0.526E-03    8.27       4.0  T
   7    -45.6044900 -0.299221E-07  0.132E-03    8.28      15.8  T
speedup  0.94
cpu  time for SCC    0.00 s
wall time for SCC    0.01 s
speedup  0.94
cpu  time for grad    0.01 s
wall time for grad    0.01 s
 E :    -45.34491510  G :  0.062152    pred/act E change: -0.569D-02 -0.662D-03
Maxdispl :   0.1875   ||displ|| :   0.4365   Lambda : -0.101D-01
Largest |displ|/coords:  0.1875 (   5)  0.1576 (  11)  0.1460 (   7)
................................................................................
.............................. CYCLE   39 ......................................
................................................................................
   1    -45.6123150 -0.456123E+02  0.477E-01    8.30       0.0  T
   2    -45.6125179 -0.202922E-03  0.354E-01    8.32       1.0  T
   3    -45.6126672 -0.149352E-03  0.836E-02    8.36       1.0  T
   4    -45.6126885 -0.212234E-04  0.175E-02    8.34       1.2  T
   5    -45.6126888 -0.302615E-06  0.966E-03    8.35       2.2  T
   6    -45.6126888 -0.548839E-07  0.248E-03    8.35       8.4  T
   7    -45.6126888 -0.117155E-07  0.729E-04    8.35      28.6  T
speedup  1.11
cpu  time for SCC    0.01 s
wall time for SCC    0.01 s
speedup  1.02
cpu  time for grad    0.01 s
wall time for grad    0.01 s
 E :    -45.34398608  G :  0.089503    pred/act E change: -0.643D-02  0.929D-03
Maxdispl :   0.1918   ||displ|| :   0.4226   Lambda : -0.136D-01
Largest |displ|/coords:  0.1918 (  11)  0.1361 (   8)  0.1335 (   5)
................................................................................
.............................. CYCLE   40 ......................................
................................................................................
   1    -45.6182216 -0.456182E+02  0.476E-01    8.37       0.0  T
   2    -45.6184607 -0.239142E-03  0.349E-01    8.34       1.0  T
   3    -45.6186092 -0.148480E-03  0.987E-02    8.28       1.0  T
   4    -45.6186318 -0.226204E-04  0.313E-02    8.30       1.0  T
   5    -45.6186338 -0.200318E-05  0.971E-03    8.31       2.1  T
   6    -45.6186339 -0.886849E-07  0.566E-03    8.31       3.7  T
   7    -45.6186340 -0.365853E-07  0.142E-03    8.31      14.7  T
speedup  1.13
cpu  time for SCC    0.01 s
wall time for SCC    0.01 s
speedup  1.03
cpu  time for grad    0.01 s
wall time for grad    0.01 s
 E :    -45.34458649  G :  0.068769    pred/act E change: -0.601D-02 -0.600D-03
Maxdispl :   0.1224   ||displ|| :   0.3548   Lambda : -0.102D-01
Largest |displ|/coords:  0.1224 (  11)  0.0977 (   3)  0.0924 (  17)
................................................................................
.............................. CYCLE   41 ......................................
................................................................................
   1    -45.6071256 -0.456071E+02  0.403E-01    8.27       0.0  T
   2    -45.6073035 -0.177884E-03  0.294E-01    8.30       1.0  T
   3    -45.6073991 -0.955446E-04  0.923E-02    8.34       1.0  T
   4    -45.6074149 -0.158506E-04  0.283E-02    8.33       1.0  T
   5    -45.6074168 -0.186293E-05  0.823E-03    8.32       2.5  T
   6    -45.6074168 -0.540600E-07  0.456E-03    8.32       4.6  T
   7    -45.6074168 -0.237326E-07  0.146E-03    8.32      14.3  T
speedup  0.94
cpu  time for SCC    0.00 s
wall time for SCC    0.01 s
speedup  0.95
cpu  time for grad    0.01 s
wall time for grad    0.01 s
 E :    -45.34634116  G :  0.052124    pred/act E change: -0.799D-02 -0.175D-02
Maxdispl :   0.0837   ||displ|| :   0.2180   Lambda : -0.420D-02
Largest |displ|/coords:  0.0837 (  11)  0.0765 (   8)  0.0610 (  15)
................................................................................
.............................. CYCLE   42 ......................................
................................................................................
   1    -45.6171957 -0.456172E+02  0.239E-01    8.37       0.0  T
   2    -45.6172611 -0.653166E-04  0.174E-01    8.35       1.0  T
   3    -45.6172954 -0.343645E-04  0.572E-02    8.32       1.0  T
   4    -45.6173012 -0.575360E-05  0.169E-02    8.33       1.2  T
   5    -45.6173018 -0.659029E-06  0.518E-03    8.34       4.0  T
   6    -45.6173019 -0.202586E-07  0.275E-03    8.34       7.6  T
speedup  0.87
cpu  time for SCC    0.00 s
wall time for SCC    0.00 s
speedup  1.01
cpu  time for grad    0.01 s
wall time for grad    0.01 s
 E :    -45.34745454  G :  0.020697    pred/act E change: -0.575D-02 -0.111D-02
Maxdispl :   0.0695   ||displ|| :   0.1297   Lambda : -0.853D-03
Largest |displ|/coords:  0.0695 (   1)  0.0423 (  19)  0.0419 (   7)
................................................................................
.............................. CYCLE   43 ......................................
................................................................................
   1    -45.6139497 -0.456139E+02  0.114E-01    8.31       0.0  T
   2    -45.6139581 -0.838464E-05  0.846E-02    8.32       1.0  T
   3    -45.6139626 -0.457043E-05  0.201E-02    8.34       1.0  T
   4    -45.6139637 -0.104098E-05  0.598E-03    8.33       3.5  T
   5    -45.6139638 -0.844736E-07  0.176E-03    8.33      11.9  T
speedup  0.98
cpu  time for SCC    0.00 s
wall time for SCC    0.00 s
speedup  1.06
cpu  time for grad    0.01 s
wall time for grad    0.01 s
 E :    -45.34795351  G :  0.007732    pred/act E change: -0.220D-02 -0.499D-03
Maxdispl :   0.0807   ||displ|| :   0.1643   Lambda : -0.321D-03
Largest |displ|/coords:  0.0807 (   7)  0.0611 (   6)  0.0545 (   1)
................................................................................
.............................. CYCLE   44 ......................................
................................................................................
   1    -45.6130353 -0.456130E+02  0.868E-02    8.35       0.0  T
   2    -45.6130372 -0.191876E-05  0.647E-02    8.34       1.0  T
   3    -45.6130383 -0.109689E-05  0.102E-02    8.34       2.0  T
   4    -45.6130386 -0.294306E-06  0.325E-03    8.34       6.4  T
   5    -45.6130386 -0.145766E-07  0.947E-04    8.34      22.0  T
   6    -45.6130386 -0.895739E-09  0.533E-04    8.34      39.1  T
speedup  1.09
cpu  time for SCC    0.00 s
wall time for SCC    0.00 s
speedup  1.00
cpu  time for grad    0.01 s
wall time for grad    0.01 s
 E :    -45.34818349  G :  0.015229    pred/act E change: -0.434D-03 -0.230D-03
Maxdispl :   0.2308   ||displ|| :   0.4869   Lambda : -0.776D-03
Largest |displ|/coords:  0.2308 (   1)  0.2057 (   7)  0.1951 (   4)
................................................................................
.............................. CYCLE   45 ......................................
................................................................................
   1    -45.6109392 -0.456109E+02  0.224E-01    8.34       0.0  T
   2    -45.6109492 -0.100443E-04  0.169E-01    8.34       1.0  T
   3    -45.6109566 -0.738623E-05  0.225E-02    8.35       1.0  T
   4    -45.6109581 -0.147880E-05  0.765E-03    8.35       2.7  T
   5    -45.6109581 -0.617883E-07  0.223E-03    8.34       9.4  T
   6    -45.6109581 -0.320168E-08  0.127E-03    8.34      16.4  T
speedup  1.09
cpu  time for SCC    0.01 s
wall time for SCC    0.00 s
speedup  1.00
cpu  time for grad    0.01 s
wall time for grad    0.01 s
 E :    -45.34879312  G :  0.028596    pred/act E change: -0.165D-03 -0.610D-03
Maxdispl :   0.2841   ||displ|| :   0.6066   Lambda : -0.114D-02
Largest |displ|/coords:  0.2841 (   7)  0.2677 (   4)  0.2476 (   1)
................................................................................
.............................. CYCLE   46 ......................................
................................................................................
   1    -45.6095737 -0.456096E+02  0.257E-01    8.36       0.0  T
   2    -45.6095850 -0.112529E-04  0.192E-01    8.36       1.0  T
   3    -45.6095923 -0.732939E-05  0.267E-02    8.34       1.0  T
   4    -45.6095942 -0.186257E-05  0.851E-03    8.35       2.5  T
   5    -45.6095943 -0.634174E-07  0.256E-03    8.35       8.2  T
   6    -45.6095943 -0.541610E-08  0.149E-03    8.35      14.0  T
speedup  0.87
cpu  time for SCC    0.00 s
wall time for SCC    0.00 s
speedup  1.00
cpu  time for grad    0.01 s
wall time for grad    0.01 s
 E :    -45.34977398  G :  0.033811    pred/act E change: -0.480D-03 -0.981D-03
Maxdispl :   0.2737   ||displ|| :   0.6166   Lambda : -0.218D-02
Largest |displ|/coords:  0.2737 (   4)  0.2619 (   7)  0.2266 (   1)
................................................................................
.............................. CYCLE   47 ......................................
................................................................................
   1    -45.6157212 -0.456157E+02  0.245E-01    8.37       0.0  T
   2    -45.6157394 -0.181736E-04  0.182E-01    8.36       1.0  T
   3    -45.6157489 -0.957621E-05  0.345E-02    8.33       1.0  T
   4    -45.6157516 -0.264493E-05  0.989E-03    8.34       2.1  T
   5    -45.6157518 -0.158422E-06  0.280E-03    8.34       7.5  T
   6    -45.6157518 -0.517240E-08  0.174E-03    8.35      12.0  T
speedup  1.09
cpu  time for SCC    0.00 s
wall time for SCC    0.00 s
speedup  1.00
cpu  time for grad    0.01 s
wall time for grad    0.01 s
 E :    -45.35145302  G :  0.015931    pred/act E change: -0.777D-03 -0.168D-02
Maxdispl :   0.4150   ||displ|| :   0.6849   Lambda : -0.234D-02
Largest |displ|/coords:  0.4150 (   7)  0.2856 (   1)  0.2596 (   4)
................................................................................
.............................. CYCLE   48 ......................................
................................................................................
   1    -45.6146929 -0.456147E+02  0.377E-01    8.30       0.0  T
   2    -45.6147280 -0.351138E-04  0.281E-01    8.30       1.0  T
   3    -45.6147460 -0.179375E-04  0.497E-02    8.29       1.0  T
   4    -45.6147512 -0.527653E-05  0.119E-02    8.29       1.7  T
   5    -45.6147515 -0.237011E-06  0.411E-03    8.29       5.1  T
   6    -45.6147515 -0.116493E-07  0.225E-03    8.29       9.3  T
   7    -45.6147515 -0.776446E-08  0.592E-04    8.29      35.2  T
speedup  0.93
cpu  time for SCC    0.00 s
wall time for SCC    0.01 s
speedup  1.01
cpu  time for grad    0.01 s
wall time for grad    0.01 s
 E :    -45.35218652  G :  0.039390    pred/act E change: -0.150D-02 -0.734D-03
Maxdispl :   0.2233   ||displ|| :   0.5286   Lambda : -0.293D-02
Largest |displ|/coords:  0.2233 (   7)  0.1976 (   1)  0.1839 (  10)
................................................................................
.............................. CYCLE   49 ......................................
................................................................................
   1    -45.6116567 -0.456117E+02  0.236E-01    8.33       0.0  T
   2    -45.6116758 -0.190732E-04  0.178E-01    8.34       1.0  T
   3    -45.6116900 -0.142006E-04  0.314E-02    8.35       1.0  T
   4    -45.6116927 -0.268072E-05  0.110E-02    8.35       1.9  T
   5    -45.6116928 -0.121153E-06  0.294E-03    8.34       7.1  T
   6    -45.6116928 -0.876557E-08  0.167E-03    8.34      12.5  T
speedup  1.09
cpu  time for SCC    0.00 s
wall time for SCC    0.00 s
speedup  0.99
cpu  time for grad    0.01 s
wall time for grad    0.01 s
 E :    -45.35388237  G :  0.026477    pred/act E change: -0.172D-02 -0.170D-02
Maxdispl :   0.1413   ||displ|| :   0.2888   Lambda : -0.215D-02
Largest |displ|/coords:  0.1413 (   9)  0.1062 (   7)  0.0949 (  15)
................................................................................
.............................. CYCLE   50 ......................................
................................................................................
   1    -45.6306082 -0.456306E+02  0.166E-01    8.49       0.0  T
   2    -45.6306391 -0.308253E-04  0.120E-01    8.48       1.0  T
   3    -45.6306573 -0.182848E-04  0.347E-02    8.47       1.0  T
   4    -45.6306595 -0.212410E-05  0.114E-02    8.47       1.8  T
   5    -45.6306597 -0.252037E-06  0.310E-03    8.47       6.7  T
   6    -45.6306597 -0.431655E-08  0.170E-03    8.47      12.3  T
speedup  1.09
cpu  time for SCC    0.01 s
wall time for SCC    0.00 s
speedup  0.98
cpu  time for grad    0.01 s
wall time for grad    0.01 s
 E :    -45.35409345  G :  0.035144    pred/act E change: -0.187D-02 -0.211D-03
Maxdispl :   0.3019   ||displ|| :   0.5253   Lambda : -0.265D-02
Largest |displ|/coords:  0.3019 (   7)  0.2125 (   4)  0.1784 (   1)
................................................................................
.............................. CYCLE   51 ......................................
................................................................................
   1    -45.6201318 -0.456201E+02  0.282E-01    8.43       0.0  T
   2    -45.6201528 -0.210336E-04  0.212E-01    8.42       1.0  T
   3    -45.6201679 -0.151106E-04  0.319E-02    8.40       1.0  T
   4    -45.6201710 -0.309417E-05  0.117E-02    8.40       1.8  T
   5    -45.6201712 -0.202363E-06  0.351E-03    8.40       5.9  T
   6    -45.6201713 -0.102541E-07  0.212E-03    8.40       9.9  T
speedup  1.04
cpu  time for SCC    0.00 s
wall time for SCC    0.00 s
speedup  0.97
cpu  time for grad    0.01 s
wall time for grad    0.01 s
 E :    -45.35563287  G :  0.019089    pred/act E change: -0.117D-02 -0.154D-02
Maxdispl :   0.1712   ||displ|| :   0.3222   Lambda : -0.141D-02
Largest |displ|/coords:  0.1712 (   7)  0.1196 (   1)  0.1006 (  10)
................................................................................
.............................. CYCLE   52 ......................................
................................................................................
   1    -45.6169071 -0.456169E+02  0.204E-01    8.40       0.0  T
   2    -45.6169267 -0.196001E-04  0.152E-01    8.40       1.0  T
   3    -45.6169355 -0.878527E-05  0.322E-02    8.40       1.0  T
   4    -45.6169381 -0.262145E-05  0.860E-03    8.40       2.4  T
   5    -45.6169383 -0.171928E-06  0.268E-03    8.40       7.8  T
   6    -45.6169383 -0.424923E-08  0.147E-03    8.40      14.2  T
speedup  0.87
cpu  time for SCC    0.00 s
wall time for SCC    0.00 s
speedup  0.98
cpu  time for grad    0.01 s
wall time for grad    0.01 s
 E :    -45.35568368  G :  0.029944    pred/act E change: -0.169D-02 -0.508D-04
Maxdispl :   0.1139   ||displ|| :   0.3099   Lambda : -0.185D-02
Largest |displ|/coords:  0.1139 (   1)  0.1081 (   3)  0.1073 (   4)

generating ANC from model Hessian ...
 Shifting diagonal of input Hessian by   4.939629431373895E-003
 Lowest  eigenvalues of input Hessian
   -0.000000   -0.000000   -0.000000    0.000000    0.000000    0.000000
    0.005000    0.005175    0.005214    0.005343    0.005591    0.006473
    0.007022    0.007485    0.009000    0.009417    0.009655    0.010734
 Highest eigenvalues
    1.387181    1.408469    1.467530    2.377682    3.527886    3.748993
 
cpu  time for ANC gen    0.01 s
wall time for ANC gen    0.01 s
................................................................................
.............................. CYCLE   53 ......................................
................................................................................
   1    -45.6206876 -0.456207E+02  0.171E-01    8.45       0.0  T
   2    -45.6206977 -0.100956E-04  0.128E-01    8.45       1.0  T
   3    -45.6207044 -0.667160E-05  0.216E-02    8.44       1.0  T
   4    -45.6207058 -0.142494E-05  0.873E-03    8.44       2.4  T
   5    -45.6207059 -0.905115E-07  0.228E-03    8.44       9.1  T
   6    -45.6207059 -0.415706E-08  0.130E-03    8.44      16.0  T
   7    -45.6207059 -0.249919E-08  0.392E-04    8.44      53.1  T
   8    -45.6207059 -0.230997E-09  0.110E-04    8.44     189.3  T
speedup  0.98
cpu  time for SCC    0.01 s
wall time for SCC    0.01 s
speedup  0.99
cpu  time for grad    0.01 s
wall time for grad    0.01 s
 E :    -45.35679760  G :  0.018139    pred/act E change:  0.000D+00 -0.111D-02
Maxdispl :   0.2233   ||displ|| :   0.3192   Lambda : -0.126D-02
Largest |displ|/coords:  0.2233 (   1)  0.1192 (   3)  0.0885 (   8)
................................................................................
.............................. CYCLE   54 ......................................
................................................................................
   1    -45.6221532 -0.456222E+02  0.370E-01    8.48       0.0  T
   2    -45.6221699 -0.167279E-04  0.283E-01    8.48       1.0  T
   3    -45.6221908 -0.208453E-04  0.172E-02    8.49       1.2  T
   4    -45.6221915 -0.781030E-06  0.758E-03    8.49       2.7  T
   5    -45.6221916 -0.408459E-07  0.259E-03    8.49       8.0  T
   6    -45.6221916 -0.446936E-08  0.117E-03    8.49      17.8  T
speedup  1.09
cpu  time for SCC    0.01 s
wall time for SCC    0.00 s
speedup  0.98
cpu  time for grad    0.01 s
wall time for grad    0.01 s
 E :    -45.35739152  G :  0.017779    pred/act E change:  0.000D+00 -0.594D-03
Maxdispl :   0.2712   ||displ|| :   0.5328   Lambda : -0.257D-02
Largest |displ|/coords:  0.2712 (   7)  0.1954 (   4)  0.1860 (   9)
................................................................................
.............................. CYCLE   55 ......................................
................................................................................
   1    -45.6287585 -0.456288E+02  0.448E-01    8.56       0.0  T
   2    -45.6287990 -0.405054E-04  0.339E-01    8.53       1.0  T
   3    -45.6288304 -0.313285E-04  0.384E-02    8.48       1.0  T
   4    -45.6288359 -0.550313E-05  0.156E-02    8.50       1.3  T
   5    -45.6288362 -0.291687E-06  0.390E-03    8.51       5.3  T
   6    -45.6288362 -0.842867E-08  0.228E-03    8.51       9.1  T
   7    -45.6288362 -0.657662E-08  0.490E-04    8.51      42.5  T
speedup  0.94
cpu  time for SCC    0.00 s
wall time for SCC    0.01 s
speedup  1.01
cpu  time for grad    0.01 s
wall time for grad    0.01 s
 E :    -45.35828428  G :  0.022756    pred/act E change: -0.695D-03 -0.893D-03
Maxdispl :   0.2320   ||displ|| :   0.3809   Lambda : -0.125D-02
Largest |displ|/coords:  0.2320 (   4)  0.1530 (   1)  0.1447 (   7)
................................................................................
.............................. CYCLE   56 ......................................
................................................................................
   1    -45.6264402 -0.456264E+02  0.205E-01    8.50       0.0  T
   2    -45.6264485 -0.828293E-05  0.155E-01    8.51       1.0  T
   3    -45.6264560 -0.751637E-05  0.201E-02    8.52       1.0  T
   4    -45.6264571 -0.110303E-05  0.585E-03    8.51       3.6  T
   5    -45.6264571 -0.468803E-07  0.242E-03    8.51       8.6  T
speedup  1.05
cpu  time for SCC    0.00 s
wall time for SCC    0.00 s
speedup  1.06
cpu  time for grad    0.01 s
wall time for grad    0.01 s
 E :    -45.35931811  G :  0.016573    pred/act E change: -0.165D-02 -0.103D-02
Maxdispl :   0.4233   ||displ|| :   0.7045   Lambda : -0.199D-02
Largest |displ|/coords:  0.4233 (   4)  0.3144 (   1)  0.2713 (   7)
................................................................................
.............................. CYCLE   57 ......................................
................................................................................
   1    -45.6236657 -0.456237E+02  0.328E-01    8.59       0.0  T
   2    -45.6236852 -0.195083E-04  0.247E-01    8.59       1.0  T
   3    -45.6236999 -0.146379E-04  0.306E-02    8.60       1.0  T
   4    -45.6237027 -0.280886E-05  0.110E-02    8.60       1.9  T
   5    -45.6237028 -0.119955E-06  0.339E-03    8.60       6.1  T
   6    -45.6237028 -0.110159E-07  0.192E-03    8.60      10.8  T
   7    -45.6237028 -0.559738E-08  0.527E-04    8.60      39.6  T
speedup  0.94
cpu  time for SCC    0.00 s
wall time for SCC    0.01 s
speedup  0.92
cpu  time for grad    0.01 s
wall time for grad    0.01 s
 E :    -45.36073575  G :  0.016829    pred/act E change: -0.717D-03 -0.142D-02
Maxdispl :   0.4100   ||displ|| :   0.7133   Lambda : -0.156D-02
Largest |displ|/coords:  0.4100 (   4)  0.3146 (   7)  0.2843 (   1)
................................................................................
.............................. CYCLE   58 ......................................
................................................................................
   1    -45.6200318 -0.456200E+02  0.281E-01    8.63       0.0  T
   2    -45.6200526 -0.208007E-04  0.211E-01    8.65       1.0  T
   3    -45.6200632 -0.105768E-04  0.312E-02    8.69       1.0  T
   4    -45.6200668 -0.365880E-05  0.124E-02    8.67       1.7  T
   5    -45.6200670 -0.188888E-06  0.300E-03    8.67       6.9  T
   6    -45.6200670 -0.918986E-08  0.182E-03    8.67      11.4  T
   7    -45.6200670 -0.584008E-08  0.585E-04    8.67      35.7  T
speedup  1.07
cpu  time for SCC    0.01 s
wall time for SCC    0.01 s
speedup  0.98
cpu  time for grad    0.01 s
wall time for grad    0.01 s
 E :    -45.36195684  G :  0.030124    pred/act E change: -0.149D-02 -0.122D-02
Maxdispl :   0.3679   ||displ|| :   0.6624   Lambda : -0.249D-02
Largest |displ|/coords:  0.3679 (   4)  0.3265 (   7)  0.2506 (   2)
................................................................................
.............................. CYCLE   59 ......................................
................................................................................
   1    -45.6296943 -0.456297E+02  0.197E-01    8.86       0.0  T
   2    -45.6297130 -0.186550E-04  0.147E-01    8.86       1.0  T
   3    -45.6297207 -0.768817E-05  0.286E-02    8.84       1.0  T
   4    -45.6297234 -0.267010E-05  0.118E-02    8.85       1.8  T
   5    -45.6297236 -0.209181E-06  0.242E-03    8.86       8.6  T
   6    -45.6297236 -0.549340E-08  0.152E-03    8.86      13.7  T
speedup  1.09
cpu  time for SCC    0.00 s
wall time for SCC    0.00 s
speedup  0.97
cpu  time for grad    0.01 s
wall time for grad    0.01 s
 E :    -45.36380000  G :  0.021190    pred/act E change: -0.118D-02 -0.184D-02
Maxdispl :   0.4391   ||displ|| :   0.7471   Lambda : -0.260D-02
Largest |displ|/coords:  0.4391 (   4)  0.3381 (   7)  0.2545 (   1)
................................................................................
.............................. CYCLE   60 ......................................
................................................................................
   1    -45.6284044 -0.456284E+02  0.331E-01    8.97       0.0  T
   2    -45.6284312 -0.267381E-04  0.250E-01    8.97       1.0  T
   3    -45.6284565 -0.253683E-04  0.316E-02    8.96       1.0  T
   4    -45.6284596 -0.304719E-05  0.142E-02    8.96       1.5  T
   5    -45.6284598 -0.242784E-06  0.393E-03    8.97       5.3  T
   6    -45.6284598 -0.190770E-07  0.246E-03    8.97       8.5  T
speedup  1.06
cpu  time for SCC    0.00 s
wall time for SCC    0.00 s
speedup  0.97
cpu  time for grad    0.01 s
wall time for grad    0.01 s
 E :    -45.36564984  G :  0.019976    pred/act E change: -0.179D-02 -0.185D-02
Maxdispl :   0.4515   ||displ|| :   0.6572   Lambda : -0.218D-02
Largest |displ|/coords:  0.4515 (   4)  0.2777 (   1)  0.2155 (   7)
................................................................................
.............................. CYCLE   61 ......................................
................................................................................
   1    -45.6328432 -0.456328E+02  0.249E-01    9.03       0.0  T
   2    -45.6328644 -0.212303E-04  0.187E-01    9.03       1.0  T
   3    -45.6328804 -0.160466E-04  0.300E-02    9.04       1.0  T
   4    -45.6328832 -0.278632E-05  0.108E-02    9.03       1.9  T
   5    -45.6328834 -0.165448E-06  0.351E-03    9.03       5.9  T
   6    -45.6328834 -0.135187E-07  0.208E-03    9.03      10.0  T
   7    -45.6328834 -0.784302E-08  0.529E-04    9.03      39.4  T
speedup  1.13
cpu  time for SCC    0.01 s
wall time for SCC    0.01 s
speedup  0.99
cpu  time for grad    0.01 s
wall time for grad    0.01 s
 E :    -45.36677211  G :  0.018789    pred/act E change: -0.202D-02 -0.112D-02
Maxdispl :   0.1693   ||displ|| :   0.4428   Lambda : -0.227D-02
Largest |displ|/coords:  0.1693 (  25)  0.1634 (   3)  0.1556 (   1)
................................................................................
.............................. CYCLE   62 ......................................
................................................................................
   1    -45.6409869 -0.456410E+02  0.303E-01    9.11       0.0  T
   2    -45.6410403 -0.533265E-04  0.223E-01    9.08       1.0  T
   3    -45.6410671 -0.268605E-04  0.512E-02    8.98       1.0  T
   4    -45.6410730 -0.585861E-05  0.153E-02    9.00       1.4  T
   5    -45.6410734 -0.386308E-06  0.424E-03    9.00       4.9  T
   6    -45.6410734 -0.173004E-07  0.248E-03    9.00       8.4  T
   7    -45.6410734 -0.955939E-08  0.726E-04    9.00      28.7  T
speedup  0.94
cpu  time for SCC    0.00 s
wall time for SCC    0.01 s
speedup  0.99
cpu  time for grad    0.01 s
wall time for grad    0.01 s
 E :    -45.36730595  G :  0.028976    pred/act E change: -0.156D-02 -0.534D-03
Maxdispl :   0.2710   ||displ|| :   0.5426   Lambda : -0.277D-02
Largest |displ|/coords:  0.2710 (   5)  0.2034 (   1)  0.1861 (   7)
................................................................................
.............................. CYCLE   63 ......................................
................................................................................
   1    -45.6242953 -0.456243E+02  0.351E-01    8.91       0.0  T
   2    -45.6243414 -0.460124E-04  0.259E-01    8.94       1.0  T
   3    -45.6243658 -0.244560E-04  0.539E-02    8.96       1.0  T
   4    -45.6243719 -0.608959E-05  0.132E-02    8.96       1.6  T
   5    -45.6243722 -0.296155E-06  0.453E-03    8.96       4.6  T
   6    -45.6243722 -0.176212E-07  0.242E-03    8.96       8.6  T
speedup  0.87
cpu  time for SCC    0.00 s
wall time for SCC    0.00 s
speedup  0.97
cpu  time for grad    0.01 s
wall time for grad    0.01 s
 E :    -45.36806746  G :  0.036587    pred/act E change: -0.136D-02 -0.762D-03
Maxdispl :   0.1482   ||displ|| :   0.3359   Lambda : -0.308D-02
Largest |displ|/coords:  0.1482 (   5)  0.1465 (  18)  0.1215 (  13)
................................................................................
.............................. CYCLE   64 ......................................
................................................................................
   1    -45.6299482 -0.456299E+02  0.221E-01    9.00       0.0  T
   2    -45.6299852 -0.369380E-04  0.164E-01    9.00       1.0  T
   3    -45.6300076 -0.223981E-04  0.440E-02    8.99       1.0  T
   4    -45.6300114 -0.387786E-05  0.106E-02    8.99       2.0  T
   5    -45.6300118 -0.321292E-06  0.397E-03    8.99       5.3  T
   6    -45.6300118 -0.934801E-08  0.210E-03    8.99       9.9  T
speedup  0.85
cpu  time for SCC    0.00 s
wall time for SCC    0.00 s
speedup  0.97
cpu  time for grad    0.01 s
wall time for grad    0.01 s
 E :    -45.36891382  G :  0.029419    pred/act E change: -0.179D-02 -0.846D-03
Maxdispl :   0.2409   ||displ|| :   0.4761   Lambda : -0.278D-02
Largest |displ|/coords:  0.2409 (   1)  0.1740 (   7)  0.1732 (   6)
................................................................................
[...]
................................................................................
.............................. CYCLE  117 ......................................
................................................................................
   1    -45.6429336 -0.456429E+02  0.214E-02    9.44       0.0  T
   2    -45.6429336 -0.537600E-07  0.156E-02    9.44       1.3  T
   3    -45.6429337 -0.487070E-07  0.243E-03    9.44       8.6  T
   4    -45.6429337 -0.412902E-08  0.554E-04    9.44      37.6  T
   5    -45.6429337 -0.679862E-09  0.169E-04    9.44     123.1  T
speedup  1.03
cpu  time for SCC    0.00 s
wall time for SCC    0.00 s
speedup  0.98
cpu  time for grad    0.01 s
wall time for grad    0.01 s
 E :    -45.38497373  G :  0.000721    pred/act E change: -0.391D-05 -0.306D-05
Maxdispl :   0.0149   ||displ|| :   0.0227   Lambda : -0.292D-05
Largest |displ|/coords:  0.0149 (   5)  0.0082 (  13)  0.0077 (   6)
................................................................................
.............................. CYCLE  118 ......................................
................................................................................
   1    -45.6431426 -0.456431E+02  0.135E-02    9.45       0.0  T
   2    -45.6431426 -0.305348E-07  0.998E-03    9.45       2.1  T
   3    -45.6431426 -0.269044E-07  0.161E-03    9.45      12.9  T
   4    -45.6431426 -0.328913E-08  0.484E-04    9.45      43.1  T
   5    -45.6431426 -0.349274E-09  0.134E-04    9.45     156.0  T
speedup  1.03
cpu  time for SCC    0.00 s
wall time for SCC    0.00 s
speedup  0.98
cpu  time for grad    0.01 s
wall time for grad    0.01 s
 E :    -45.38497521  G :  0.000566    pred/act E change: -0.256D-05 -0.148D-05
Maxdispl :   0.0051   ||displ|| :   0.0106   Lambda : -0.109D-05
Largest |displ|/coords:  0.0051 (   5)  0.0044 (   6)  0.0041 (  13)
................................................................................
.............................. CYCLE  119 ......................................
................................................................................
   1    -45.6432033 -0.456432E+02  0.754E-03    9.45       0.0  T
   2    -45.6432033 -0.792463E-08  0.567E-03    9.45       3.7  T
   3    -45.6432033 -0.888215E-08  0.521E-04    9.45      40.0  T
   4    -45.6432033 -0.770740E-09  0.214E-04    9.45      97.4  T
speedup  1.25
cpu  time for SCC    0.00 s
wall time for SCC    0.00 s
speedup  1.05
cpu  time for grad    0.01 s
wall time for grad    0.01 s
 E :    -45.38497599  G :  0.000463    pred/act E change: -0.146D-05 -0.781D-06
Maxdispl :   0.0088   ||displ|| :   0.0148   Lambda : -0.986D-06
Largest |displ|/coords:  0.0088 (   5)  0.0059 (  13)  0.0050 (   6)
................................................................................
.............................. CYCLE  120 ......................................
................................................................................
   1    -45.6431958 -0.456432E+02  0.109E-02    9.45       0.0  T
   2    -45.6431958 -0.166058E-07  0.825E-03    9.45       2.5  T
   3    -45.6431959 -0.199268E-07  0.692E-04    9.45      30.1  T
   4    -45.6431959 -0.143596E-08  0.334E-04    9.45      62.4  T
speedup  0.94
cpu  time for SCC    0.00 s
wall time for SCC    0.00 s
speedup  1.05
cpu  time for grad    0.01 s
wall time for grad    0.01 s
 E :    -45.38497661  G :  0.000259    pred/act E change: -0.543D-06 -0.622D-06
Maxdispl :   0.0031   ||displ|| :   0.0067   Lambda : -0.240D-06
Largest |displ|/coords:  0.0031 (   5)  0.0029 (  13)  0.0026 (   6)
................................................................................
.............................. CYCLE  121 ......................................
................................................................................
   1    -45.6431743 -0.456432E+02  0.496E-03    9.45       0.0  T
   2    -45.6431743 -0.401381E-08  0.373E-03    9.45       5.6  T
   3    -45.6431743 -0.444487E-08  0.461E-04    9.45      45.3  T
   4    -45.6431743 -0.413969E-09  0.173E-04    9.45     120.9  T
speedup  0.94
cpu  time for SCC    0.00 s
wall time for SCC    0.00 s
speedup  0.96
cpu  time for grad    0.01 s
wall time for grad    0.01 s
 E :    -45.38497680  G :  0.000220    pred/act E change: -0.493D-06 -0.191D-06
Maxdispl :   0.0047   ||displ|| :   0.0089   Lambda : -0.257D-06
Largest |displ|/coords:  0.0047 (   5)  0.0038 (  13)  0.0028 (   6)
................................................................................
.............................. CYCLE  122 ......................................
................................................................................
   1    -45.6431527 -0.456432E+02  0.666E-03    9.45       0.0  T
   2    -45.6431527 -0.842477E-08  0.498E-03    9.45       4.2  T
   3    -45.6431527 -0.866077E-08  0.761E-04    9.45      27.4  T
   4    -45.6431527 -0.979853E-09  0.249E-04    9.45      83.9  T
speedup  0.94
cpu  time for SCC    0.00 s
wall time for SCC    0.00 s
speedup  0.95
cpu  time for grad    0.01 s
wall time for grad    0.01 s
 E :    -45.38497697  G :  0.000202    pred/act E change: -0.127D-06 -0.171D-06
Maxdispl :   0.0023   ||displ|| :   0.0055   Lambda : -0.170D-06
Largest |displ|/coords:  0.0023 (  13)  0.0020 (  18)  0.0020 (   5)
................................................................................
.............................. CYCLE  123 ......................................
................................................................................
   1    -45.6431479 -0.456431E+02  0.442E-03    9.45       0.0  T
   2    -45.6431479 -0.343004E-08  0.327E-03    9.45       6.4  T
   3    -45.6431479 -0.351251E-08  0.568E-04    9.45      36.7  T
   4    -45.6431479 -0.368409E-09  0.166E-04    9.45     125.3  T
speedup  0.94
cpu  time for SCC    0.00 s
wall time for SCC    0.00 s
speedup  1.06
cpu  time for grad    0.01 s
wall time for grad    0.01 s
 E :    -45.38497710  G :  0.000174    pred/act E change: -0.128D-06 -0.130D-06
Maxdispl :   0.0032   ||displ|| :   0.0081   Lambda : -0.215D-06
Largest |displ|/coords:  0.0032 (  13)  0.0027 (  14)  0.0025 (  18)
................................................................................
.............................. CYCLE  124 ......................................
................................................................................
   1    -45.6431477 -0.456431E+02  0.649E-03    9.45       0.0  T
   2    -45.6431477 -0.683508E-08  0.484E-03    9.45       4.3  T
   3    -45.6431478 -0.863918E-08  0.782E-04    9.45      26.7  T
   4    -45.6431478 -0.557584E-09  0.208E-04    9.45     100.0  T
speedup  0.94
cpu  time for SCC    0.00 s
wall time for SCC    0.00 s
speedup  1.04
cpu  time for grad    0.01 s
wall time for grad    0.01 s
 E :    -45.38497725  G :  0.000215    pred/act E change: -0.857D-07 -0.144D-06
Maxdispl :   0.0022   ||displ|| :   0.0057   Lambda : -0.131D-06
Largest |displ|/coords:  0.0022 (  18)  0.0019 (  13)  0.0018 (  12)
................................................................................
.............................. CYCLE  125 ......................................
................................................................................
   1    -45.6431542 -0.456432E+02  0.445E-03    9.45       0.0  T
   2    -45.6431542 -0.270739E-08  0.336E-03    9.45       6.2  T
   3    -45.6431542 -0.376412E-08  0.381E-04    9.45      54.8  T
   4    -45.6431542 -0.144645E-09  0.138E-04    9.45     151.2  T
speedup  0.94
cpu  time for SCC    0.00 s
wall time for SCC    0.00 s
speedup  0.96
cpu  time for grad    0.01 s
wall time for grad    0.01 s
 E :    -45.38497735  G :  0.000219    pred/act E change: -0.108D-06 -0.104D-06
Maxdispl :   0.0028   ||displ|| :   0.0078   Lambda : -0.152D-06
Largest |displ|/coords:  0.0028 (  18)  0.0027 (  12)  0.0026 (  13)
................................................................................
.............................. CYCLE  126 ......................................
................................................................................
   1    -45.6431583 -0.456432E+02  0.597E-03    9.45       0.0  T
   2    -45.6431583 -0.593914E-08  0.454E-03    9.45       4.6  T
   3    -45.6431583 -0.719916E-08  0.470E-04    9.45      44.4  T
   4    -45.6431583 -0.530534E-09  0.240E-04    9.45      86.9  T
speedup  1.25
cpu  time for SCC    0.00 s
wall time for SCC    0.00 s
speedup  1.03
cpu  time for grad    0.01 s
wall time for grad    0.01 s
 E :    -45.38497746  G :  0.000162    pred/act E change: -0.655D-07 -0.106D-06
Maxdispl :   0.0015   ||displ|| :   0.0036   Lambda : -0.700D-07
Largest |displ|/coords:  0.0015 (  18)  0.0012 (  12)  0.0012 (  24)
................................................................................
.............................. CYCLE  127 ......................................
................................................................................
   1    -45.6431597 -0.456432E+02  0.294E-03    9.45       0.0  T
   2    -45.6431597 -0.169035E-08  0.222E-03    9.45       9.4  T
   3    -45.6431597 -0.137192E-08  0.300E-04    9.45      69.5  T
   4    -45.6431597 -0.260620E-09  0.110E-04    9.45     190.2  T
speedup  0.91
cpu  time for SCC    0.00 s
wall time for SCC    0.00 s
speedup  1.04
cpu  time for grad    0.01 s
wall time for grad    0.01 s
 E :    -45.38497751  G :  0.000101    pred/act E change: -0.762D-07 -0.532D-07
Maxdispl :   0.0018   ||displ|| :   0.0042   Lambda : -0.550D-07
Largest |displ|/coords:  0.0018 (  18)  0.0015 (  24)  0.0015 (  12)

   *** GEOMETRY OPTIMIZATION CONVERGED AFTER 127 ITERATIONS ***

------------------------------------------------------------------------
 total energy gain (kcal):     -0.0190
------------------------------------------------------------------------
================
 final structure:
================
$coord
        2.39445716837329       -2.59458732963355       -0.03786052767673      S 
       -0.06593220007809       -3.31534171749744        0.99072770594616      O 
        3.94970404857916       -1.35207945786733        1.84662274227160      O 
        3.78815770013555       -5.15248966565741       -0.72521827571535      O 
        2.17252214981958       -1.20087271399170       -2.38184061030711      O 
        1.62489132615717        2.01021658839526       -2.41765585817315      H 
        4.16921923869510       -5.81765618076806        0.90076286445261      H 
        0.90536754193927        3.65948208849980       -1.98183140571560      O 
        1.43474574914221        3.93599197375542       -0.24327102888343      H 
       -2.42908984428457        0.49216543967854        3.28764324313608      O 
       -1.66459969825241       -1.10346102145598        2.73608148185703      H 
       -1.00073653086840        1.59941570693203        3.61776319009408      H 
        2.10817775216463        3.01775598541227        3.02348292023921      O 
        3.23360670599849        3.83601621227335        4.18306774476966      H 
        2.90182920218818        1.36529016549859        2.61309170878209      H 
       -2.56711820991565       -2.67084583533367       -3.25519993465774      O 
       -0.94073773505748       -2.24136952714701       -3.98106435744465      H 
       -2.06780092061537       -3.35419823405871       -1.61083645056885      H 
       -3.65761162235573        1.81554679853764       -1.33575198730615      N 
       -3.51546086743474        1.39812586493702        0.62911449468390      H 
       -5.25348107255647        2.77781958144237       -1.77330130930560      H 
       -1.98169083876416        2.83750122853713       -1.78888461938171      H 
       -3.53841909963141        0.05757404959311       -2.29564173105639      H 
$end
 
 Bond Distances (Angstroems)
 ---------------------------
S1-O2=1.4618         S1-O3=1.4506         S1-O4=1.5838         S1-O5=1.4479         O2-S1=1.4618         O3-S1=1.4506         
O4-S1=1.5838         O4-H7=0.9513         O5-S1=1.4479         H6-O8=0.9797         H7-O4=0.9513         O8-H6=0.9797         
O8-H9=0.9728         H9-O8=0.9728         O10-H11=0.9807       O10-H12=0.9722       H11-O10=0.9807       H12-O10=0.9722       
O13-H14=0.9585       O13-H15=0.9941       H14-O13=0.9585       H15-O13=0.9941       O16-H17=0.9695       O16-H18=0.9787       
H17-O16=0.9695       H18-O16=0.9787       N19-H20=1.0656       N19-H21=1.0130       N19-H22=1.0661       N19-H23=1.0618       
H20-N19=1.0656       H21-N19=1.0130       H22-N19=1.0661       H23-N19=1.0618       
 N  H  Rav=1.0516 sigma=0.0224  Rmin=1.0130  Rmax=1.0661     4
 O  H  Rav=0.9730 sigma=0.0119  Rmin=0.9513  Rmax=0.9941     9
 S  O  Rav=1.4860 sigma=0.0567  Rmin=1.4479  Rmax=1.5838     4
 
 selected bond angles (degree)
 --------------------
O3-S1-O2=111.57                O4-S1-O2=106.10                O4-S1-O3=106.32                O5-S1-O2=112.31                
O5-S1-O3=113.83                O5-S1-O4=106.04                H7-O4-S1=101.96                H9-O8-H6=104.16                
H12-O10-H11=104.58             
 
 selected dihedral angles (degree)
 ---------------------------------
H7-O4-S1-O2=288.74            H7-O4-S1-O3= 47.64            H7-O4-S1-O5=169.13            
 
 CMA Distance (Angstroems)
 ---------------------------
R(CMA):  2.7819

========================================================================
 FINAL SINGLEPOINT CALCULATION ON OPTIMIZED GEOMETRY
========================================================================

 Ncao       : 59
 Nao        : 58
 Nshell     : 34
 Nel        : 72
 T(el)      :   300.0
 intcut     :    25.0
 scfconv/Eh :  0.100E-05
   qconv/e  :  0.100E-03
 intneglect :  0.100E-07
 broydamp   :      0.250
 iter      E             dE          RMSdq      gap      omega  full diag
   1    -45.6431597 -0.456432E+02  0.346E-05    9.45       0.0  T
   2    -45.6431597 -0.866862E-12  0.228E-05    9.45     912.9  T
   3    -45.6431597 -0.433431E-12  0.586E-06    9.45    3556.6  T
speedup  0.83
cpu  time for SCC    0.00 s
wall time for SCC    0.00 s

   *** convergence criteria satisfied after 3 iterations ***

          eigenvalues
 #    :          24         25         26         27         28         29         30         31
 occ. :        2.000      2.000      2.000      2.000      2.000      2.000      2.000      2.000
 eps  :       -13.842    -13.706    -13.356    -12.494    -12.356    -12.317    -12.242    -12.182
 #    :          32         33         34         35         36         37         38         39
 occ. :        2.000      2.000      2.000      2.000      2.000      0.000      0.000      0.000
 eps  :       -12.103    -12.059    -12.002    -11.943    -11.791     -2.343     -0.892     -0.451
 #    :          40         41         42         43         44         45         46         47
 occ. :        0.000      0.000      0.000      0.000      0.000      0.000      0.000      0.000
 eps  :         1.097      1.283      1.424      2.860      3.102      3.985      4.438      6.063


   #   Z            q   n(s)   n(p)   n(d)      C6AA      α(0)
   1  16 S      1.679  1.582  1.786  0.953    89.255    15.901
   2   8 O     -0.761  1.776  4.985  0.000    30.417     7.394
   3   8 O     -0.742  1.772  4.971  0.000    29.881     7.329
   4   8 O     -0.589  1.752  4.836  0.000    24.885     6.734
   5   8 O     -0.730  1.762  4.968  0.000    29.527     7.285
   6   1 H      0.325  0.675  0.000  0.000     0.650     1.266
   7   1 H      0.343  0.657  0.000  0.000     0.596     1.208
   8   8 O     -0.614  1.751  4.862  0.000    25.515     6.817
   9   1 H      0.319  0.681  0.000  0.000     0.666     1.282
  10   8 O     -0.615  1.752  4.863  0.000    25.549     6.822
  11   1 H      0.324  0.676  0.000  0.000     0.653     1.269
  12   1 H      0.319  0.681  0.000  0.000     0.667     1.283
  13   8 O     -0.635  1.748  4.887  0.000    26.040     6.887
  14   1 H      0.289  0.711  0.000  0.000     0.753     1.363
  15   1 H      0.333  0.667  0.000  0.000     0.629     1.246
  16   8 O     -0.602  1.744  4.858  0.000    25.238     6.780
  17   1 H      0.312  0.688  0.000  0.000     0.686     1.301
  18   1 H      0.320  0.680  0.000  0.000     0.665     1.281
  19   7 N     -0.358  1.282  4.076  0.000    29.206     8.027
  20   1 H      0.288  0.712  0.000  0.000     0.752     1.358
  21   1 H      0.221  0.779  0.000  0.000     1.006     1.571
  22   1 H      0.287  0.713  0.000  0.000     0.752     1.359
  23   1 H      0.285  0.715  0.000  0.000     0.760     1.366

 Mol. C6AA /au·bohr⁶  :       4503.020197
 Mol. C8AA /au·bohr⁸  :      99172.791888
 Mol. α(0) /au        :         97.130706

 
 Wiberg/Mayer (AO) data. WBOs > 0.1 written file <wbo>
 largest (>0.05) Wiberg bond orders for each atom
           total WBO             WBO to atom ...
     1  S   4.860    O    5 1.341    O    3 1.316    O    2 1.274    O    4 0.892
     2  O   1.712    S    1 1.274    O    5 0.112    O    3 0.108    O    4 0.072    H   11 0.053
     3  O   1.728    S    1 1.316    O    5 0.111    O    2 0.108    H   15 0.084    O    4 0.074
     4  O   1.973    S    1 0.892    H    7 0.866    O    3 0.074    O    2 0.072    O    5 0.062
     5  O   1.736    S    1 1.341    O    2 0.112    O    3 0.111    O    4 0.062
     6  H   0.894    O    8 0.841
     7  H   0.882    O    4 0.866
     8  O   1.931    H    9 0.858    H    6 0.841    H   22 0.122    N   19 0.061
     9  H   0.898    O    8 0.858
    10  O   1.930    H   12 0.859    H   11 0.838    H   20 0.121    N   19 0.060
    11  H   0.895    O   10 0.838    O    2 0.053
    12  H   0.898    O   10 0.859
    13  O   1.857    H   14 0.908    H   15 0.800
    14  H   0.916    O   13 0.908
    15  H   0.889    O   13 0.800    O    3 0.084
    16  O   1.930    H   17 0.876    H   18 0.844    H   23 0.113    N   19 0.058
    17  H   0.903    O   16 0.876
    18  H   0.898    O   16 0.844
    19  N   3.515    H   21 0.947    H   23 0.801    H   20 0.792    H   22 0.791    O    8 0.061    O   10 0.060    O   16 0.058
    20  H   0.917    N   19 0.792    O   10 0.121
    21  H   0.951    N   19 0.947
    22  H   0.917    N   19 0.791    O    8 0.122
    23  H   0.919    N   19 0.801    O   16 0.113
 MOs/occ written to file <molden.input>
 
molecular dipole:
                 x           y           z       tot (Debye)
 q only:       -1.464       1.283       0.121
   full:       -0.492       0.702       0.503       2.527
molecular quadrupole (traceless):
                xx          xy          yy          xz          yz          zz
 q only:        3.698      -6.334       0.738       8.641      -1.920      -4.436
  q+dip:        3.980      -8.280       1.779      10.408      -1.719      -5.758
   full:        3.837      -8.660       2.101      10.656      -1.534      -5.938

SCC energy    :     -45.6431597
rep           :       0.2579774
ES            :       0.2328381
AES           :      -0.0717937
AXC           :      -0.0080758
disp          :      -0.0178094
XB            :       0.0000000
fix           :       0.0000000
total E       :     -45.3849775
atomizationE  :       4.4680400     2803.74
(atE without considering molecular charge,
 total energy contains solvation terms)
H-L gap (eV)  :          9.4487
optimized geometry written to: xtbopt.xyz


------------------------------------------------------------------------
 * finished run on 2019/09/16 at 11:15:00.402     
------------------------------------------------------------------------
 total:
 * wall-time:     0 d,  0 h,  0 min,  2.376 sec
 *  cpu-time:     0 d,  0 h,  0 min,  2.355 sec
 * ratio c/w:     0.991 speedup
 SCF:
 * wall-time:     0 d,  0 h,  0 min,  0.120 sec
 *  cpu-time:     0 d,  0 h,  0 min,  0.117 sec
 * ratio c/w:     0.975 speedup
 ANC optimizer:
 * wall-time:     0 d,  0 h,  0 min,  2.234 sec
 *  cpu-time:     0 d,  0 h,  0 min,  2.218 sec
 * ratio c/w:     0.993 speedup

