      -----------------------------------------------------------      
     |                   =====================                   |     
     |                           x T B                           |     
     |                   =====================                   |     
     |                         S. Grimme                         |     
     |          Mulliken Center for Theoretical Chemistry        |     
     |                    University of Bonn                     |     
     |                 Version 6.0.1 (SAW181210)                 |     
      -----------------------------------------------------------      

   This program is distributed in the hope that it will be useful,
   but WITHOUT ANY WARRANTY; without even the implied warranty of
   MERCHANTABILITY or FITNESS FOR A PARTICULAR PURPOSE.
   
   FOR NON-COMMERCIAL, ACADEMIA USE ONLY.
   
   Cite this work as:
   S. Grimme, C. Bannwarth, P. Shushkov, J. Comput. Theory Chem., 2017,
   13, 1989-2009.
   C. Bannwarth, S. Ehlert and S. Grimme., ChemRxiv, 2018, preprint.
   http://doi.org/10.26434/chemrxiv.7246238.v1
   
   for sTDA-xTB:
   S. Grimme and C. Bannwarth, J. Chem. Phys., 2016, 145, 054103.
   
   in the mass-spec context:
   V. Asgeirsson, C. Bauer and S. Grimme, Chem. Sci., 2017, 8, 4879.
   
   if GBSA is used:
   P. Shushkov, F. März and S. Grimme, unpublished.
   
   for ANC optimizer:
   S. Grimme, unpublished.
   Rational Function algorithm used in ANCopt:
   F. Eckert, P. Pulay, H.-J. Werner, J. Comput. Chem., 1997, 18, 1473.
   
   with help from (in alphabetical order)
   C. Bannwarth, F. Bohle, G. Brandenburg, E. Caldeweyher, M. Checinski,
   S. Dohm, S. Ehlert, S. Ehrlich, F. März, H. Neugebauer, J. Pisarek,
   P. Pracht, P. Shushkov, and S. Spicher.
   
 * started run on 2019/09/16 at 11:24:56.684     
========================================================================
 # omp threads = 1
========================================================================
number of atoms            : 23
number of electrons        : 72
charge                     : 0
spin                       : .0
first test random number   : .6043

########################################################################
# WARNING! Please study the warnings concerning your input carefully
#  - XTBPATH is not set, using XTBHOME instead
#  - the use of '-opt' is discouraged, please use '--opt' next time
#  - the use of '-chrg' is discouraged, please use '--chrg' next time
#  - the use of '-uhf' is discouraged, please use '--uhf' next time
########################################################################

           ------------------------------------------------- 
          |                 G F N 2 - x T B                 |
          | Geometry, Frequencies, Noncovalent interactions |
          |            JCTC 2018 parametrisation            |
           ------------------------------------------------- 
      method parameters     
 k(s)        :  1.8500
 k(p)        :  2.2300
 k(d)        :  2.2300
 k(f)        :  2.0000
 kEN (H0ij)  : -2.0000
 D4 a1       :  0.5200
 D4 a2       :  5.0000
 D4 s6       :  1.0000
 D4 s8       :  2.7000
 D4 s9       :  5.0000
 alphaj      :  2.0000


            Z     q(EN)     CN     RAES       Cart. coordinates
     1  S   6.0    0.58    4.27    4.19    -3.34159     1.64200    -0.23435
     2  O   6.0   -0.31    1.12    1.80    -3.56613    -0.91894    -1.22055
     3  O   6.0   -0.31    1.15    1.80    -4.52099     3.79698    -1.41872
     4  O   6.0   -0.23    2.02    1.83    -4.09884     1.52673     2.75875
     5  O   6.0   -0.24    2.07    1.83    -0.41424     2.39936     0.11881
     6  H   1.0    0.17    1.30    1.50     0.51266     0.95307     0.77869
     7  H   1.0    0.14    1.12    1.45    -5.37157     0.21108     2.94744
     8  O   6.0   -0.42    1.74    1.81     1.80112    -1.30113     1.84193
     9  H   1.0    0.18    0.95    1.42     1.40947    -1.31866     3.66678
    10  O   6.0   -0.28    1.97    1.82     5.57104     1.08384     0.26744
    11  H   1.0    0.17    1.12    1.45     4.09599     0.29224     0.98313
    12  H   1.0    0.15    0.97    1.43     5.12994     2.83977     0.07575
    13  O   6.0   -0.28    1.99    1.82     0.04021    -4.70397    -0.91584
    14  H   1.0    0.17    1.00    1.43    -1.55397    -4.09346    -1.54866
    15  H   1.0    0.18    1.13    1.45     0.61457    -3.43018     0.25129
    16  O   6.0   -0.25    1.93    1.82    -8.12074     7.22192    -2.87270
    17  H   1.0    0.18    1.03    1.43    -6.90142     5.96005    -2.38736
    18  H   1.0    0.15    0.97    1.43    -7.14329     8.69894    -3.29416
    19  N   5.0   -0.14    3.95    2.74     5.17155    -4.17193     0.04046
    20  H   1.0    0.09    0.99    1.43     6.44455    -3.00546    -0.85580
    21  H   1.0    0.09    0.99    1.43     4.24908    -5.26182    -1.28075
    22  H   1.0    0.08    0.99    1.43     6.11724    -5.32701     1.28782
    23  H   1.0    0.12    1.16    1.46     3.87536    -3.09341     1.01058

  Z AO/shell   Hii/eV     exponent
  1     Wed Apr 25 08:07:45 CEST 2018   EN: 2.200 GM2: 0.406  GM3: 0.0800  RAES: 1.40
     1s    -10.707211    1.230000
  7     Wed Apr 25 08:07:45 CEST 2018   EN: 3.040 GM2: 0.461  GM3:-0.0640  RAES: 1.90
     2s    -16.686243    2.339881
     2p    -12.523956    2.014332
  8     Wed Apr 25 08:07:45 CEST 2018   EN: 3.440 GM2: 0.452  GM3:-0.0517  RAES: 1.80
     2s    -20.229985    2.439742
     2p    -15.503117    2.137023
 16     Tue Apr 24 11:44:34 CEST 2018   EN: 2.580 GM2: 0.340  GM3:-0.0502  RAES: 3.10
     3s    -20.029654    1.981333
     3p    -11.377694    2.025643
     3d     -0.420282    1.702555
 no old-style atom pair restraining (fixing) potential

molecular fragmentation (1/2 indicates fragments):
11111112222222222222222
# atoms in fragment 1/2:     7    16
 fragment masses (1/2) :       98.07       89.09
CMA distance (Bohr)    :   4.540
constraining FC (au)   :  0.0500
           ------------------------------------------------- 
          |        Self-Consistent Charge Iterations        |
           ------------------------------------------------- 

 Ncao       : 59
 Nao        : 58
 Nshell     : 34
 Nel        : 72
 T(el)      :   300.0
 intcut     :    25.0
 scfconv/Eh :  0.100E-05
   qconv/e  :  0.100E-03
 intneglect :  0.100E-07
 broydamp   :      0.250
 iter      E             dE          RMSdq      gap      omega  full diag
   1    -45.4487593 -0.454488E+02  0.729E+00    7.99       0.0  T
   2    -45.4996370 -0.508777E-01  0.511E+00    7.34       1.0  T
   3    -45.5395875 -0.399505E-01  0.128E+00    5.45       1.0  T
   4    -45.5431045 -0.351697E-02  0.683E-01    5.65       1.0  T
   5    -45.5444779 -0.137340E-02  0.274E-01    5.73       1.0  T
   6    -45.5447790 -0.301099E-03  0.168E-01    5.74       1.0  T
   7    -45.5449342 -0.155210E-03  0.509E-02    5.74       1.0  T
   8    -45.5449463 -0.121488E-04  0.262E-02    5.73       1.0  T
   9    -45.5449498 -0.351588E-05  0.739E-03    5.74       2.8  T
  10    -45.5449500 -0.194183E-06  0.212E-03    5.74       9.8  T
  11    -45.5449500 -0.103412E-07  0.122E-03    5.74      17.1  T
  12    -45.5449501 -0.605276E-08  0.410E-04    5.74      50.8  T
  13    -45.5449501 -0.413991E-09  0.189E-04    5.74     110.0  T
speedup  1.01
cpu  time for SCC    0.01 s
wall time for SCC    0.01 s

   *** convergence criteria satisfied after 13 iterations ***

          eigenvalues
 #    :          24         25         26         27         28         29         30         31
 occ. :        2.000      2.000      2.000      2.000      2.000      2.000      2.000      2.000
 eps  :       -13.255    -12.997    -12.774    -12.739    -12.683    -12.495    -12.425    -12.172
 #    :          32         33         34         35         36         37         38         39
 occ. :        2.000      2.000      2.000      2.000      2.000      0.000      0.000      0.000
 eps  :       -11.358    -11.059    -10.893    -10.817    -10.521     -4.781     -2.085     -1.938
 #    :          40         41         42         43         44         45         46         47
 occ. :        0.000      0.000      0.000      0.000      0.000      0.000      0.000      0.000
 eps  :        -1.049      0.590      1.597      2.607      2.780      3.295      4.076      4.673


   #   Z            q   n(s)   n(p)   n(d)      C6AA      α(0)
   1  16 S      1.644  1.628  1.800  0.929    90.059    15.972
   2   8 O     -0.658  1.775  4.883  0.000    27.581     7.041
   3   8 O     -0.637  1.765  4.871  0.000    27.033     6.971
   4   8 O     -0.572  1.760  4.813  0.000    24.502     6.682
   5   8 O     -0.599  1.760  4.840  0.000    25.137     6.768
   6   1 H      0.388  0.612  0.000  0.000     0.503     1.111
   7   1 H      0.345  0.655  0.000  0.000     0.597     1.212
   8   8 O     -0.846  1.843  5.004  0.000    33.027     7.705
   9   1 H      0.225  0.775  0.000  0.000     0.999     1.570
  10   8 O     -0.663  1.752  4.911  0.000    26.748     6.980
  11   1 H      0.323  0.677  0.000  0.000     0.653     1.269
  12   1 H      0.271  0.729  0.000  0.000     0.814     1.417
  13   8 O     -0.678  1.750  4.928  0.000    27.127     7.030
  14   1 H      0.288  0.712  0.000  0.000     0.759     1.368
  15   1 H      0.317  0.683  0.000  0.000     0.672     1.286
  16   8 O     -0.594  1.741  4.852  0.000    25.032     6.753
  17   1 H      0.308  0.692  0.000  0.000     0.697     1.311
  18   1 H      0.270  0.730  0.000  0.000     0.818     1.421
  19   7 N     -0.275  1.250  4.025  0.000    27.088     7.730
  20   1 H      0.278  0.722  0.000  0.000     0.783     1.386
  21   1 H      0.282  0.718  0.000  0.000     0.768     1.373
  22   1 H      0.242  0.758  0.000  0.000     0.913     1.497
  23   1 H      0.339  0.661  0.000  0.000     0.606     1.219

 Mol. C6AA /au·bohr⁶  :       4494.166117
 Mol. C8AA /au·bohr⁸  :      98910.520465
 Mol. α(0) /au        :         97.073662

 
 Wiberg/Mayer (AO) data. WBOs > 0.1 written file <wbo>
 largest (>0.05) Wiberg bond orders for each atom
           total WBO             WBO to atom ...
     1  S   4.778    O    3 1.449    O    2 1.414    O    5 0.999    O    4 0.883
     2  O   1.775    S    1 1.414    O    3 0.139    O    5 0.104    O    4 0.093
     3  O   1.810    S    1 1.449    O    2 0.139    O    4 0.087    O    5 0.086
     4  O   1.982    S    1 0.883    H    7 0.862    O    2 0.093    O    3 0.087    O    5 0.054
     5  O   1.985    S    1 0.999    H    6 0.678    O    2 0.104    O    3 0.086    O    4 0.054
     6  H   0.849    O    5 0.678    O    8 0.153
     7  H   0.881    O    4 0.862
     8  O   1.643    H    9 0.939    H    6 0.153    H   23 0.150    H   11 0.096    H   15 0.095    N   19 0.064
     9  H   0.949    O    8 0.939
    10  O   1.778    H   12 0.922    H   11 0.791
    11  H   0.895    O   10 0.791    O    8 0.096
    12  H   0.926    O   10 0.922
    13  O   1.774    H   14 0.899    H   15 0.797
    14  H   0.917    O   13 0.899
    15  H   0.900    O   13 0.797    O    8 0.095
    16  O   1.822    H   18 0.927    H   17 0.874
    17  H   0.905    O   16 0.874
    18  H   0.927    O   16 0.927
    19  N   3.559    H   22 0.937    H   20 0.912    H   21 0.907    H   23 0.718    O    8 0.064
    20  H   0.923    N   19 0.912
    21  H   0.920    N   19 0.907
    22  H   0.941    N   19 0.937
    23  H   0.885    N   19 0.718    O    8 0.150
 MOs/occ written to file <molden.input>
 
molecular dipole:
                 x           y           z       tot (Debye)
 q only:        3.336      -2.723       0.797
   full:        3.213      -2.576       1.223      10.920
molecular quadrupole (traceless):
                xx          xy          yy          xz          yz          zz
 q only:        1.214      -8.204       0.794     -10.849      -0.540      -2.008
  q+dip:       -3.364      -3.864       1.546     -12.697      -1.322       1.818
   full:       -3.066      -3.735       1.568     -12.777      -1.580       1.498

SCC energy    :     -45.5449501
rep           :       0.2577655
ES            :       0.2735713
AES           :      -0.0474344
AXC           :      -0.0041427
disp          :      -0.0140313
XB            :       0.0000000
fix           :       0.0000000
total E       :     -45.2871493
atomizationE  :       4.3702118     2742.35
(atE without considering molecular charge,
 total energy contains solvation terms)
H-L gap (eV)  :          5.7402
           ------------------------------------------------- 
          |                 ===============                 |
          |                   A N C O P T                   |
          |                 ===============                 |
          |          Approximate Normal Coordinate          |
          |           Rational Function Optimizer           |
           ------------------------------------------------- 
dumping coords to <xtbopt.coord> and <xtbopt.log>
 optlevel               2
 Maxcycle             460
 Maxmicro              25
 Econv         1.000000000000000E-007
 Gconv         2.000000000000000E-004
 Maxdispl       1.00000000000000     
 Hlow          5.000000000000000E-003
 S6             20.0000000000000     
 Nvar               63

generating ANC from model Hessian ...
 Shifting diagonal of input Hessian by   6.360764556399050E-003
 Lowest  eigenvalues of input Hessian
    0.005000    0.006004    0.006222   -0.000000   -0.000000   -0.000000
    0.000000    0.000000    0.000000    0.006458    0.006534    0.006563
    0.006709    0.007075    0.007311    0.008042    0.008322    0.008553
 Highest eigenvalues
    1.426445    1.428767    1.437351    1.955178    2.770929    3.594628
 
cpu  time for ANC gen    0.01 s
wall time for ANC gen    0.01 s
................................................................................
.............................. CYCLE    1 ......................................
................................................................................
   1    -45.5449501 -0.455450E+02  0.555E-05    5.74       0.0  T
   2    -45.5449501 -0.440536E-11  0.422E-05    5.74     494.2  T
   3    -45.5449501 -0.446221E-11  0.180E-05    5.74    1157.4  T
speedup  0.83
cpu  time for SCC    0.00 s
wall time for SCC    0.00 s
speedup  1.02
cpu  time for grad    0.01 s
wall time for grad    0.01 s
 E :    -45.28714924  G :  0.146668    pred/act E change:  0.000D+00  0.214D-07
Maxdispl :   0.1177   ||displ|| :   0.3105   Lambda : -0.208D-01
Largest |displ|/coords:  0.1177 (  19)  0.0956 (  28)  0.0903 (  10)
................................................................................
.............................. CYCLE    2 ......................................
................................................................................
   1    -45.5595359 -0.455595E+02  0.288E-01    6.52       0.0  T
   2    -45.5596703 -0.134422E-03  0.210E-01    6.53       1.0  T
   3    -45.5597295 -0.592174E-04  0.608E-02    6.55       1.0  T
   4    -45.5597392 -0.968870E-05  0.261E-02    6.56       1.0  T
   5    -45.5597400 -0.801456E-06  0.627E-03    6.56       3.3  T
   6    -45.5597401 -0.686547E-07  0.309E-03    6.56       6.8  T
   7    -45.5597401 -0.130513E-07  0.145E-03    6.56      14.4  T
speedup  0.94
cpu  time for SCC    0.00 s
wall time for SCC    0.01 s
speedup  1.05
cpu  time for grad    0.01 s
wall time for grad    0.01 s
 E :    -45.30253710  G :  0.076965    pred/act E change:  0.000D+00 -0.154D-01
Maxdispl :   0.1439   ||displ|| :   0.2975   Lambda : -0.804D-02
Largest |displ|/coords:  0.1439 (  23)  0.0940 (  19)  0.0883 (  24)
................................................................................
.............................. CYCLE    3 ......................................
................................................................................
   1    -45.5688090 -0.455688E+02  0.227E-01    7.11       0.0  T
   2    -45.5689008 -0.917613E-04  0.165E-01    7.11       1.0  T
   3    -45.5689315 -0.307402E-04  0.508E-02    7.12       1.0  T
   4    -45.5689386 -0.704839E-05  0.165E-02    7.12       1.3  T
   5    -45.5689388 -0.284660E-06  0.365E-03    7.12       5.7  T
   6    -45.5689389 -0.232724E-07  0.205E-03    7.12      10.2  T
speedup  1.09
cpu  time for SCC    0.00 s
wall time for SCC    0.00 s
speedup  1.04
cpu  time for grad    0.01 s
wall time for grad    0.01 s
 E :    -45.30906874  G :  0.048611    pred/act E change: -0.114D-01 -0.653D-02
Maxdispl :   0.2442   ||displ|| :   0.4767   Lambda : -0.850D-02
Largest |displ|/coords:  0.2442 (  23)  0.1482 (  24)  0.1468 (   9)
................................................................................
.............................. CYCLE    4 ......................................
................................................................................
   1    -45.5779085 -0.455779E+02  0.391E-01    7.87       0.0  T
   2    -45.5782264 -0.317975E-03  0.285E-01    7.87       1.0  T
   3    -45.5783293 -0.102811E-03  0.920E-02    7.89       1.0  T
   4    -45.5783522 -0.229620E-04  0.263E-02    7.88       1.0  T
   5    -45.5783530 -0.753967E-06  0.533E-03    7.88       3.9  T
   6    -45.5783530 -0.472733E-07  0.331E-03    7.88       6.3  T
speedup  1.09
cpu  time for SCC    0.01 s
wall time for SCC    0.00 s
speedup  1.05
cpu  time for grad    0.01 s
wall time for grad    0.01 s
 E :    -45.31452731  G :  0.028309    pred/act E change: -0.437D-02 -0.546D-02
Maxdispl :   0.1993   ||displ|| :   0.4280   Lambda : -0.323D-02
Largest |displ|/coords:  0.1993 (  23)  0.1757 (   1)  0.1473 (  15)
................................................................................
.............................. CYCLE    5 ......................................
................................................................................
   1    -45.5817876 -0.455818E+02  0.410E-01    8.12       0.0  T
   2    -45.5819648 -0.177230E-03  0.305E-01    8.13       1.0  T
   3    -45.5820151 -0.502660E-04  0.752E-02    8.14       1.0  T
   4    -45.5820428 -0.277540E-04  0.200E-02    8.14       1.0  T
   5    -45.5820434 -0.606212E-06  0.444E-03    8.13       4.7  T
   6    -45.5820435 -0.168313E-07  0.258E-03    8.13       8.1  T
speedup  1.09
cpu  time for SCC    0.00 s
wall time for SCC    0.00 s
speedup  0.95
cpu  time for grad    0.01 s
wall time for grad    0.01 s
 E :    -45.31562320  G :  0.036958    pred/act E change: -0.521D-02 -0.110D-02
Maxdispl :   0.2483   ||displ|| :   0.4566   Lambda : -0.362D-02
Largest |displ|/coords:  0.2483 (   1)  0.1601 (   9)  0.1513 (  23)
................................................................................
.............................. CYCLE    6 ......................................
................................................................................
   1    -45.5814634 -0.455815E+02  0.362E-01    8.11       0.0  T
   2    -45.5815553 -0.919387E-04  0.271E-01    8.11       1.0  T
   3    -45.5815866 -0.312274E-04  0.552E-02    8.12       1.0  T
   4    -45.5816026 -0.160342E-04  0.140E-02    8.12       1.5  T
   5    -45.5816029 -0.352522E-06  0.381E-03    8.12       5.5  T
   6    -45.5816030 -0.598634E-08  0.216E-03    8.12       9.6  T
speedup  0.87
cpu  time for SCC    0.00 s
wall time for SCC    0.00 s
speedup  0.94
cpu  time for grad    0.01 s
wall time for grad    0.01 s
 E :    -45.31779891  G :  0.027027    pred/act E change: -0.191D-02 -0.218D-02
Maxdispl :   0.1096   ||displ|| :   0.3041   Lambda : -0.176D-02
Largest |displ|/coords:  0.1096 (  17)  0.1036 (   6)  0.1000 (  10)
................................................................................
.............................. CYCLE    7 ......................................
................................................................................
   1    -45.5798874 -0.455799E+02  0.256E-01    7.90       0.0  T
   2    -45.5799147 -0.272809E-04  0.193E-01    7.90       1.0  T
   3    -45.5799260 -0.113048E-04  0.410E-02    7.92       1.0  T
   4    -45.5799305 -0.448423E-05  0.119E-02    7.92       1.7  T
   5    -45.5799307 -0.171345E-06  0.260E-03    7.91       8.0  T
   6    -45.5799307 -0.692880E-08  0.135E-03    7.91      15.5  T
speedup  1.06
cpu  time for SCC    0.01 s
wall time for SCC    0.00 s
speedup  1.03
cpu  time for grad    0.01 s
wall time for grad    0.01 s
 E :    -45.31877636  G :  0.024081    pred/act E change: -0.219D-02 -0.977D-03
Maxdispl :   0.1606   ||displ|| :   0.4250   Lambda : -0.208D-02
Largest |displ|/coords:  0.1606 (   6)  0.1496 (  15)  0.1404 (   1)
................................................................................
.............................. CYCLE    8 ......................................
................................................................................
   1    -45.5802832 -0.455803E+02  0.331E-01    7.62       0.0  T
   2    -45.5803173 -0.340958E-04  0.249E-01    7.61       1.0  T
   3    -45.5803325 -0.152527E-04  0.454E-02    7.61       1.0  T
   4    -45.5803383 -0.573493E-05  0.157E-02    7.61       1.3  T
   5    -45.5803385 -0.215535E-06  0.330E-03    7.62       6.3  T
   6    -45.5803385 -0.122728E-07  0.195E-03    7.62      10.7  T
speedup  1.09
cpu  time for SCC    0.00 s
wall time for SCC    0.00 s
speedup  1.04
cpu  time for grad    0.01 s
wall time for grad    0.01 s
 E :    -45.31966855  G :  0.018593    pred/act E change: -0.961D-03 -0.892D-03
Maxdispl :   0.1293   ||displ|| :   0.3512   Lambda : -0.108D-02
Largest |displ|/coords:  0.1293 (  23)  0.1234 (   6)  0.1018 (  12)
................................................................................
.............................. CYCLE    9 ......................................
................................................................................
   1    -45.5768418 -0.455768E+02  0.230E-01    7.66       0.0  T
   2    -45.5769129 -0.710439E-04  0.168E-01    7.66       1.0  T
   3    -45.5769352 -0.223173E-04  0.461E-02    7.65       1.0  T
   4    -45.5769429 -0.769618E-05  0.913E-03    7.65       2.3  T
   5    -45.5769431 -0.238499E-06  0.321E-03    7.65       6.5  T
   6    -45.5769431 -0.995136E-08  0.178E-03    7.65      11.7  T
   7    -45.5769431 -0.351223E-08  0.611E-04    7.65      34.1  T
speedup  1.11
cpu  time for SCC    0.01 s
wall time for SCC    0.01 s
speedup  1.05
cpu  time for grad    0.01 s
wall time for grad    0.01 s
 E :    -45.32041064  G :  0.020682    pred/act E change: -0.123D-02 -0.742D-03
Maxdispl :   0.2090   ||displ|| :   0.5099   Lambda : -0.202D-02
Largest |displ|/coords:  0.2090 (  23)  0.1593 (  24)  0.1523 (   6)
................................................................................
.............................. CYCLE   10 ......................................
................................................................................
   1    -45.5808542 -0.455809E+02  0.377E-01    7.89       0.0  T
   2    -45.5810546 -0.200327E-03  0.278E-01    7.88       1.0  T
   3    -45.5811165 -0.619513E-04  0.797E-02    7.88       1.0  T
   4    -45.5811416 -0.250981E-04  0.148E-02    7.88       1.4  T
   5    -45.5811421 -0.530733E-06  0.539E-03    7.88       3.9  T
   6    -45.5811422 -0.213552E-07  0.279E-03    7.88       7.5  T
speedup  1.09
cpu  time for SCC    0.01 s
wall time for SCC    0.00 s
speedup  1.02
cpu  time for grad    0.01 s
wall time for grad    0.01 s
 E :    -45.32084002  G :  0.035373    pred/act E change: -0.608D-03 -0.429D-03
Maxdispl :   0.1425   ||displ|| :   0.3257   Lambda : -0.232D-02
Largest |displ|/coords:  0.1425 (   2)  0.1417 (   6)  0.0887 (  20)
................................................................................
.............................. CYCLE   11 ......................................
................................................................................
   1    -45.5829199 -0.455829E+02  0.313E-01    7.92       0.0  T
   2    -45.5829410 -0.210880E-04  0.238E-01    7.92       1.0  T
   3    -45.5829607 -0.197349E-04  0.236E-02    7.93       1.0  T
   4    -45.5829631 -0.233133E-05  0.912E-03    7.92       2.3  T
   5    -45.5829632 -0.110028E-06  0.355E-03    7.92       5.9  T
   6    -45.5829632 -0.129797E-07  0.180E-03    7.92      11.6  T
speedup  1.11
cpu  time for SCC    0.00 s
wall time for SCC    0.00 s
speedup  1.05
cpu  time for grad    0.01 s
wall time for grad    0.01 s
 E :    -45.32218151  G :  0.028129    pred/act E change: -0.127D-02 -0.134D-02
Maxdispl :   0.1881   ||displ|| :   0.5125   Lambda : -0.300D-02
Largest |displ|/coords:  0.1881 (   4)  0.1797 (   1)  0.1559 (   7)
................................................................................
.............................. CYCLE   12 ......................................
................................................................................
   1    -45.5828146 -0.455828E+02  0.518E-01    7.87       0.0  T
   2    -45.5828869 -0.722334E-04  0.393E-01    7.84       1.0  T
   3    -45.5829409 -0.539895E-04  0.493E-02    7.79       1.0  T
   4    -45.5829514 -0.105529E-04  0.163E-02    7.82       1.3  T
   5    -45.5829519 -0.481212E-06  0.591E-03    7.83       3.5  T
   6    -45.5829519 -0.178770E-07  0.311E-03    7.83       6.7  T
speedup  1.09
cpu  time for SCC    0.01 s
wall time for SCC    0.00 s
speedup  1.03
cpu  time for grad    0.01 s
wall time for grad    0.01 s
 E :    -45.32274263  G :  0.040530    pred/act E change: -0.128D-02 -0.561D-03
Maxdispl :   0.1520   ||displ|| :   0.3453   Lambda : -0.268D-02
Largest |displ|/coords:  0.1520 (   1)  0.1076 (   7)  0.1047 (  24)
................................................................................
.............................. CYCLE   13 ......................................
................................................................................
   1    -45.5845310 -0.455845E+02  0.231E-01    7.81       0.0  T
   2    -45.5845766 -0.456431E-04  0.173E-01    7.81       1.0  T
   3    -45.5845938 -0.172254E-04  0.382E-02    7.82       1.0  T
   4    -45.5846014 -0.755099E-05  0.109E-02    7.81       1.9  T
   5    -45.5846017 -0.344595E-06  0.380E-03    7.81       5.5  T
   6    -45.5846018 -0.153397E-07  0.198E-03    7.81      10.6  T
speedup  0.87
cpu  time for SCC    0.00 s
wall time for SCC    0.00 s
speedup  0.94
cpu  time for grad    0.01 s
wall time for grad    0.01 s
 E :    -45.32480413  G :  0.020876    pred/act E change: -0.190D-02 -0.206D-02
Maxdispl :   0.3257   ||displ|| :   0.7217   Lambda : -0.355D-02
Largest |displ|/coords:  0.3257 (   1)  0.2575 (  23)  0.2270 (  24)
................................................................................
.............................. CYCLE   14 ......................................
................................................................................
   1    -45.5813466 -0.455813E+02  0.478E-01    7.84       0.0  T
   2    -45.5817548 -0.408178E-03  0.349E-01    7.86       1.0  T
   3    -45.5818977 -0.142963E-03  0.111E-01    7.89       1.0  T
   4    -45.5819347 -0.369385E-04  0.249E-02    7.88       1.0  T
   5    -45.5819369 -0.221700E-05  0.833E-03    7.87       2.5  T
   6    -45.5819370 -0.854764E-07  0.517E-03    7.87       4.0  T
   7    -45.5819370 -0.271584E-07  0.155E-03    7.87      13.4  T
speedup  0.94
cpu  time for SCC    0.01 s
wall time for SCC    0.01 s
speedup  0.96
cpu  time for grad    0.01 s
wall time for grad    0.01 s
 E :    -45.32701615  G :  0.036638    pred/act E change: -0.150D-02 -0.221D-02
Maxdispl :   0.3334   ||displ|| :   0.5462   Lambda : -0.427D-02
Largest |displ|/coords:  0.3334 (   1)  0.2052 (  23)  0.1324 (  11)
................................................................................
.............................. CYCLE   15 ......................................
................................................................................
   1    -45.6004783 -0.456005E+02  0.355E-01    8.04       0.0  T
   2    -45.6005962 -0.117986E-03  0.266E-01    8.04       1.0  T
   3    -45.6006488 -0.525105E-04  0.662E-02    8.05       1.0  T
   4    -45.6006658 -0.170787E-04  0.186E-02    8.05       1.1  T
   5    -45.6006665 -0.672484E-06  0.682E-03    8.05       3.1  T
   6    -45.6006666 -0.424781E-07  0.324E-03    8.05       6.4  T
   7    -45.6006666 -0.964193E-08  0.102E-03    8.05      20.4  T
speedup  0.93
cpu  time for SCC    0.00 s
wall time for SCC    0.01 s
speedup  0.96
cpu  time for grad    0.01 s
wall time for grad    0.01 s
 E :    -45.32807954  G :  0.044779    pred/act E change: -0.270D-02 -0.106D-02
Maxdispl :   0.2408   ||displ|| :   0.5191   Lambda : -0.551D-02
Largest |displ|/coords:  0.2408 (   1)  0.1558 (  11)  0.1422 (   6)
................................................................................
.............................. CYCLE   16 ......................................
................................................................................
   1    -45.5822351 -0.455822E+02  0.348E-01    7.93       0.0  T
   2    -45.5822971 -0.619422E-04  0.259E-01    7.92       1.0  T
   3    -45.5823396 -0.425156E-04  0.478E-02    7.91       1.0  T
   4    -45.5823471 -0.749807E-05  0.134E-02    7.92       1.6  T
   5    -45.5823474 -0.298242E-06  0.565E-03    7.92       3.7  T
   6    -45.5823474 -0.420492E-07  0.285E-03    7.92       7.3  T
speedup  0.87
cpu  time for SCC    0.00 s
wall time for SCC    0.00 s
speedup  0.93
cpu  time for grad    0.01 s
wall time for grad    0.01 s
 E :    -45.33028189  G :  0.049470    pred/act E change: -0.277D-02 -0.220D-02
Maxdispl :   0.2315   ||displ|| :   0.4353   Lambda : -0.605D-02
Largest |displ|/coords:  0.2315 (   9)  0.1469 (  10)  0.1370 (   8)
................................................................................
.............................. CYCLE   17 ......................................
................................................................................
   1    -45.5911336 -0.455911E+02  0.379E-01    7.87       0.0  T
   2    -45.5913446 -0.211018E-03  0.275E-01    7.86       1.0  T
   3    -45.5914640 -0.119371E-03  0.813E-02    7.84       1.0  T
   4    -45.5914784 -0.143761E-04  0.231E-02    7.85       1.0  T
   5    -45.5914796 -0.125258E-05  0.771E-03    7.85       2.7  T
   6    -45.5914797 -0.293266E-07  0.396E-03    7.85       5.3  T
   7    -45.5914797 -0.148395E-07  0.101E-03    7.85      20.7  T
speedup  0.94
cpu  time for SCC    0.00 s
wall time for SCC    0.01 s
speedup  0.96
cpu  time for grad    0.01 s
wall time for grad    0.01 s
 E :    -45.32639576  G :  0.092127    pred/act E change: -0.350D-02  0.389D-02
Maxdispl :   0.1702   ||displ|| :   0.4971   Lambda : -0.221D-01
Largest |displ|/coords:  0.1702 (  26)  0.1617 (  16)  0.1579 (   9)
................................................................................
.............................. CYCLE   18 ......................................
................................................................................
   1    -45.5809252 -0.455809E+02  0.470E-01    7.77       0.0  T
   2    -45.5814274 -0.502210E-03  0.330E-01    7.80       1.0  T
   3    -45.5816717 -0.244328E-03  0.120E-01    7.82       1.0  T
   4    -45.5816981 -0.263454E-04  0.322E-02    7.81       1.0  T
   5    -45.5817004 -0.233584E-05  0.120E-02    7.80       1.7  T
   6    -45.5817005 -0.141259E-06  0.716E-03    7.80       2.9  T
   7    -45.5817006 -0.243888E-07  0.138E-03    7.80      15.1  T
   8    -45.5817006 -0.546857E-08  0.414E-04    7.80      50.4  T
speedup  0.98
cpu  time for SCC    0.01 s
wall time for SCC    0.01 s
speedup  1.05
cpu  time for grad    0.01 s
wall time for grad    0.01 s
 E :    -45.32697956  G :  0.084309    pred/act E change: -0.360D-02 -0.584D-03
Maxdispl :   0.1757   ||displ|| :   0.4154   Lambda : -0.170D-01
Largest |displ|/coords:  0.1757 (  26)  0.1467 (   8)  0.1223 (   7)
................................................................................
.............................. CYCLE   19 ......................................
................................................................................
   1    -45.5985877 -0.455986E+02  0.394E-01    7.99       0.0  T
   2    -45.5989165 -0.328735E-03  0.282E-01    7.98       1.0  T
   3    -45.5990957 -0.179248E-03  0.974E-02    7.96       1.0  T
   4    -45.5991153 -0.195755E-04  0.294E-02    7.97       1.0  T
   5    -45.5991171 -0.180937E-05  0.100E-02    7.98       2.1  T
   6    -45.5991172 -0.647966E-07  0.496E-03    7.98       4.2  T
   7    -45.5991172 -0.167111E-07  0.139E-03    7.98      15.0  T
speedup  0.74
cpu  time for SCC    0.00 s
wall time for SCC    0.01 s
speedup  0.87
cpu  time for grad    0.01 s
wall time for grad    0.01 s
 E :    -45.32988863  G :  0.060652    pred/act E change: -0.138D-01 -0.291D-02
Maxdispl :   0.1598   ||displ|| :   0.3785   Lambda : -0.938D-02
Largest |displ|/coords:  0.1598 (   7)  0.1129 (   8)  0.1034 (   2)
................................................................................
.............................. CYCLE   20 ......................................
................................................................................
   1    -45.5838945 -0.455839E+02  0.387E-01    7.85       0.0  T
   2    -45.5842102 -0.315724E-03  0.277E-01    7.84       1.0  T
   3    -45.5843694 -0.159184E-03  0.954E-02    7.81       1.0  T
   4    -45.5843920 -0.226201E-04  0.289E-02    7.81       1.0  T
   5    -45.5843934 -0.141486E-05  0.102E-02    7.81       2.0  T
   6    -45.5843936 -0.161511E-06  0.512E-03    7.81       4.1  T
   7    -45.5843936 -0.241543E-07  0.165E-03    7.81      12.6  T
speedup  0.93
cpu  time for SCC    0.00 s
wall time for SCC    0.01 s
speedup  0.96
cpu  time for grad    0.01 s
wall time for grad    0.01 s
 E :    -45.33015017  G :  0.067482    pred/act E change: -0.997D-02 -0.262D-03
Maxdispl :   0.1646   ||displ|| :   0.3554   Lambda : -0.113D-01
Largest |displ|/coords:  0.1646 (  22)  0.1428 (   4)  0.1166 (  14)
................................................................................
.............................. CYCLE   21 ......................................
................................................................................
   1    -45.5892578 -0.455893E+02  0.445E-01    7.81       0.0  T
   2    -45.5895640 -0.306164E-03  0.322E-01    7.84       1.0  T
   3    -45.5897331 -0.169149E-03  0.960E-02    7.90       1.0  T
   4    -45.5897578 -0.246376E-04  0.250E-02    7.89       1.0  T
   5    -45.5897588 -0.106005E-05  0.101E-02    7.89       2.1  T
   6    -45.5897589 -0.501520E-07  0.496E-03    7.89       4.2  T
   7    -45.5897589 -0.458669E-07  0.125E-03    7.89      16.6  T
speedup  0.93
cpu  time for SCC    0.00 s
wall time for SCC    0.01 s
speedup  0.96
cpu  time for grad    0.01 s
wall time for grad    0.01 s
 E :    -45.32912110  G :  0.087091    pred/act E change: -0.536D-02  0.103D-02
Maxdispl :   0.1887   ||displ|| :   0.3699   Lambda : -0.151D-01
Largest |displ|/coords:  0.1887 (   4)  0.1476 (  22)  0.1322 (  14)
................................................................................
.............................. CYCLE   22 ......................................
................................................................................
   1    -45.5978905 -0.455979E+02  0.469E-01    8.02       0.0  T
   2    -45.5982029 -0.312395E-03  0.338E-01    7.98       1.0  T
   3    -45.5983640 -0.161074E-03  0.101E-01    7.90       1.0  T
   4    -45.5983905 -0.264409E-04  0.229E-02    7.93       1.0  T
   5    -45.5983914 -0.912987E-06  0.103E-02    7.94       2.0  T
   6    -45.5983915 -0.165175E-06  0.483E-03    7.94       4.3  T
   7    -45.5983916 -0.263268E-07  0.128E-03    7.94      16.3  T
speedup  0.94
cpu  time for SCC    0.00 s
wall time for SCC    0.01 s
speedup  0.96
cpu  time for grad    0.01 s
wall time for grad    0.01 s
 E :    -45.33009365  G :  0.063104    pred/act E change: -0.634D-02 -0.973D-03
Maxdispl :   0.1602   ||displ|| :   0.3468   Lambda : -0.101D-01
Largest |displ|/coords:  0.1602 (  21)  0.1253 (  14)  0.0979 (   6)
................................................................................
.............................. CYCLE   23 ......................................
................................................................................
   1    -45.5815808 -0.455816E+02  0.370E-01    7.77       0.0  T
   2    -45.5817122 -0.131340E-03  0.273E-01    7.79       1.0  T
   3    -45.5817923 -0.801545E-04  0.688E-02    7.83       1.0  T
   4    -45.5818063 -0.140215E-04  0.226E-02    7.81       1.0  T
   5    -45.5818072 -0.820511E-06  0.771E-03    7.81       2.7  T
   6    -45.5818072 -0.496815E-07  0.372E-03    7.81       5.6  T
   7    -45.5818072 -0.227340E-07  0.113E-03    7.81      18.5  T
speedup  0.93
cpu  time for SCC    0.01 s
wall time for SCC    0.01 s
speedup  0.96
cpu  time for grad    0.01 s
wall time for grad    0.01 s
 E :    -45.33185087  G :  0.050079    pred/act E change: -0.860D-02 -0.176D-02
Maxdispl :   0.1200   ||displ|| :   0.2717   Lambda : -0.611D-02
Largest |displ|/coords:  0.1200 (  21)  0.0878 (   6)  0.0773 (  16)
................................................................................
.............................. CYCLE   24 ......................................
................................................................................
   1    -45.6017500 -0.456017E+02  0.302E-01    7.97       0.0  T
   2    -45.6018340 -0.840540E-04  0.224E-01    7.96       1.0  T
   3    -45.6018830 -0.489565E-04  0.583E-02    7.94       1.0  T
   4    -45.6018923 -0.930296E-05  0.215E-02    7.95       1.0  T
   5    -45.6018930 -0.722386E-06  0.580E-03    7.95       3.6  T
   6    -45.6018930 -0.354083E-07  0.316E-03    7.95       6.6  T
speedup  0.87
cpu  time for SCC    0.00 s
wall time for SCC    0.00 s
speedup  0.93
cpu  time for grad    0.01 s
wall time for grad    0.01 s
 E :    -45.33247168  G :  0.043363    pred/act E change: -0.566D-02 -0.621D-03
Maxdispl :   0.1032   ||displ|| :   0.1847   Lambda : -0.271D-02
Largest |displ|/coords:  0.1032 (   6)  0.0626 (  18)  0.0542 (  23)
................................................................................
.............................. CYCLE   25 ......................................
................................................................................
   1    -45.5940473 -0.455940E+02  0.188E-01    7.86       0.0  T
   2    -45.5940764 -0.291077E-04  0.139E-01    7.85       1.0  T
   3    -45.5940935 -0.170770E-04  0.351E-02    7.85       1.0  T
   4    -45.5940971 -0.366232E-05  0.150E-02    7.85       1.4  T
   5    -45.5940974 -0.301019E-06  0.350E-03    7.85       6.0  T
   6    -45.5940974 -0.159277E-07  0.211E-03    7.85       9.9  T
speedup  1.09
cpu  time for SCC    0.01 s
wall time for SCC    0.00 s
speedup  1.03
cpu  time for grad    0.01 s
wall time for grad    0.01 s
 E :    -45.33378734  G :  0.015513    pred/act E change: -0.328D-02 -0.132D-02
Maxdispl :   0.0717   ||displ|| :   0.1712   Lambda : -0.860D-03
Largest |displ|/coords:  0.0717 (  11)  0.0603 (  19)  0.0557 (   1)

generating ANC from model Hessian ...
 Shifting diagonal of input Hessian by   4.893841312271841E-003
 Lowest  eigenvalues of input Hessian
   -0.000000   -0.000000    0.000000    0.000000    0.000000    0.000000
    0.005000    0.005053    0.005110    0.005255    0.005412    0.005506
    0.005717    0.006511    0.006688    0.007028    0.007238    0.007531
 Highest eigenvalues
    1.385343    1.394121    1.407136    2.455653    3.360227    3.830858
 
cpu  time for ANC gen    0.01 s
wall time for ANC gen    0.01 s
................................................................................
.............................. CYCLE   26 ......................................
................................................................................
   1    -45.5905359 -0.455905E+02  0.160E-01    7.85       0.0  T
   2    -45.5905472 -0.112773E-04  0.120E-01    7.86       1.0  T
   3    -45.5905552 -0.804483E-05  0.211E-02    7.87       1.0  T
   4    -45.5905568 -0.159666E-05  0.701E-03    7.86       3.0  T
   5    -45.5905569 -0.749112E-07  0.246E-03    7.86       8.5  T
   6    -45.5905569 -0.394559E-08  0.126E-03    7.86      16.6  T
   7    -45.5905569 -0.273544E-08  0.327E-04    7.86      63.8  T
   8    -45.5905569 -0.249486E-09  0.100E-04    7.86     208.2  T
speedup  0.98
cpu  time for SCC    0.01 s
wall time for SCC    0.01 s
speedup  0.94
cpu  time for grad    0.01 s
wall time for grad    0.01 s
 E :    -45.33393609  G :  0.024020    pred/act E change:  0.000D+00 -0.149D-03
Maxdispl :   0.1622   ||displ|| :   0.3641   Lambda : -0.193D-02
Largest |displ|/coords:  0.1622 (  10)  0.1534 (  16)  0.1383 (   6)
................................................................................
.............................. CYCLE   27 ......................................
................................................................................
   1    -45.5935711 -0.455936E+02  0.345E-01    7.93       0.0  T
   2    -45.5935877 -0.165828E-04  0.261E-01    7.92       1.0  T
   3    -45.5936045 -0.167896E-04  0.221E-02    7.90       1.0  T
   4    -45.5936061 -0.156337E-05  0.100E-02    7.90       2.1  T
   5    -45.5936062 -0.852806E-07  0.334E-03    7.91       6.2  T
   6    -45.5936062 -0.730167E-08  0.153E-03    7.91      13.7  T
speedup  0.87
cpu  time for SCC    0.00 s
wall time for SCC    0.00 s
speedup  0.93
cpu  time for grad    0.01 s
wall time for grad    0.01 s
 E :    -45.33502125  G :  0.019753    pred/act E change:  0.000D+00 -0.109D-02
Maxdispl :   0.1444   ||displ|| :   0.4107   Lambda : -0.184D-02
Largest |displ|/coords:  0.1444 (  15)  0.1302 (  16)  0.1292 (  10)
................................................................................
.............................. CYCLE   28 ......................................
................................................................................
   1    -45.5979609 -0.455980E+02  0.414E-01    7.95       0.0  T
   2    -45.5979844 -0.234633E-04  0.313E-01    7.94       1.0  T
   3    -45.5980105 -0.260806E-04  0.275E-02    7.92       1.0  T
   4    -45.5980124 -0.191903E-05  0.815E-03    7.93       2.6  T
   5    -45.5980124 -0.507250E-07  0.442E-03    7.93       4.7  T
   6    -45.5980125 -0.269683E-07  0.156E-03    7.93      13.4  T
   7    -45.5980125 -0.427934E-08  0.480E-04    7.93      43.4  T
speedup  0.93
cpu  time for SCC    0.01 s
wall time for SCC    0.01 s
speedup  0.96
cpu  time for grad    0.01 s
wall time for grad    0.01 s
 E :    -45.33601821  G :  0.012276    pred/act E change: -0.109D-02 -0.997D-03
Maxdispl :   0.1827   ||displ|| :   0.4101   Lambda : -0.109D-02
Largest |displ|/coords:  0.1827 (  16)  0.1731 (   6)  0.1635 (  10)
................................................................................
.............................. CYCLE   29 ......................................
................................................................................
   1    -45.5960499 -0.455960E+02  0.286E-01    7.93       0.0  T
   2    -45.5960635 -0.135982E-04  0.216E-01    7.93       1.0  T
   3    -45.5960800 -0.164962E-04  0.261E-02    7.92       1.0  T
   4    -45.5960809 -0.931896E-06  0.747E-03    7.92       2.8  T
   5    -45.5960810 -0.870099E-07  0.358E-03    7.92       5.8  T
   6    -45.5960810 -0.187225E-07  0.172E-03    7.92      12.1  T
   7    -45.5960810 -0.392670E-08  0.436E-04    7.92      47.8  T
speedup  0.94
cpu  time for SCC    0.00 s
wall time for SCC    0.01 s
speedup  0.96
cpu  time for grad    0.01 s
wall time for grad    0.01 s
 E :    -45.33676185  G :  0.021011    pred/act E change: -0.108D-02 -0.744D-03
Maxdispl :   0.2422   ||displ|| :   0.5591   Lambda : -0.153D-02
Largest |displ|/coords:  0.2422 (  16)  0.2182 (  10)  0.1756 (   5)
................................................................................
.............................. CYCLE   30 ......................................
................................................................................
   1    -45.5974104 -0.455974E+02  0.310E-01    7.92       0.0  T
   2    -45.5974361 -0.256681E-04  0.231E-01    7.90       1.0  T
   3    -45.5974645 -0.283589E-04  0.386E-02    7.87       1.0  T
   4    -45.5974668 -0.230655E-05  0.928E-03    7.88       2.2  T
   5    -45.5974669 -0.111507E-06  0.495E-03    7.88       4.2  T
   6    -45.5974669 -0.300301E-07  0.194E-03    7.88      10.8  T
speedup  0.87
cpu  time for SCC    0.00 s
wall time for SCC    0.00 s
speedup  1.03
cpu  time for grad    0.01 s
wall time for grad    0.01 s
 E :    -45.33750463  G :  0.016610    pred/act E change: -0.639D-03 -0.743D-03
Maxdispl :   0.1966   ||displ|| :   0.4742   Lambda : -0.125D-02
Largest |displ|/coords:  0.1966 (  16)  0.1822 (   5)  0.1682 (   6)
................................................................................
.............................. CYCLE   31 ......................................
................................................................................
   1    -45.5887842 -0.455888E+02  0.323E-01    7.86       0.0  T
   2    -45.5888035 -0.193004E-04  0.243E-01    7.87       1.0  T
   3    -45.5888215 -0.179724E-04  0.283E-02    7.87       1.0  T
   4    -45.5888238 -0.227923E-05  0.875E-03    7.86       2.4  T
   5    -45.5888239 -0.909540E-07  0.417E-03    7.86       5.0  T
   6    -45.5888239 -0.227851E-07  0.213E-03    7.86       9.8  T
   7    -45.5888239 -0.725233E-08  0.514E-04    7.86      40.6  T
speedup  0.94
cpu  time for SCC    0.00 s
wall time for SCC    0.01 s
speedup  1.03
cpu  time for grad    0.01 s
wall time for grad    0.01 s
 E :    -45.33776660  G :  0.031882    pred/act E change: -0.101D-02 -0.262D-03
Maxdispl :   0.1295   ||displ|| :   0.3505   Lambda : -0.245D-02
Largest |displ|/coords:  0.1295 (   2)  0.1224 (  12)  0.1149 (  15)
................................................................................
.............................. CYCLE   32 ......................................
................................................................................
   1    -45.5963929 -0.455964E+02  0.319E-01    7.98       0.0  T
   2    -45.5964240 -0.310927E-04  0.242E-01    8.00       1.0  T
   3    -45.5964528 -0.288123E-04  0.322E-02    8.03       1.0  T
   4    -45.5964563 -0.357546E-05  0.978E-03    8.02       2.1  T
   5    -45.5964564 -0.843994E-07  0.447E-03    8.01       4.7  T
   6    -45.5964564 -0.164205E-07  0.177E-03    8.01      11.8  T
speedup  1.09
cpu  time for SCC    0.00 s
wall time for SCC    0.00 s
speedup  1.01
cpu  time for grad    0.01 s
wall time for grad    0.01 s
 E :    -45.33809022  G :  0.036911    pred/act E change: -0.768D-03 -0.324D-03
Maxdispl :   0.1743   ||displ|| :   0.4188   Lambda : -0.345D-02
Largest |displ|/coords:  0.1743 (   3)  0.1635 (  11)  0.1494 (   6)
................................................................................
.............................. CYCLE   33 ......................................
................................................................................
   1    -45.6100646 -0.456101E+02  0.546E-01    8.29       0.0  T
   2    -45.6101613 -0.966643E-04  0.415E-01    8.25       1.0  T
   3    -45.6102310 -0.696965E-04  0.571E-02    8.18       1.0  T
   4    -45.6102456 -0.146260E-04  0.109E-02    8.24       1.9  T
   5    -45.6102457 -0.137188E-06  0.605E-03    8.24       3.4  T
   6    -45.6102457 -0.975037E-08  0.276E-03    8.24       7.6  T
   7    -45.6102457 -0.712233E-08  0.409E-04    8.24      51.0  T
speedup  0.94
cpu  time for SCC    0.00 s
wall time for SCC    0.01 s
speedup  0.96
cpu  time for grad    0.01 s
wall time for grad    0.01 s
 E :    -45.33743528  G :  0.051590    pred/act E change: -0.137D-02  0.655D-03
Maxdispl :   0.1812   ||displ|| :   0.4664   Lambda : -0.726D-02
Largest |displ|/coords:  0.1812 (  11)  0.1744 (   6)  0.1583 (   2)
................................................................................
.............................. CYCLE   34 ......................................
................................................................................
   1    -45.5915570 -0.455916E+02  0.561E-01    7.89       0.0  T
   2    -45.5916999 -0.142878E-03  0.426E-01    7.93       1.0  T
   3    -45.5918162 -0.116287E-03  0.699E-02    8.00       1.0  T
   4    -45.5918350 -0.188169E-04  0.207E-02    7.94       1.0  T
   5    -45.5918355 -0.517425E-06  0.867E-03    7.94       2.4  T
   6    -45.5918356 -0.652968E-07  0.433E-03    7.94       4.8  T
   7    -45.5918356 -0.287307E-07  0.104E-03    7.94      20.1  T
speedup  0.93
cpu  time for SCC    0.01 s
wall time for SCC    0.01 s
speedup  1.03
cpu  time for grad    0.01 s
wall time for grad    0.01 s
 E :    -45.33680995  G :  0.064505    pred/act E change: -0.203D-02  0.625D-03
Maxdispl :   0.1652   ||displ|| :   0.4150   Lambda : -0.969D-02
Largest |displ|/coords:  0.1652 (  11)  0.1592 (  12)  0.1298 (  24)
................................................................................
.............................. CYCLE   35 ......................................
................................................................................
   1    -45.5997408 -0.455997E+02  0.547E-01    8.24       0.0  T
   2    -45.5998688 -0.127942E-03  0.415E-01    8.21       1.0  T
   3    -45.5999690 -0.100191E-03  0.667E-02    8.15       1.0  T
   4    -45.5999853 -0.163285E-04  0.167E-02    8.20       1.3  T
   5    -45.5999856 -0.329633E-06  0.737E-03    8.21       2.8  T
   6    -45.5999857 -0.418107E-07  0.350E-03    8.21       6.0  T
   7    -45.5999857 -0.174067E-07  0.843E-04    8.21      24.7  T
speedup  0.94
cpu  time for SCC    0.00 s
wall time for SCC    0.01 s
speedup  1.03
cpu  time for grad    0.01 s
wall time for grad    0.01 s
 E :    -45.33806335  G :  0.050812    pred/act E change: -0.442D-02 -0.125D-02
Maxdispl :   0.1353   ||displ|| :   0.3076   Lambda : -0.569D-02
Largest |displ|/coords:  0.1353 (  17)  0.0951 (  13)  0.0916 (  20)
................................................................................
.............................. CYCLE   36 ......................................
................................................................................
   1    -45.6000042 -0.456000E+02  0.421E-01    8.09       0.0  T
   2    -45.6000845 -0.803198E-04  0.320E-01    8.11       1.0  T
   3    -45.6001489 -0.644259E-04  0.517E-02    8.15       1.0  T
   4    -45.6001596 -0.106869E-04  0.139E-02    8.13       1.5  T
   5    -45.6001599 -0.259800E-06  0.623E-03    8.13       3.3  T
   6    -45.6001599 -0.238904E-07  0.284E-03    8.13       7.3  T
   7    -45.6001599 -0.139039E-07  0.699E-04    8.13      29.8  T
speedup  0.93
cpu  time for SCC    0.00 s
wall time for SCC    0.01 s
speedup  1.03
cpu  time for grad    0.01 s
wall time for grad    0.01 s
 E :    -45.33918393  G :  0.035520    pred/act E change: -0.568D-02 -0.112D-02
Maxdispl :   0.1824   ||displ|| :   0.2673   Lambda : -0.187D-02
Largest |displ|/coords:  0.1824 (   5)  0.0991 (  16)  0.0676 (   6)
................................................................................
.............................. CYCLE   37 ......................................
................................................................................
   1    -45.5951066 -0.455951E+02  0.258E-01    8.12       0.0  T
   2    -45.5951235 -0.168519E-04  0.196E-01    8.12       1.0  T
   3    -45.5951379 -0.143965E-04  0.245E-02    8.12       1.0  T
   4    -45.5951399 -0.204254E-05  0.911E-03    8.12       2.3  T
   5    -45.5951401 -0.140712E-06  0.298E-03    8.12       7.0  T
   6    -45.5951401 -0.649542E-08  0.175E-03    8.12      11.9  T
speedup  1.09
cpu  time for SCC    0.01 s
wall time for SCC    0.00 s
speedup  1.02
cpu  time for grad    0.01 s
wall time for grad    0.01 s
 E :    -45.34028257  G :  0.021019    pred/act E change: -0.311D-02 -0.110D-02
Maxdispl :   0.1494   ||displ|| :   0.3234   Lambda : -0.147D-02
Largest |displ|/coords:  0.1494 (  16)  0.1343 (  11)  0.1160 (  13)
................................................................................
.............................. CYCLE   38 ......................................
................................................................................
   1    -45.5975905 -0.455976E+02  0.251E-01    8.28       0.0  T
   2    -45.5976136 -0.230903E-04  0.189E-01    8.26       1.0  T
   3    -45.5976282 -0.146151E-04  0.289E-02    8.24       1.0  T
   4    -45.5976316 -0.337340E-05  0.821E-03    8.26       2.5  T
   5    -45.5976317 -0.930402E-07  0.312E-03    8.27       6.7  T
   6    -45.5976317 -0.630440E-08  0.171E-03    8.27      12.2  T
speedup  0.85
cpu  time for SCC    0.00 s
wall time for SCC    0.00 s
speedup  1.01
cpu  time for grad    0.01 s
wall time for grad    0.01 s
 E :    -45.34077708  G :  0.031663    pred/act E change: -0.100D-02 -0.495D-03
Maxdispl :   0.1675   ||displ|| :   0.3186   Lambda : -0.136D-02
Largest |displ|/coords:  0.1675 (   5)  0.1237 (  16)  0.0932 (   6)
................................................................................
.............................. CYCLE   39 ......................................
................................................................................
   1    -45.5963995 -0.455964E+02  0.155E-01    8.29       0.0  T
   2    -45.5964117 -0.122618E-04  0.118E-01    8.30       1.0  T
   3    -45.5964196 -0.789516E-05  0.205E-02    8.31       1.0  T
   4    -45.5964217 -0.210735E-05  0.888E-03    8.31       2.3  T
   5    -45.5964218 -0.111689E-06  0.270E-03    8.30       7.7  T
   6    -45.5964218 -0.121826E-07  0.158E-03    8.30      13.2  T
speedup  1.09
cpu  time for SCC    0.00 s
wall time for SCC    0.00 s
speedup  1.01
cpu  time for grad    0.01 s
wall time for grad    0.01 s
 E :    -45.34207736  G :  0.026170    pred/act E change: -0.813D-03 -0.130D-02
Maxdispl :   0.3113   ||displ|| :   0.7524   Lambda : -0.457D-02
Largest |displ|/coords:  0.3113 (   5)  0.3032 (  16)  0.2346 (  17)
................................................................................
.............................. CYCLE   40 ......................................
................................................................................
   1    -45.5995886 -0.455996E+02  0.386E-01    8.58       0.0  T
   2    -45.5997684 -0.179829E-03  0.292E-01    8.61       1.0  T
   3    -45.5998654 -0.969906E-04  0.834E-02    8.65       1.0  T
   4    -45.5998902 -0.247717E-04  0.288E-02    8.64       1.0  T
   5    -45.5998913 -0.111984E-05  0.837E-03    8.63       2.5  T
   6    -45.5998914 -0.987795E-07  0.501E-03    8.63       4.2  T
   7    -45.5998914 -0.251578E-07  0.179E-03    8.63      11.6  T
speedup  0.93
cpu  time for SCC    0.00 s
wall time for SCC    0.01 s
speedup  0.93
cpu  time for grad    0.01 s
wall time for grad    0.01 s
 E :    -45.34535209  G :  0.046678    pred/act E change: -0.751D-03 -0.327D-02
Maxdispl :   0.3427   ||displ|| :   0.6959   Lambda : -0.381D-02
Largest |displ|/coords:  0.3427 (   5)  0.3176 (  16)  0.1854 (  11)
................................................................................
.............................. CYCLE   41 ......................................
................................................................................
   1    -45.5976072 -0.455976E+02  0.389E-01    8.81       0.0  T
   2    -45.5977590 -0.151831E-03  0.293E-01    8.84       1.0  T
   3    -45.5978327 -0.736366E-04  0.749E-02    8.88       1.0  T
   4    -45.5978549 -0.221833E-04  0.270E-02    8.88       1.0  T
   5    -45.5978559 -0.100944E-05  0.743E-03    8.88       2.8  T
   6    -45.5978560 -0.100253E-06  0.452E-03    8.88       4.6  T
   7    -45.5978560 -0.256909E-07  0.170E-03    8.88      12.3  T
speedup  0.93
cpu  time for SCC    0.00 s
wall time for SCC    0.01 s
speedup  1.01
cpu  time for grad    0.01 s
wall time for grad    0.01 s
 E :    -45.34870053  G :  0.062293    pred/act E change: -0.358D-02 -0.335D-02
Maxdispl :   0.7836   ||displ|| :   1.2266   Lambda : -0.712D-02
Largest |displ|/coords:  0.7836 (  16)  0.3662 (   5)  0.2940 (  21)
................................................................................
.............................. CYCLE   42 ......................................
................................................................................
   1    -45.5979990 -0.455980E+02  0.734E-01    9.53       0.0  T
   2    -45.5985120 -0.513006E-03  0.548E-01    9.54       1.0  T
   3    -45.5988326 -0.320644E-03  0.131E-01    9.47       1.0  T
   4    -45.5988955 -0.628532E-04  0.485E-02    9.47       1.0  T
   5    -45.5988988 -0.330620E-05  0.143E-02    9.48       1.5  T
   6    -45.5988991 -0.296421E-06  0.883E-03    9.48       2.4  T
   7    -45.5988992 -0.739675E-07  0.249E-03    9.48       8.4  T
   8    -45.5988992 -0.139683E-07  0.750E-04    9.48      27.8  T
speedup  1.15
cpu  time for SCC    0.01 s
wall time for SCC    0.01 s
speedup  1.04
cpu  time for grad    0.01 s
wall time for grad    0.01 s
 E :    -45.34664827  G :  0.102051    pred/act E change: -0.282D-02  0.205D-02
Maxdispl :   0.3274   ||displ|| :   0.8261   Lambda : -0.319D-01
Largest |displ|/coords:  0.3274 (  16)  0.3214 (   2)  0.2465 (   6)
................................................................................
.............................. CYCLE   43 ......................................
................................................................................
   1    -45.5930496 -0.455930E+02  0.675E-01    8.98       0.0  T
   2    -45.5935757 -0.526059E-03  0.502E-01    8.97       1.0  T
   3    -45.5938903 -0.314632E-03  0.135E-01    8.78       1.0  T
   4    -45.5939523 -0.619217E-04  0.449E-02    8.83       1.0  T
   5    -45.5939557 -0.344624E-05  0.146E-02    8.85       1.4  T
   6    -45.5939559 -0.234845E-06  0.822E-03    8.85       2.5  T
   7    -45.5939560 -0.704529E-07  0.240E-03    8.85       8.7  T
   8    -45.5939560 -0.103824E-07  0.743E-04    8.85      28.1  T
speedup  0.98
cpu  time for SCC    0.01 s
wall time for SCC    0.01 s
speedup  0.96
cpu  time for grad    0.01 s
wall time for grad    0.01 s
 E :    -45.35121531  G :  0.058803    pred/act E change: -0.892D-02 -0.457D-02
Maxdispl :   0.1909   ||displ|| :   0.5376   Lambda : -0.186D-01
Largest |displ|/coords:  0.1909 (  21)  0.1588 (  49)  0.1497 (  14)
................................................................................
.............................. CYCLE   44 ......................................
................................................................................
   1    -45.6407490 -0.456407E+02  0.558E-01    9.93       0.0  T
   2    -45.6414685 -0.719562E-03  0.406E-01    9.89       1.0  T
   3    -45.6418371 -0.368578E-03  0.162E-01    9.76       1.0  T
   4    -45.6418930 -0.559465E-04  0.454E-02    9.73       1.0  T
   5    -45.6418958 -0.275491E-05  0.118E-02    9.74       1.8  T
   6    -45.6418960 -0.165729E-06  0.614E-03    9.74       3.4  T
   7    -45.6418960 -0.624296E-07  0.226E-03    9.74       9.2  T
   8    -45.6418960 -0.735837E-08  0.648E-04    9.74      32.2  T
speedup  1.00
cpu  time for SCC    0.01 s
wall time for SCC    0.01 s
speedup  0.97
cpu  time for grad    0.01 s
wall time for grad    0.01 s
 E :    -45.35082415  G :  0.138198    pred/act E change: -0.269D-01  0.391D-03
Maxdispl :   0.1823   ||displ|| :   0.5086   Lambda : -0.411D-01
Largest |displ|/coords:  0.1823 (  16)  0.1541 (   6)  0.1417 (  14)
................................................................................
.............................. CYCLE   45 ......................................
................................................................................
   1    -45.5659693 -0.455660E+02  0.648E-01    8.82       0.0  T
   2    -45.5669291 -0.959862E-03  0.466E-01    8.82       1.0  T
   3    -45.5674171 -0.487927E-03  0.185E-01    8.80       1.0  T
   4    -45.5674821 -0.650308E-04  0.512E-02    8.76       1.0  T
   5    -45.5674866 -0.450746E-05  0.160E-02    8.75       1.3  T
   6    -45.5674873 -0.645347E-06  0.960E-03    8.75       2.2  T
   7    -45.5674874 -0.160066E-06  0.320E-03    8.75       6.5  T
   8    -45.5674874 -0.142158E-07  0.810E-04    8.75      25.7  T
speedup  0.98
cpu  time for SCC    0.01 s
wall time for SCC    0.01 s
speedup  0.95
cpu  time for grad    0.01 s
wall time for grad    0.01 s
 E :    -45.34600519  G :  0.121265    pred/act E change: -0.120D-01  0.482D-02
Maxdispl :   0.1565   ||displ|| :   0.4487   Lambda : -0.361D-01
Largest |displ|/coords:  0.1565 (   2)  0.1406 (   6)  0.1395 (  16)
................................................................................
.............................. CYCLE   46 ......................................
................................................................................
   1    -45.6333969 -0.456334E+02  0.549E-01    9.50       0.0  T
   2    -45.6339818 -0.584923E-03  0.401E-01    9.48       1.0  T
   3    -45.6343318 -0.350010E-03  0.141E-01    9.42       1.0  T
   4    -45.6343768 -0.450310E-04  0.404E-02    9.43       1.0  T
   5    -45.6343800 -0.313982E-05  0.139E-02    9.43       1.5  T
   6    -45.6343801 -0.106436E-06  0.622E-03    9.43       3.4  T
   7    -45.6343802 -0.880995E-07  0.202E-03    9.43      10.3  T
   8    -45.6343802 -0.739914E-08  0.655E-04    9.43      31.8  T
speedup  0.98
cpu  time for SCC    0.01 s
wall time for SCC    0.01 s
speedup  0.96
cpu  time for grad    0.01 s
wall time for grad    0.01 s
 E :    -45.35767481  G :  0.076826    pred/act E change: -0.259D-01 -0.117D-01
Maxdispl :   0.1971   ||displ|| :   0.3877   Lambda : -0.132D-01
Largest |displ|/coords:  0.1971 (  11)  0.1778 (   5)  0.0969 (   4)
................................................................................
.............................. CYCLE   47 ......................................
................................................................................
   1    -45.6027696 -0.456028E+02  0.395E-01    9.37       0.0  T
   2    -45.6029736 -0.203986E-03  0.290E-01    9.38       1.0  T
   3    -45.6030965 -0.122958E-03  0.847E-02    9.38       1.0  T
   4    -45.6031151 -0.186053E-04  0.203E-02    9.38       1.0  T
   5    -45.6031156 -0.496074E-06  0.865E-03    9.38       2.4  T
   6    -45.6031157 -0.101443E-06  0.398E-03    9.38       5.2  T
   7    -45.6031157 -0.209553E-07  0.114E-03    9.38      18.2  T
speedup  0.94
cpu  time for SCC    0.00 s
wall time for SCC    0.01 s
speedup  1.02
cpu  time for grad    0.01 s
wall time for grad    0.01 s
 E :    -45.35888405  G :  0.068944    pred/act E change: -0.217D-01 -0.121D-02
Maxdispl :   0.1768   ||displ|| :   0.3971   Lambda : -0.109D-01
Largest |displ|/coords:  0.1768 (   3)  0.1537 (   2)  0.1225 (   4)
................................................................................
.............................. CYCLE   48 ......................................
................................................................................
   1    -45.6199071 -0.456199E+02  0.416E-01    9.22       0.0  T
   2    -45.6200325 -0.125398E-03  0.310E-01    9.22       1.0  T
   3    -45.6201161 -0.835748E-04  0.671E-02    9.22       1.0  T
   4    -45.6201302 -0.140981E-04  0.147E-02    9.22       1.4  T
   5    -45.6201304 -0.201119E-06  0.743E-03    9.23       2.8  T
   6    -45.6201304 -0.283431E-07  0.274E-03    9.23       7.6  T
   7    -45.6201304 -0.119399E-07  0.743E-04    9.23      28.1  T
speedup  1.11
cpu  time for SCC    0.01 s
wall time for SCC    0.01 s
speedup  1.01
cpu  time for grad    0.01 s
wall time for grad    0.01 s
 E :    -45.36094003  G :  0.043416    pred/act E change: -0.757D-02 -0.206D-02
Maxdispl :   0.0836   ||displ|| :   0.2164   Lambda : -0.381D-02
Largest |displ|/coords:  0.0836 (   5)  0.0770 (   8)  0.0701 (   3)
................................................................................
.............................. CYCLE   49 ......................................
................................................................................
   1    -45.6256451 -0.456256E+02  0.198E-01    9.38       0.0  T
   2    -45.6256801 -0.350684E-04  0.148E-01    9.37       1.0  T
   3    -45.6256998 -0.196508E-04  0.364E-02    9.35       1.0  T
   4    -45.6257039 -0.409060E-05  0.959E-03    9.35       2.2  T
   5    -45.6257040 -0.154162E-06  0.315E-03    9.35       6.6  T
   6    -45.6257040 -0.588179E-08  0.177E-03    9.35      11.8  T
speedup  1.09
cpu  time for SCC    0.00 s
wall time for SCC    0.00 s
speedup  1.00
cpu  time for grad    0.01 s
wall time for grad    0.01 s
 E :    -45.36293763  G :  0.025709    pred/act E change: -0.630D-02 -0.200D-02
Maxdispl :   0.1827   ||displ|| :   0.3389   Lambda : -0.291D-02
Largest |displ|/coords:  0.1827 (   5)  0.1510 (  10)  0.1134 (   8)
................................................................................
.............................. CYCLE   50 ......................................
................................................................................
   1    -45.6127466 -0.456127E+02  0.411E-01    9.36       0.0  T
   2    -45.6128152 -0.685796E-04  0.310E-01    9.35       1.0  T
   3    -45.6128676 -0.523782E-04  0.492E-02    9.34       1.0  T
   4    -45.6128763 -0.877769E-05  0.139E-02    9.35       1.5  T
   5    -45.6128766 -0.277709E-06  0.531E-03    9.35       3.9  T
   6    -45.6128766 -0.304431E-07  0.280E-03    9.35       7.5  T
speedup  0.85
cpu  time for SCC    0.00 s
wall time for SCC    0.00 s
speedup  0.99
cpu  time for grad    0.01 s
wall time for grad    0.01 s
 E :    -45.36242081  G :  0.058308    pred/act E change: -0.199D-02  0.517D-03
Maxdispl :   0.1967   ||displ|| :   0.4022   Lambda : -0.908D-02
Largest |displ|/coords:  0.1967 (  10)  0.1796 (   8)  0.1285 (  17)
................................................................................
.............................. CYCLE   51 ......................................
................................................................................
   1    -45.6216007 -0.456216E+02  0.582E-01    9.18       0.0  T
   2    -45.6217617 -0.160995E-03  0.439E-01    9.19       1.0  T
   3    -45.6218896 -0.127923E-03  0.798E-02    9.21       1.0  T
   4    -45.6219080 -0.184524E-04  0.234E-02    9.20       1.0  T
   5    -45.6219090 -0.955969E-06  0.906E-03    9.20       2.3  T
   6    -45.6219090 -0.357259E-07  0.431E-03    9.20       4.8  T
   7    -45.6219091 -0.421953E-07  0.914E-04    9.20      22.8  T
speedup  1.11
cpu  time for SCC    0.01 s
wall time for SCC    0.01 s
speedup  1.02
cpu  time for grad    0.01 s
wall time for grad    0.01 s
 E :    -45.36243306  G :  0.061735    pred/act E change: -0.162D-02 -0.122D-04
Maxdispl :   0.1104   ||displ|| :   0.2631   Lambda : -0.566D-02
Largest |displ|/coords:  0.1104 (   5)  0.0973 (   2)  0.0963 (  17)
................................................................................
.............................. CYCLE   52 ......................................
................................................................................
   1    -45.6266011 -0.456266E+02  0.335E-01    9.38       0.0  T
   2    -45.6266569 -0.558585E-04  0.253E-01    9.37       1.0  T
   3    -45.6266985 -0.415307E-04  0.447E-02    9.34       1.0  T
   4    -45.6267059 -0.745533E-05  0.136E-02    9.35       1.5  T
   5    -45.6267062 -0.293011E-06  0.460E-03    9.35       4.5  T
   6    -45.6267062 -0.173152E-07  0.241E-03    9.35       8.6  T
speedup  0.87
cpu  time for SCC    0.00 s
wall time for SCC    0.00 s
speedup  1.00
cpu  time for grad    0.01 s
wall time for grad    0.01 s
 E :    -45.36468545  G :  0.027887    pred/act E change: -0.528D-02 -0.225D-02
Maxdispl :   0.0744   ||displ|| :   0.1595   Lambda : -0.150D-02
Largest |displ|/coords:  0.0744 (   5)  0.0585 (   9)  0.0464 (   4)

generating ANC from model Hessian ...
 Shifting diagonal of input Hessian by   4.707798030174014E-003
 Lowest  eigenvalues of input Hessian
   -0.000000   -0.000000    0.000000    0.000000    0.000000    0.000000
    0.005000    0.005032    0.005211    0.005933    0.006732    0.006799
    0.008345    0.009000    0.009862    0.010862    0.012250    0.013132
 Highest eigenvalues
    1.387808    1.396544    1.451062    2.701800    3.468967    3.655832
 
cpu  time for ANC gen    0.01 s
wall time for ANC gen    0.01 s
................................................................................
.............................. CYCLE   53 ......................................
................................................................................
   1    -45.6186996 -0.456187E+02  0.785E-02    9.28       0.0  T
   2    -45.6187058 -0.615019E-05  0.575E-02    9.29       1.0  T
   3    -45.6187093 -0.352514E-05  0.151E-02    9.29       1.4  T
   4    -45.6187098 -0.531349E-06  0.424E-03    9.29       4.9  T
   5    -45.6187098 -0.286567E-07  0.139E-03    9.29      15.0  T
   6    -45.6187098 -0.234806E-08  0.711E-04    9.29      29.3  T
   7    -45.6187098 -0.872433E-09  0.211E-04    9.29      98.9  T
speedup  1.11
cpu  time for SCC    0.01 s
wall time for SCC    0.01 s
speedup  1.07
cpu  time for grad    0.01 s
wall time for grad    0.01 s
 E :    -45.36538607  G :  0.022319    pred/act E change:  0.000D+00 -0.701D-03
Maxdispl :   0.1761   ||displ|| :   0.3023   Lambda : -0.149D-02
Largest |displ|/coords:  0.1761 (   3)  0.1055 (  13)  0.1010 (  12)
................................................................................
.............................. CYCLE   54 ......................................
................................................................................
   1    -45.6218220 -0.456218E+02  0.254E-01    9.27       0.0  T
   2    -45.6218305 -0.852384E-05  0.192E-01    9.27       1.0  T
   3    -45.6218396 -0.907478E-05  0.205E-02    9.27       1.0  T
   4    -45.6218405 -0.858468E-06  0.683E-03    9.27       3.1  T
   5    -45.6218405 -0.432096E-07  0.269E-03    9.27       7.8  T
   6    -45.6218405 -0.726799E-08  0.115E-03    9.27      18.2  T
speedup  1.06
cpu  time for SCC    0.00 s
wall time for SCC    0.00 s
speedup  0.99
cpu  time for grad    0.01 s
wall time for grad    0.01 s
 E :    -45.36645221  G :  0.013809    pred/act E change:  0.000D+00 -0.107D-02
Maxdispl :   0.2031   ||displ|| :   0.4818   Lambda : -0.194D-02
Largest |displ|/coords:  0.2031 (  13)  0.1707 (   3)  0.1661 (  12)
................................................................................
.............................. CYCLE   55 ......................................
................................................................................
   1    -45.6237423 -0.456237E+02  0.402E-01    9.24       0.0  T
   2    -45.6237626 -0.202521E-04  0.304E-01    9.24       1.0  T
   3    -45.6237834 -0.207851E-04  0.261E-02    9.23       1.0  T
   4    -45.6237851 -0.172057E-05  0.911E-03    9.23       2.3  T
   5    -45.6237852 -0.716931E-07  0.355E-03    9.23       5.9  T
   6    -45.6237852 -0.127973E-07  0.171E-03    9.23      12.2  T
   7    -45.6237852 -0.409995E-08  0.374E-04    9.23      55.7  T
speedup  0.93
cpu  time for SCC    0.00 s
wall time for SCC    0.01 s
speedup  1.01
cpu  time for grad    0.01 s
wall time for grad    0.01 s
 E :    -45.36738168  G :  0.024694    pred/act E change: -0.812D-03 -0.929D-03
Maxdispl :   0.1744   ||displ|| :   0.3507   Lambda : -0.142D-02
Largest |displ|/coords:  0.1744 (  12)  0.1416 (   3)  0.1281 (  11)
................................................................................
.............................. CYCLE   56 ......................................
................................................................................
   1    -45.6235412 -0.456235E+02  0.281E-01    9.20       0.0  T
   2    -45.6235687 -0.274841E-04  0.210E-01    9.20       1.0  T
   3    -45.6235861 -0.173362E-04  0.373E-02    9.21       1.0  T
   4    -45.6235897 -0.365564E-05  0.940E-03    9.20       2.2  T
   5    -45.6235899 -0.200664E-06  0.377E-03    9.20       5.5  T
   6    -45.6235899 -0.989030E-08  0.227E-03    9.20       9.2  T
speedup  0.83
cpu  time for SCC    0.00 s
wall time for SCC    0.00 s
speedup  0.96
cpu  time for grad    0.01 s
wall time for grad    0.01 s
 E :    -45.36810583  G :  0.013115    pred/act E change: -0.120D-02 -0.724D-03
Maxdispl :   0.1576   ||displ|| :   0.2785   Lambda : -0.649D-03
Largest |displ|/coords:  0.1576 (   3)  0.0922 (  12)  0.0886 (  10)
................................................................................
.............................. CYCLE   57 ......................................
................................................................................
   1    -45.6214499 -0.456214E+02  0.214E-01    9.21       0.0  T
   2    -45.6214651 -0.152033E-04  0.161E-01    9.20       1.0  T
   3    -45.6214763 -0.111731E-04  0.246E-02    9.20       1.0  T
   4    -45.6214785 -0.216243E-05  0.617E-03    9.20       3.4  T
   5    -45.6214785 -0.579557E-07  0.280E-03    9.20       7.4  T
   6    -45.6214785 -0.637356E-08  0.160E-03    9.20      13.0  T
speedup  0.85
cpu  time for SCC    0.00 s
wall time for SCC    0.00 s
speedup  0.90
cpu  time for grad    0.01 s
wall time for grad    0.01 s
 E :    -45.36843266  G :  0.018102    pred/act E change: -0.800D-03 -0.327D-03
Maxdispl :   0.2154   ||displ|| :   0.3335   Lambda : -0.106D-02
Largest |displ|/coords:  0.2154 (   3)  0.1089 (   5)  0.1037 (   2)
................................................................................
.............................. CYCLE   58 ......................................
................................................................................
   1    -45.6277565 -0.456278E+02  0.207E-01    9.25       0.0  T
   2    -45.6277745 -0.180114E-04  0.155E-01    9.24       1.0  T
   3    -45.6277883 -0.137459E-04  0.254E-02    9.23       1.0  T
   4    -45.6277904 -0.213896E-05  0.986E-03    9.24       2.1  T
   5    -45.6277906 -0.133916E-06  0.313E-03    9.24       6.7  T
   6    -45.6277906 -0.683103E-08  0.173E-03    9.24      12.1  T
   7    -45.6277906 -0.436501E-08  0.396E-04    9.24      52.7  T
speedup  1.13
cpu  time for SCC    0.01 s
wall time for SCC    0.01 s
speedup  1.01
cpu  time for grad    0.01 s
wall time for grad    0.01 s
 E :    -45.36835322  G :  0.028340    pred/act E change: -0.350D-03  0.794D-04
Maxdispl :   0.0693   ||displ|| :   0.1363   Lambda : -0.923D-03
Largest |displ|/coords:  0.0693 (  12)  0.0524 (  17)  0.0458 (   5)
................................................................................
.............................. CYCLE   59 ......................................
................................................................................
   1    -45.6255153 -0.456255E+02  0.121E-01    9.24       0.0  T
   2    -45.6255190 -0.375950E-05  0.906E-02    9.24       1.0  T
   3    -45.6255220 -0.293320E-05  0.116E-02    9.24       1.8  T
   4    -45.6255224 -0.447032E-06  0.317E-03    9.24       6.6  T
   5    -45.6255224 -0.901571E-08  0.148E-03    9.24      14.1  T
speedup  1.03
cpu  time for SCC    0.00 s
wall time for SCC    0.00 s
speedup  0.97
cpu  time for grad    0.01 s
wall time for grad    0.01 s
 E :    -45.36893148  G :  0.007785    pred/act E change: -0.591D-03 -0.578D-03
Maxdispl :   0.1421   ||displ|| :   0.2604   Lambda : -0.326D-03
Largest |displ|/coords:  0.1421 (   2)  0.1150 (   4)  0.1005 (   1)
................................................................................
.............................. CYCLE   60 ......................................
................................................................................
   1    -45.6216594 -0.456217E+02  0.181E-01    9.25       0.0  T
   2    -45.6216655 -0.609179E-05  0.136E-01    9.24       1.0  T
   3    -45.6216712 -0.574430E-05  0.160E-02    9.24       1.3  T
   4    -45.6216719 -0.716513E-06  0.556E-03    9.24       3.8  T
   5    -45.6216720 -0.365342E-07  0.234E-03    9.24       8.9  T
   6    -45.6216720 -0.732017E-08  0.133E-03    9.24      15.7  T
speedup  0.87
cpu  time for SCC    0.00 s
wall time for SCC    0.00 s
speedup  0.99
cpu  time for grad    0.01 s
wall time for grad    0.01 s
 E :    -45.36902866  G :  0.017270    pred/act E change: -0.470D-03 -0.972D-04
Maxdispl :   0.1148   ||displ|| :   0.2254   Lambda : -0.554D-03
Largest |displ|/coords:  0.1148 (  10)  0.0905 (  12)  0.0823 (   4)
................................................................................
.............................. CYCLE   61 ......................................
................................................................................
   1    -45.6244362 -0.456244E+02  0.134E-01    9.30       0.0  T
   2    -45.6244436 -0.743970E-05  0.101E-01    9.30       1.0  T
   3    -45.6244495 -0.587302E-05  0.175E-02    9.29       1.2  T
   4    -45.6244504 -0.939503E-06  0.835E-03    9.29       2.5  T
   5    -45.6244505 -0.863105E-07  0.199E-03    9.29      10.5  T
   6    -45.6244505 -0.440644E-08  0.129E-03    9.29      16.2  T
speedup  1.09
cpu  time for SCC    0.00 s
wall time for SCC    0.00 s
speedup  0.99
cpu  time for grad    0.01 s
wall time for grad    0.01 s
 E :    -45.36907476  G :  0.020891    pred/act E change: -0.174D-03 -0.461D-04
Maxdispl :   0.0975   ||displ|| :   0.1722   Lambda : -0.769D-03
Largest |displ|/coords:  0.0975 (   3)  0.0645 (   2)  0.0645 (  12)
................................................................................
.............................. CYCLE   62 ......................................
................................................................................
   1    -45.6275049 -0.456275E+02  0.144E-01    9.31       0.0  T
   2    -45.6275176 -0.127125E-04  0.107E-01    9.31       1.0  T
   3    -45.6275253 -0.767199E-05  0.228E-02    9.31       1.0  T
   4    -45.6275268 -0.156798E-05  0.729E-03    9.31       2.9  T
   5    -45.6275270 -0.113935E-06  0.255E-03    9.31       8.2  T
   6    -45.6275270 -0.426869E-08  0.143E-03    9.31      14.6  T
speedup  1.06
cpu  time for SCC    0.00 s
wall time for SCC    0.00 s
speedup  0.98
cpu  time for grad    0.01 s
wall time for grad    0.01 s
 E :    -45.36944009  G :  0.008235    pred/act E change: -0.291D-03 -0.365D-03
Maxdispl :   0.1457   ||displ|| :   0.2992   Lambda : -0.420D-03
Largest |displ|/coords:  0.1457 (   4)  0.1455 (   2)  0.1345 (   3)
................................................................................
.............................. CYCLE   63 ......................................
................................................................................
   1    -45.6242191 -0.456242E+02  0.169E-01    9.29       0.0  T
   2    -45.6242235 -0.446756E-05  0.127E-01    9.29       1.0  T
   3    -45.6242273 -0.379566E-05  0.139E-02    9.28       1.5  T
   4    -45.6242279 -0.561876E-06  0.583E-03    9.28       3.6  T
   5    -45.6242279 -0.372491E-07  0.173E-03    9.28      12.0  T
   6    -45.6242279 -0.324804E-08  0.106E-03    9.28      19.6  T
speedup  0.85
cpu  time for SCC    0.00 s
wall time for SCC    0.00 s
speedup  0.99
cpu  time for grad    0.01 s
wall time for grad    0.01 s
 E :    -45.36964992  G :  0.013438    pred/act E change: -0.396D-03 -0.210D-03
Maxdispl :   0.1895   ||displ|| :   0.3396   Lambda : -0.383D-03
Largest |displ|/coords:  0.1895 (   4)  0.1839 (   2)  0.1169 (   3)
................................................................................
.............................. CYCLE   64 ......................................
[...]
................................................................................
   1    -45.6301435 -0.456301E+02  0.640E-03    9.52       0.0  T
   2    -45.6301435 -0.717180E-08  0.484E-03    9.52       4.3  T
   3    -45.6301435 -0.791615E-08  0.589E-04    9.52      35.4  T
   4    -45.6301435 -0.650495E-09  0.244E-04    9.52      85.5  T
speedup  0.94
cpu  time for SCC    0.00 s
wall time for SCC    0.00 s
speedup  1.07
cpu  time for grad    0.01 s
wall time for grad    0.01 s
 E :    -45.37455467  G :  0.000201    pred/act E change: -0.163D-06 -0.167D-06
Maxdispl :   0.0113   ||displ|| :   0.0169   Lambda : -0.284D-06
Largest |displ|/coords:  0.0113 (   1)  0.0073 (  19)  0.0039 (  13)
................................................................................
.............................. CYCLE  126 ......................................
................................................................................
   1    -45.6301650 -0.456302E+02  0.109E-02    9.52       0.0  T
   2    -45.6301650 -0.184606E-07  0.825E-03    9.52       2.5  T
   3    -45.6301650 -0.227307E-07  0.870E-04    9.52      24.0  T
   4    -45.6301650 -0.132931E-08  0.368E-04    9.52      56.7  T
speedup  1.29
cpu  time for SCC    0.00 s
wall time for SCC    0.00 s
speedup  1.07
cpu  time for grad    0.01 s
wall time for grad    0.01 s
 E :    -45.37455489  G :  0.000252    pred/act E change: -0.102D-06 -0.213D-06
Maxdispl :   0.0079   ||displ|| :   0.0133   Lambda : -0.243D-06
Largest |displ|/coords:  0.0079 (   1)  0.0060 (   2)  0.0049 (  19)
................................................................................
.............................. CYCLE  127 ......................................
................................................................................
   1    -45.6301706 -0.456302E+02  0.864E-03    9.52       0.0  T
   2    -45.6301706 -0.101564E-07  0.654E-03    9.52       3.2  T
   3    -45.6301706 -0.128005E-07  0.609E-04    9.52      34.2  T
   4    -45.6301706 -0.623537E-09  0.243E-04    9.52      85.8  T
speedup  0.94
cpu  time for SCC    0.00 s
wall time for SCC    0.00 s
speedup  0.97
cpu  time for grad    0.01 s
wall time for grad    0.01 s
 E :    -45.37455509  G :  0.000255    pred/act E change: -0.142D-06 -0.205D-06
Maxdispl :   0.0160   ||displ|| :   0.0277   Lambda : -0.430D-06
Largest |displ|/coords:  0.0160 (   1)  0.0111 (  19)  0.0106 (   2)
................................................................................
.............................. CYCLE  128 ......................................
................................................................................
   1    -45.6301227 -0.456301E+02  0.183E-02    9.52       0.0  T
   2    -45.6301227 -0.457167E-07  0.139E-02    9.52       1.5  T
   3    -45.6301228 -0.618845E-07  0.125E-03    9.52      16.7  T
   4    -45.6301228 -0.223069E-08  0.486E-04    9.52      42.9  T
   5    -45.6301228 -0.270795E-09  0.161E-04    9.52     129.1  T
speedup  1.03
cpu  time for SCC    0.00 s
wall time for SCC    0.00 s
speedup  1.01
cpu  time for grad    0.01 s
wall time for grad    0.01 s
 E :    -45.37455539  G :  0.000254    pred/act E change: -0.122D-06 -0.304D-06
Maxdispl :   0.0118   ||displ|| :   0.0170   Lambda : -0.274D-06
Largest |displ|/coords:  0.0118 (   2)  0.0063 (   1)  0.0053 (  19)
................................................................................
.............................. CYCLE  129 ......................................
................................................................................
   1    -45.6301148 -0.456301E+02  0.107E-02    9.52       0.0  T
   2    -45.6301148 -0.138447E-07  0.806E-03    9.52       2.6  T
   3    -45.6301148 -0.185163E-07  0.701E-04    9.52      29.7  T
   4    -45.6301148 -0.646416E-09  0.250E-04    9.52      83.5  T
speedup  0.94
cpu  time for SCC    0.00 s
wall time for SCC    0.00 s
speedup  0.97
cpu  time for grad    0.01 s
wall time for grad    0.01 s
 E :    -45.37455560  G :  0.000214    pred/act E change: -0.215D-06 -0.204D-06
Maxdispl :   0.0096   ||displ|| :   0.0160   Lambda : -0.299D-06
Largest |displ|/coords:  0.0096 (   2)  0.0059 (  19)  0.0039 (   4)
................................................................................
.............................. CYCLE  130 ......................................
................................................................................
   1    -45.6301023 -0.456301E+02  0.104E-02    9.52       0.0  T
   2    -45.6301023 -0.152228E-07  0.781E-03    9.52       2.7  T
   3    -45.6301023 -0.201637E-07  0.849E-04    9.52      24.6  T
   4    -45.6301023 -0.875048E-09  0.256E-04    9.52      81.3  T
speedup  1.25
cpu  time for SCC    0.00 s
wall time for SCC    0.00 s
speedup  1.08
cpu  time for grad    0.01 s
wall time for grad    0.01 s
 E :    -45.37455583  G :  0.000214    pred/act E change: -0.137D-06 -0.235D-06
Maxdispl :   0.0109   ||displ|| :   0.0181   Lambda : -0.317D-06
Largest |displ|/coords:  0.0109 (   2)  0.0067 (  19)  0.0048 (   4)
................................................................................
.............................. CYCLE  131 ......................................
................................................................................
   1    -45.6301236 -0.456301E+02  0.116E-02    9.53       0.0  T
   2    -45.6301236 -0.202821E-07  0.876E-03    9.53       2.4  T
   3    -45.6301236 -0.259399E-07  0.108E-03    9.53      19.4  T
   4    -45.6301236 -0.134650E-08  0.318E-04    9.53      65.6  T
   5    -45.6301236 -0.149250E-09  0.119E-04    9.53     175.6  T
speedup  1.03
cpu  time for SCC    0.00 s
wall time for SCC    0.00 s
speedup  1.00
cpu  time for grad    0.01 s
wall time for grad    0.01 s
 E :    -45.37455607  G :  0.000232    pred/act E change: -0.149D-06 -0.236D-06
Maxdispl :   0.0104   ||displ|| :   0.0231   Lambda : -0.302D-06
Largest |displ|/coords:  0.0104 (  19)  0.0097 (   2)  0.0069 (   4)
................................................................................
.............................. CYCLE  132 ......................................
................................................................................
   1    -45.6301393 -0.456301E+02  0.158E-02    9.53       0.0  T
   2    -45.6301393 -0.404007E-07  0.119E-02    9.53       1.7  T
   3    -45.6301394 -0.510276E-07  0.152E-03    9.53      13.8  T
   4    -45.6301394 -0.295962E-08  0.512E-04    9.53      40.7  T
   5    -45.6301394 -0.345196E-09  0.170E-04    9.53     122.6  T
speedup  0.77
cpu  time for SCC    0.00 s
wall time for SCC    0.00 s
speedup  0.98
cpu  time for grad    0.01 s
wall time for grad    0.01 s
 E :    -45.37455628  G :  0.000255    pred/act E change: -0.158D-06 -0.206D-06
Maxdispl :   0.0083   ||displ|| :   0.0133   Lambda : -0.263D-06
Largest |displ|/coords:  0.0083 (   1)  0.0065 (   2)  0.0043 (   4)
................................................................................
.............................. CYCLE  133 ......................................
................................................................................
   1    -45.6302338 -0.456302E+02  0.768E-03    9.53       0.0  T
   2    -45.6302338 -0.682052E-08  0.576E-03    9.53       3.6  T
   3    -45.6302338 -0.849335E-08  0.718E-04    9.53      29.0  T
   4    -45.6302338 -0.360338E-09  0.159E-04    9.53     131.3  T
speedup  0.97
cpu  time for SCC    0.00 s
wall time for SCC    0.00 s
speedup  0.98
cpu  time for grad    0.01 s
wall time for grad    0.01 s
 E :    -45.37455642  G :  0.000197    pred/act E change: -0.151D-06 -0.144D-06
Maxdispl :   0.0081   ||displ|| :   0.0154   Lambda : -0.195D-06
Largest |displ|/coords:  0.0081 (  19)  0.0045 (   4)  0.0044 (  15)
................................................................................
.............................. CYCLE  134 ......................................
................................................................................
   1    -45.6302121 -0.456302E+02  0.110E-02    9.53       0.0  T
   2    -45.6302122 -0.207860E-07  0.828E-03    9.53       2.5  T
   3    -45.6302122 -0.254965E-07  0.105E-03    9.53      19.8  T
   4    -45.6302122 -0.166970E-08  0.418E-04    9.53      49.9  T
   5    -45.6302122 -0.209049E-09  0.121E-04    9.53     171.9  T
speedup  1.03
cpu  time for SCC    0.00 s
wall time for SCC    0.00 s
speedup  1.00
cpu  time for grad    0.01 s
wall time for grad    0.01 s
 E :    -45.37455653  G :  0.000177    pred/act E change: -0.132D-06 -0.114D-06
Maxdispl :   0.0024   ||displ|| :   0.0043   Lambda : -0.102D-06
Largest |displ|/coords:  0.0024 (   3)  0.0021 (   1)  0.0018 (   2)
................................................................................
.............................. CYCLE  135 ......................................
................................................................................
   1    -45.6302102 -0.456302E+02  0.285E-03    9.53       0.0  T
   2    -45.6302102 -0.105214E-08  0.212E-03    9.53       9.8  T
   3    -45.6302102 -0.864766E-09  0.266E-04    9.53      78.3  T
   4    -45.6302102 -0.114952E-09  0.725E-05    9.53     287.5  T
speedup  0.94
cpu  time for SCC    0.00 s
wall time for SCC    0.00 s
speedup  0.97
cpu  time for grad    0.01 s
wall time for grad    0.01 s
 E :    -45.37455661  G :  0.000126    pred/act E change: -0.974D-07 -0.725D-07
Maxdispl :   0.0046   ||displ|| :   0.0082   Lambda : -0.101D-06
Largest |displ|/coords:  0.0046 (   3)  0.0030 (  19)  0.0025 (   1)

   *** GEOMETRY OPTIMIZATION CONVERGED AFTER 135 ITERATIONS ***

------------------------------------------------------------------------
 total energy gain (kcal):     -0.0052
------------------------------------------------------------------------
================
 final structure:
================
$coord
       -1.90093307361796        1.61394544694576        0.82422249917845      S 
       -2.91008206784398       -0.91670129309738        0.53459890545277      O 
       -1.04214927617379        2.63524338252732       -1.60630790557622      O 
       -4.06144291987554        3.38071981798330        1.80531000950629      O 
        0.09259242452893        1.71146809497968        2.72027120251053      O 
        1.08390039877919       -1.00158145670709        3.82991531828040      H 
       -5.17181749159954        3.52821795126776        0.33942944346025      H 
        2.09994648107121       -2.48998388546495        4.33772167566165      O 
        2.87668756443117       -2.03593725344479        5.90997059440989      H 
        3.77378320513887        2.19609085156789       -0.74901824250389      O 
        3.34522276368205        2.53691758222863        0.99765888576262      H 
        2.13494822939490        2.50433647382224       -1.57392503940664      H 
       -0.59840609370511       -3.98380489770978       -2.43729425933538      O 
       -1.58284258410299       -2.71327081571005       -1.44963379680482      H 
       -1.36876574092571       -5.57532930870732       -2.03690722577509      H 
       -5.69142714123499        3.68276247136436       -2.93510098265456      O 
       -3.91173078515268        3.17144062098575       -2.94461739315598      H 
       -5.74866094558294        5.33862153338522       -3.67322564713797      H 
        3.77109875736856       -2.75679724507729       -0.39599211214812      N 
        3.95753264215314       -0.77053809741505       -0.73922626032609      H 
        2.12782401362076       -3.38645254900644       -1.36834548114537      H 
        5.33405370344953       -3.72669349996582       -0.93040913573252      H 
        3.39066793619334       -2.94267392475236        1.54090489077866      H 
$end
 
 Bond Distances (Angstroems)
 ---------------------------
S1-O2=1.4498         S1-O3=1.4673         S1-O4=1.5655         S1-O5=1.4568         O2-S1=1.4498         O3-S1=1.4673         
O4-S1=1.5655         O4-H7=0.9763         O5-S1=1.4568         H6-O8=0.9908         H7-O4=0.9763         O8-H6=0.9908         
O8-H9=0.9586         H9-O8=0.9586         O10-H11=0.9687       O10-H12=0.9845       H11-O10=0.9687       H12-O10=0.9845       
O13-H14=0.9983       O13-H15=0.9594       H14-O13=0.9983       H15-O13=0.9594       O16-H17=0.9799       O16-H18=0.9598       
H17-O16=0.9799       H18-O16=0.9598       N19-H20=1.0712       N19-H21=1.0639       N19-H22=1.0136       N19-H23=1.0492       
H20-N19=1.0712       H21-N19=1.0639       H22-N19=1.0136       H23-N19=1.0492       
 N  H  Rav=1.0495 sigma=0.0222  Rmin=1.0136  Rmax=1.0712     4
 O  H  Rav=0.9751 sigma=0.0137  Rmin=0.9586  Rmax=0.9983     9
 S  O  Rav=1.4848 sigma=0.0470  Rmin=1.4498  Rmax=1.5655     4
 
 selected bond angles (degree)
 --------------------
O3-S1-O2=111.20                O4-S1-O2=108.52                O4-S1-O3=107.27                O5-S1-O2=111.85                
O5-S1-O3=111.49                O5-S1-O4=106.22                H7-O4-S1=102.93                H9-O8-H6=105.60                
H12-O10-H11=100.72             
 
 selected dihedral angles (degree)
 ---------------------------------
H7-O4-S1-O2=289.14            H7-O4-S1-O3= 49.37            H7-O4-S1-O5=168.72            
 
 CMA Distance (Angstroems)
 ---------------------------
R(CMA):  1.9615

========================================================================
 FINAL SINGLEPOINT CALCULATION ON OPTIMIZED GEOMETRY
========================================================================

 Ncao       : 59
 Nao        : 58
 Nshell     : 34
 Nel        : 72
 T(el)      :   300.0
 intcut     :    25.0
 scfconv/Eh :  0.100E-05
   qconv/e  :  0.100E-03
 intneglect :  0.100E-07
 broydamp   :      0.250
 iter      E             dE          RMSdq      gap      omega  full diag
   1    -45.6302102 -0.456302E+02  0.253E-05    9.53       0.0  T
   2    -45.6302102 -0.447642E-12  0.160E-05    9.53    1299.9  T
   3    -45.6302102 -0.312639E-12  0.289E-06    9.53    7207.0  T
speedup  1.25
cpu  time for SCC    0.00 s
wall time for SCC    0.00 s

   *** convergence criteria satisfied after 3 iterations ***

          eigenvalues
 #    :          24         25         26         27         28         29         30         31
 occ. :        2.000      2.000      2.000      2.000      2.000      2.000      2.000      2.000
 eps  :       -13.755    -13.535    -12.806    -12.393    -12.226    -12.169    -12.128    -11.971
 #    :          32         33         34         35         36         37         38         39
 occ. :        2.000      2.000      2.000      2.000      2.000      0.000      0.000      0.000
 eps  :       -11.896    -11.856    -11.653    -11.571    -11.397     -1.871     -0.945      0.220
 #    :          40         41         42         43         44         45         46         47
 occ. :        0.000      0.000      0.000      0.000      0.000      0.000      0.000      0.000
 eps  :         1.212      1.309      2.234      2.368      2.584      3.330      5.827      6.012


   #   Z            q   n(s)   n(p)   n(d)      C6AA      α(0)
   1  16 S      1.677  1.588  1.787  0.948    89.295    15.904
   2   8 O     -0.740  1.771  4.970  0.000    29.832     7.323
   3   8 O     -0.772  1.779  4.992  0.000    30.735     7.433
   4   8 O     -0.608  1.757  4.850  0.000    25.338     6.795
   5   8 O     -0.742  1.760  4.982  0.000    29.871     7.328
   6   1 H      0.335  0.665  0.000  0.000     0.626     1.243
   7   1 H      0.370  0.630  0.000  0.000     0.536     1.147
   8   8 O     -0.612  1.740  4.872  0.000    25.488     6.814
   9   1 H      0.289  0.711  0.000  0.000     0.756     1.366
  10   8 O     -0.601  1.744  4.857  0.000    25.211     6.777
  11   1 H      0.312  0.688  0.000  0.000     0.687     1.302
  12   1 H      0.329  0.671  0.000  0.000     0.641     1.258
  13   8 O     -0.610  1.746  4.864  0.000    25.422     6.805
  14   1 H      0.342  0.658  0.000  0.000     0.607     1.224
  15   1 H      0.292  0.708  0.000  0.000     0.745     1.355
  16   8 O     -0.611  1.749  4.863  0.000    25.461     6.810
  17   1 H      0.320  0.680  0.000  0.000     0.663     1.279
  18   1 H      0.290  0.710  0.000  0.000     0.751     1.361
  19   7 N     -0.353  1.278  4.075  0.000    29.062     8.007
  20   1 H      0.291  0.709  0.000  0.000     0.740     1.348
  21   1 H      0.292  0.708  0.000  0.000     0.737     1.345
  22   1 H      0.225  0.775  0.000  0.000     0.989     1.558
  23   1 H      0.285  0.715  0.000  0.000     0.759     1.365

 Mol. C6AA /au·bohr⁶  :       4504.760643
 Mol. C8AA /au·bohr⁸  :      99212.262147
 Mol. α(0) /au        :         97.146888

 
 Wiberg/Mayer (AO) data. WBOs > 0.1 written file <wbo>
 largest (>0.05) Wiberg bond orders for each atom
           total WBO             WBO to atom ...
     1  S   4.845    O    5 1.312    O    2 1.309    O    3 1.249    O    4 0.936
     2  O   1.728    S    1 1.309    O    5 0.110    O    3 0.108    H   14 0.089    O    4 0.078
     3  O   1.704    S    1 1.249    O    2 0.108    O    5 0.102    O    4 0.077    H   12 0.060    H   17 0.056
     4  O   1.972    S    1 0.936    H    7 0.782    O    2 0.078    O    3 0.077    O    5 0.064
     5  O   1.728    S    1 1.312    O    2 0.110    O    3 0.102    H    6 0.073    O    4 0.064
     6  H   0.888    O    8 0.811    O    5 0.073
     7  H   0.863    O    4 0.782    O   16 0.062
     8  O   1.887    H    9 0.910    H    6 0.811    H   23 0.087
     9  H   0.917    O    8 0.910
    10  O   1.945    H   11 0.880    H   12 0.826    H   20 0.132    N   19 0.064
    11  H   0.903    O   10 0.880
    12  H   0.892    O   10 0.826    O    3 0.060
    13  O   1.919    H   15 0.910    H   14 0.790    H   21 0.119    N   19 0.057
    14  H   0.883    O   13 0.790    O    2 0.089
    15  H   0.915    O   13 0.910
    16  O   1.868    H   18 0.913    H   17 0.836    H    7 0.062
    17  H   0.897    O   16 0.836    O    3 0.056
    18  H   0.916    O   16 0.913
    19  N   3.519    H   22 0.946    H   23 0.827    H   21 0.791    H   20 0.779    O   10 0.064    O   13 0.057
    20  H   0.915    N   19 0.779    O   10 0.132
    21  H   0.915    N   19 0.791    O   13 0.119
    22  H   0.950    N   19 0.946
    23  H   0.919    N   19 0.827    O    8 0.087
 MOs/occ written to file <molden.input>
 
molecular dipole:
                 x           y           z       tot (Debye)
 q only:        2.229      -1.502      -0.255
   full:        1.738      -1.009       0.030       5.109
molecular quadrupole (traceless):
                xx          xy          yy          xz          yz          zz
 q only:        1.063     -11.134       4.963       4.080      -1.846      -6.026
  q+dip:       -1.808     -12.038       7.216       5.584      -2.364      -5.408
   full:       -1.561     -12.587       7.126       5.782      -2.446      -5.565

SCC energy    :     -45.6302102
rep           :       0.2554999
ES            :       0.2397032
AES           :      -0.0705601
AXC           :      -0.0088067
disp          :      -0.0168250
XB            :       0.0000000
fix           :       0.0000000
total E       :     -45.3745566
atomizationE  :       4.4576191     2797.20
(atE without considering molecular charge,
 total energy contains solvation terms)
H-L gap (eV)  :          9.5263
optimized geometry written to: xtbopt.xyz


------------------------------------------------------------------------
 * finished run on 2019/09/16 at 11:24:59.138     
------------------------------------------------------------------------
 total:
 * wall-time:     0 d,  0 h,  0 min,  2.453 sec
 *  cpu-time:     0 d,  0 h,  0 min,  2.431 sec
 * ratio c/w:     0.991 speedup
 SCF:
 * wall-time:     0 d,  0 h,  0 min,  0.114 sec
 *  cpu-time:     0 d,  0 h,  0 min,  0.111 sec
 * ratio c/w:     0.974 speedup
 ANC optimizer:
 * wall-time:     0 d,  0 h,  0 min,  2.315 sec
 *  cpu-time:     0 d,  0 h,  0 min,  2.299 sec
 * ratio c/w:     0.993 speedup

