      -----------------------------------------------------------      
     |                   =====================                   |     
     |                           x T B                           |     
     |                   =====================                   |     
     |                         S. Grimme                         |     
     |          Mulliken Center for Theoretical Chemistry        |     
     |                    University of Bonn                     |     
     |                 Version 6.0.1 (SAW181210)                 |     
      -----------------------------------------------------------      

   This program is distributed in the hope that it will be useful,
   but WITHOUT ANY WARRANTY; without even the implied warranty of
   MERCHANTABILITY or FITNESS FOR A PARTICULAR PURPOSE.
   
   FOR NON-COMMERCIAL, ACADEMIA USE ONLY.
   
   Cite this work as:
   S. Grimme, C. Bannwarth, P. Shushkov, J. Comput. Theory Chem., 2017,
   13, 1989-2009.
   C. Bannwarth, S. Ehlert and S. Grimme., ChemRxiv, 2018, preprint.
   http://doi.org/10.26434/chemrxiv.7246238.v1
   
   for sTDA-xTB:
   S. Grimme and C. Bannwarth, J. Chem. Phys., 2016, 145, 054103.
   
   in the mass-spec context:
   V. Asgeirsson, C. Bauer and S. Grimme, Chem. Sci., 2017, 8, 4879.
   
   if GBSA is used:
   P. Shushkov, F. März and S. Grimme, unpublished.
   
   for ANC optimizer:
   S. Grimme, unpublished.
   Rational Function algorithm used in ANCopt:
   F. Eckert, P. Pulay, H.-J. Werner, J. Comput. Chem., 1997, 18, 1473.
   
   with help from (in alphabetical order)
   C. Bannwarth, F. Bohle, G. Brandenburg, E. Caldeweyher, M. Checinski,
   S. Dohm, S. Ehlert, S. Ehrlich, F. März, H. Neugebauer, J. Pisarek,
   P. Pracht, P. Shushkov, and S. Spicher.
   
 * started run on 2019/09/16 at 11:48:13.432     
========================================================================
 # omp threads = 1
========================================================================
number of atoms            : 23
number of electrons        : 72
charge                     : 0
spin                       : .0
first test random number   : .8527

########################################################################
# WARNING! Please study the warnings concerning your input carefully
#  - XTBPATH is not set, using XTBHOME instead
#  - the use of '-opt' is discouraged, please use '--opt' next time
#  - the use of '-chrg' is discouraged, please use '--chrg' next time
#  - the use of '-uhf' is discouraged, please use '--uhf' next time
########################################################################

           ------------------------------------------------- 
          |                 G F N 2 - x T B                 |
          | Geometry, Frequencies, Noncovalent interactions |
          |            JCTC 2018 parametrisation            |
           ------------------------------------------------- 
      method parameters     
 k(s)        :  1.8500
 k(p)        :  2.2300
 k(d)        :  2.2300
 k(f)        :  2.0000
 kEN (H0ij)  : -2.0000
 D4 a1       :  0.5200
 D4 a2       :  5.0000
 D4 s6       :  1.0000
 D4 s8       :  2.7000
 D4 s9       :  5.0000
 alphaj      :  2.0000


            Z     q(EN)     CN     RAES       Cart. coordinates
     1  S   6.0    0.58    4.29    4.23    -3.31342     1.93427     2.96742
     2  O   6.0   -0.31    1.11    1.80    -1.52468     4.02053     3.13866
     3  O   6.0   -0.29    1.10    1.80    -4.47860     1.16714     0.62403
     4  O   6.0   -0.24    2.06    1.83    -1.99944    -0.49750     4.34776
     5  O   6.0   -0.22    2.04    1.83    -5.60431     2.32538     4.93379
     6  H   1.0    0.14    1.11    1.45    -4.94059     2.99009     6.51618
     7  H   1.0    0.18    1.24    1.47    -0.18534    -0.36715     4.06777
     8  O   6.0   -0.39    1.53    1.80     2.17937    -0.53548     2.23814
     9  H   1.0    0.18    0.94    1.42     3.73732    -1.39271     2.80531
    10  O   6.0   -0.28    1.92    1.82     0.68439    -7.62739    -3.59456
    11  H   1.0    0.14    0.97    1.43     0.34423    -8.67535    -5.04393
    12  H   1.0    0.14    0.97    1.43     2.46841    -7.80677    -3.27880
    13  O   6.0   -0.29    2.04    1.83     2.93240     3.64588     0.22687
    14  H   1.0    0.18    1.11    1.45     2.96480     1.99949     1.00338
    15  H   1.0    0.17    0.99    1.43     1.95799     4.69114     1.35494
    16  O   6.0   -0.28    2.00    1.83     1.23790     3.06165    -4.46147
    17  H   1.0    0.15    0.97    1.43     1.72319     4.37974    -5.61981
    18  H   1.0    0.16    1.04    1.43     1.91640     3.56431    -2.84852
    19  N   5.0   -0.14    3.94    2.71    -0.02000    -1.37545    -1.87543
    20  H   1.0    0.09    0.99    1.43     0.54516    -2.96175    -2.84945
    21  H   1.0    0.11    1.04    1.43     0.27935     0.20140    -2.97469
    22  H   1.0    0.10    1.00    1.43    -1.91226    -1.51750    -1.44692
    23  H   1.0    0.13    1.17    1.46     1.00775    -1.22396    -0.23067

  Z AO/shell   Hii/eV     exponent
  1     Wed Apr 25 08:07:45 CEST 2018   EN: 2.200 GM2: 0.406  GM3: 0.0800  RAES: 1.40
     1s    -10.707211    1.230000
  7     Wed Apr 25 08:07:45 CEST 2018   EN: 3.040 GM2: 0.461  GM3:-0.0640  RAES: 1.90
     2s    -16.686243    2.339881
     2p    -12.523956    2.014332
  8     Wed Apr 25 08:07:45 CEST 2018   EN: 3.440 GM2: 0.452  GM3:-0.0517  RAES: 1.80
     2s    -20.229985    2.439742
     2p    -15.503117    2.137023
 16     Tue Apr 24 11:44:34 CEST 2018   EN: 2.580 GM2: 0.340  GM3:-0.0502  RAES: 3.10
     3s    -20.029654    1.981333
     3p    -11.377694    2.025643
     3d     -0.420282    1.702555
 no old-style atom pair restraining (fixing) potential

molecular fragmentation (1/2 indicates fragments):
11111112222222222222222
# atoms in fragment 1/2:     7    16
 fragment masses (1/2) :       98.07       89.09
CMA distance (Bohr)    :   7.132
constraining FC (au)   :  0.0500
           ------------------------------------------------- 
          |        Self-Consistent Charge Iterations        |
           ------------------------------------------------- 

 Ncao       : 59
 Nao        : 58
 Nshell     : 34
 Nel        : 72
 T(el)      :   300.0
 intcut     :    25.0
 scfconv/Eh :  0.100E-05
   qconv/e  :  0.100E-03
 intneglect :  0.100E-07
 broydamp   :      0.250
 iter      E             dE          RMSdq      gap      omega  full diag
   1    -45.4609474 -0.454609E+02  0.718E+00    8.20       0.0  T
   2    -45.5094952 -0.485478E-01  0.506E+00    7.10       1.0  T
   3    -45.5480441 -0.385490E-01  0.123E+00    4.33       1.0  T
   4    -45.5514275 -0.338342E-02  0.704E-01    4.51       1.0  T
   5    -45.5529672 -0.153971E-02  0.263E-01    4.58       1.0  T
   6    -45.5532576 -0.290392E-03  0.150E-01    4.60       1.0  T
   7    -45.5533826 -0.124974E-03  0.499E-02    4.62       1.0  T
   8    -45.5533942 -0.115777E-04  0.257E-02    4.62       1.0  T
   9    -45.5533976 -0.336912E-05  0.834E-03    4.63       2.5  T
  10    -45.5533978 -0.248192E-06  0.224E-03    4.63       9.3  T
  11    -45.5533978 -0.120442E-07  0.114E-03    4.63      18.2  T
  12    -45.5533978 -0.595974E-08  0.372E-04    4.63      56.0  T
  13    -45.5533978 -0.355932E-09  0.176E-04    4.63     118.3  T
speedup  1.03
cpu  time for SCC    0.01 s
wall time for SCC    0.01 s

   *** convergence criteria satisfied after 13 iterations ***

          eigenvalues
 #    :          24         25         26         27         28         29         30         31
 occ. :        2.000      2.000      2.000      2.000      2.000      2.000      2.000      2.000
 eps  :       -13.639    -12.944    -12.859    -12.828    -12.546    -12.403    -12.223    -12.162
 #    :          32         33         34         35         36         37         38         39
 occ. :        2.000      2.000      2.000      2.000      2.000      0.000      0.000      0.000
 eps  :       -11.879    -11.703    -10.704     -9.563     -9.230     -4.601     -2.007     -0.780
 #    :          40         41         42         43         44         45         46         47
 occ. :        0.000      0.000      0.000      0.000      0.000      0.000      0.000      0.000
 eps  :        -0.753      0.699      1.461      2.428      2.811      3.193      4.175      4.589


   #   Z            q   n(s)   n(p)   n(d)      C6AA      α(0)
   1  16 S      1.625  1.630  1.813  0.931    90.487    16.010
   2   8 O     -0.649  1.775  4.874  0.000    27.350     7.012
   3   8 O     -0.628  1.761  4.867  0.000    26.805     6.942
   4   8 O     -0.608  1.767  4.841  0.000    25.343     6.796
   5   8 O     -0.556  1.751  4.805  0.000    24.126     6.631
   6   1 H      0.351  0.649  0.000  0.000     0.584     1.199
   7   1 H      0.388  0.612  0.000  0.000     0.506     1.116
   8   8 O     -0.879  1.844  5.035  0.000    34.104     7.829
   9   1 H      0.193  0.807  0.000  0.000     1.155     1.688
  10   8 O     -0.573  1.739  4.834  0.000    24.542     6.686
  11   1 H      0.288  0.712  0.000  0.000     0.757     1.367
  12   1 H      0.288  0.712  0.000  0.000     0.759     1.369
  13   8 O     -0.658  1.749  4.909  0.000    26.621     6.964
  14   1 H      0.327  0.673  0.000  0.000     0.644     1.260
  15   1 H      0.287  0.713  0.000  0.000     0.761     1.370
  16   8 O     -0.628  1.736  4.892  0.000    25.864     6.864
  17   1 H      0.279  0.721  0.000  0.000     0.789     1.396
  18   1 H      0.333  0.667  0.000  0.000     0.630     1.247
  19   7 N     -0.302  1.258  4.043  0.000    27.750     7.824
  20   1 H      0.248  0.752  0.000  0.000     0.892     1.479
  21   1 H      0.298  0.702  0.000  0.000     0.720     1.329
  22   1 H      0.258  0.742  0.000  0.000     0.853     1.447
  23   1 H      0.318  0.682  0.000  0.000     0.661     1.273

 Mol. C6AA /au·bohr⁶  :       4493.338212
 Mol. C8AA /au·bohr⁸  :      98898.000049
 Mol. α(0) /au        :         97.095912

 
 Wiberg/Mayer (AO) data. WBOs > 0.1 written file <wbo>
 largest (>0.05) Wiberg bond orders for each atom
           total WBO             WBO to atom ...
     1  S   4.789    O    3 1.466    O    2 1.422    O    4 0.945    O    5 0.928
     2  O   1.781    S    1 1.422    O    3 0.145    O    4 0.106    O    5 0.091
     3  O   1.813    S    1 1.466    O    2 0.145    O    4 0.101    O    5 0.073
     4  O   1.962    S    1 0.945    H    7 0.707    O    2 0.106    O    3 0.101    O    5 0.055
     5  O   2.011    S    1 0.928    H    6 0.858    O    2 0.091    O    3 0.073    O    4 0.055
     6  H   0.877    O    5 0.858
     7  H   0.850    O    4 0.707    O    8 0.125
     8  O   1.543    H    9 0.953    H   23 0.176    H    7 0.125    H   14 0.113    N   19 0.075
     9  H   0.963    O    8 0.953
    10  O   1.840    H   12 0.917    H   11 0.916
    11  H   0.917    O   10 0.916
    12  H   0.917    O   10 0.917
    13  O   1.835    H   15 0.903    H   14 0.777    H   18 0.064
    14  H   0.893    O   13 0.777    O    8 0.113
    15  H   0.917    O   13 0.903
    16  O   1.825    H   17 0.910    H   18 0.823
    17  H   0.922    O   16 0.910
    18  H   0.889    O   16 0.823    O   13 0.064
    19  N   3.545    H   20 0.930    H   22 0.919    H   21 0.862    H   23 0.718    O    8 0.075
    20  H   0.939    N   19 0.930
    21  H   0.911    N   19 0.862
    22  H   0.933    N   19 0.919
    23  H   0.899    N   19 0.718    O    8 0.176
 MOs/occ written to file <molden.input>
 
molecular dipole:
                 x           y           z       tot (Debye)
 q only:        0.158      -1.412      -1.509
   full:        0.527      -1.461      -1.187       4.968
molecular quadrupole (traceless):
                xx          xy          yy          xz          yz          zz
 q only:      -13.823      -8.350       5.398      -8.233      12.787       8.425
  q+dip:      -17.076     -11.548       7.398      -9.374      16.150       9.678
   full:      -16.924     -11.951       7.191      -9.408      16.196       9.733

SCC energy    :     -45.5533978
rep           :       0.2572474
ES            :       0.2641281
AES           :      -0.0422935
AXC           :      -0.0045681
disp          :      -0.0145726
XB            :       0.0000000
fix           :       0.0000000
total E       :     -45.2960309
atomizationE  :       4.3790934     2747.92
(atE without considering molecular charge,
 total energy contains solvation terms)
H-L gap (eV)  :          4.6281
           ------------------------------------------------- 
          |                 ===============                 |
          |                   A N C O P T                   |
          |                 ===============                 |
          |          Approximate Normal Coordinate          |
          |           Rational Function Optimizer           |
           ------------------------------------------------- 
dumping coords to <xtbopt.coord> and <xtbopt.log>
 optlevel               2
 Maxcycle             460
 Maxmicro              25
 Econv         1.000000000000000E-007
 Gconv         2.000000000000000E-004
 Maxdispl       1.00000000000000     
 Hlow          5.000000000000000E-003
 S6             20.0000000000000     
 Nvar               63

generating ANC from model Hessian ...
 Shifting diagonal of input Hessian by   5.186628382185499E-003
 Lowest  eigenvalues of input Hessian
    0.005000    0.005036    0.005052   -0.000000   -0.000000   -0.000000
   -0.000000    0.000000    0.000000    0.005326    0.005376    0.005583
    0.005695    0.005854    0.005920    0.006024    0.006737    0.007108
 Highest eigenvalues
    1.427594    1.430060    1.442977    1.949132    2.765141    3.586752
 
cpu  time for ANC gen    0.01 s
wall time for ANC gen    0.01 s
................................................................................
.............................. CYCLE    1 ......................................
................................................................................
   1    -45.5533978 -0.455534E+02  0.515E-05    4.63       0.0  T
   2    -45.5533978 -0.441247E-11  0.374E-05    4.63     556.8  T
   3    -45.5533978 -0.338929E-11  0.164E-05    4.63    1273.3  T
speedup  0.77
cpu  time for SCC    0.00 s
wall time for SCC    0.00 s
speedup  0.97
cpu  time for grad    0.01 s
wall time for grad    0.01 s
 E :    -45.29603084  G :  0.147441    pred/act E change:  0.000D+00  0.168D-07
Maxdispl :   0.1164   ||displ|| :   0.3615   Lambda : -0.234D-01
Largest |displ|/coords:  0.1164 (   9)  0.1130 (  11)  0.1058 (   4)
................................................................................
.............................. CYCLE    2 ......................................
................................................................................
   1    -45.5648629 -0.455649E+02  0.527E-01    5.40       0.0  T
   2    -45.5651018 -0.238890E-03  0.392E-01    5.52       1.0  T
   3    -45.5651986 -0.968436E-04  0.928E-02    5.75       1.0  T
   4    -45.5652301 -0.315245E-04  0.312E-02    5.72       1.0  T
   5    -45.5652315 -0.134262E-05  0.767E-03    5.71       2.7  T
   6    -45.5652316 -0.899512E-07  0.390E-03    5.70       5.4  T
   7    -45.5652316 -0.199107E-07  0.167E-03    5.70      12.5  T
speedup  0.93
cpu  time for SCC    0.00 s
wall time for SCC    0.01 s
speedup  0.96
cpu  time for grad    0.01 s
wall time for grad    0.01 s
 E :    -45.31432285  G :  0.083641    pred/act E change:  0.000D+00 -0.183D-01
Maxdispl :   0.1717   ||displ|| :   0.3980   Lambda : -0.120D-01
Largest |displ|/coords:  0.1717 (  11)  0.1368 (  15)  0.1142 (   2)
................................................................................
.............................. CYCLE    3 ......................................
................................................................................
   1    -45.5743906 -0.455744E+02  0.351E-01    6.38       0.0  T
   2    -45.5746607 -0.270114E-03  0.248E-01    6.51       1.0  T
   3    -45.5747665 -0.105781E-03  0.810E-02    6.75       1.0  T
   4    -45.5747812 -0.147360E-04  0.241E-02    6.74       1.0  T
   5    -45.5747823 -0.110104E-05  0.702E-03    6.73       3.0  T
   6    -45.5747824 -0.798346E-07  0.386E-03    6.73       5.4  T
   7    -45.5747824 -0.183503E-07  0.164E-03    6.73      12.7  T
speedup  0.94
cpu  time for SCC    0.01 s
wall time for SCC    0.01 s
speedup  0.96
cpu  time for grad    0.01 s
wall time for grad    0.01 s
 E :    -45.32448148  G :  0.056876    pred/act E change: -0.132D-01 -0.102D-01
Maxdispl :   0.2242   ||displ|| :   0.4245   Lambda : -0.787D-02
Largest |displ|/coords:  0.2242 (  11)  0.1258 (   2)  0.1144 (   7)
................................................................................
.............................. CYCLE    4 ......................................
................................................................................
   1    -45.5793652 -0.455794E+02  0.348E-01    7.20       0.0  T
   2    -45.5796071 -0.241861E-03  0.247E-01    7.32       1.0  T
   3    -45.5797021 -0.949777E-04  0.792E-02    7.54       1.0  T
   4    -45.5797175 -0.154232E-04  0.221E-02    7.53       1.0  T
   5    -45.5797186 -0.106447E-05  0.695E-03    7.52       3.0  T
   6    -45.5797186 -0.765409E-07  0.395E-03    7.52       5.3  T
   7    -45.5797186 -0.195648E-07  0.161E-03    7.52      13.0  T
speedup  0.93
cpu  time for SCC    0.00 s
wall time for SCC    0.01 s
speedup  0.96
cpu  time for grad    0.01 s
wall time for grad    0.01 s
 E :    -45.33118686  G :  0.042960    pred/act E change: -0.695D-02 -0.671D-02
Maxdispl :   0.2293   ||displ|| :   0.5880   Lambda : -0.104D-01
Largest |displ|/coords:  0.2293 (  11)  0.1873 (   2)  0.1750 (  24)
................................................................................
.............................. CYCLE    5 ......................................
................................................................................
   1    -45.5920858 -0.455921E+02  0.580E-01    8.32       0.0  T
   2    -45.5930058 -0.920014E-03  0.404E-01    8.47       1.0  T
   3    -45.5933933 -0.387500E-03  0.139E-01    8.67       1.0  T
   4    -45.5934371 -0.437662E-04  0.389E-02    8.69       1.0  T
   5    -45.5934408 -0.370251E-05  0.144E-02    8.68       1.4  T
   6    -45.5934412 -0.441996E-06  0.901E-03    8.68       2.3  T
   7    -45.5934413 -0.105516E-06  0.286E-03    8.68       7.3  T
   8    -45.5934413 -0.101047E-07  0.880E-04    8.68      23.7  T
speedup  0.97
cpu  time for SCC    0.01 s
wall time for SCC    0.01 s
speedup  0.96
cpu  time for grad    0.01 s
wall time for grad    0.01 s
 E :    -45.33755265  G :  0.035376    pred/act E change: -0.464D-02 -0.637D-02
Maxdispl :   0.4236   ||displ|| :   0.7219   Lambda : -0.740D-02
Largest |displ|/coords:  0.4236 (  11)  0.2396 (  10)  0.1732 (   8)
................................................................................
.............................. CYCLE    6 ......................................
................................................................................
   1    -45.5624039 -0.455624E+02  0.968E-01    8.71       0.0  T
   2    -45.5631023 -0.698389E-03  0.720E-01    8.78       1.0  T
   3    -45.5634124 -0.310167E-03  0.158E-01    8.94       1.0  T
   4    -45.5635109 -0.984803E-04  0.326E-02    8.92       1.0  T
   5    -45.5635129 -0.196030E-05  0.132E-02    8.92       1.6  T
   6    -45.5635132 -0.358710E-06  0.808E-03    8.92       2.6  T
   7    -45.5635133 -0.759590E-07  0.188E-03    8.91      11.1  T
   8    -45.5635133 -0.662411E-08  0.570E-04    8.91      36.6  T
speedup  0.98
cpu  time for SCC    0.01 s
wall time for SCC    0.01 s
speedup  0.98
cpu  time for grad    0.01 s
wall time for grad    0.01 s
 E :    -45.33424570  G :  0.103681    pred/act E change: -0.701D-02  0.331D-02
Maxdispl :   0.2995   ||displ|| :   0.5639   Lambda : -0.318D-01
Largest |displ|/coords:  0.2995 (   4)  0.2782 (   9)  0.2559 (  10)
................................................................................
.............................. CYCLE    7 ......................................
................................................................................
   1    -45.6002221 -0.456002E+02  0.103E+00    8.84       0.0  T
   2    -45.6010686 -0.846499E-03  0.772E-01    8.83       1.0  T
   3    -45.6015251 -0.456523E-03  0.180E-01    8.81       1.0  T
   4    -45.6016346 -0.109490E-03  0.272E-02    8.82       1.0  T
   5    -45.6016378 -0.321386E-05  0.155E-02    8.82       1.3  T
   6    -45.6016380 -0.186558E-06  0.685E-03    8.82       3.0  T
   7    -45.6016381 -0.104690E-06  0.667E-04    8.82      31.3  T
   8    -45.6016381 -0.899149E-09  0.265E-04    8.82      78.6  T
speedup  0.95
cpu  time for SCC    0.01 s
wall time for SCC    0.01 s
speedup  0.94
cpu  time for grad    0.01 s
wall time for grad    0.01 s
 E :    -45.33991193  G :  0.077685    pred/act E change: -0.563D-02 -0.567D-02
Maxdispl :   0.1298   ||displ|| :   0.3286   Lambda : -0.699D-02
Largest |displ|/coords:  0.1298 (  11)  0.1135 (   8)  0.0928 (  10)
................................................................................
.............................. CYCLE    8 ......................................
................................................................................
   1    -45.5977124 -0.455977E+02  0.353E-01    8.86       0.0  T
   2    -45.5978650 -0.152541E-03  0.263E-01    8.90       1.0  T
   3    -45.5979454 -0.804107E-04  0.733E-02    8.98       1.0  T
   4    -45.5979616 -0.162483E-04  0.210E-02    8.98       1.0  T
   5    -45.5979628 -0.120539E-05  0.648E-03    8.97       3.2  T
   6    -45.5979629 -0.403145E-07  0.422E-03    8.97       4.9  T
   7    -45.5979629 -0.196143E-07  0.972E-04    8.97      21.4  T
speedup  0.94
cpu  time for SCC    0.00 s
wall time for SCC    0.01 s
speedup  0.96
cpu  time for grad    0.01 s
wall time for grad    0.01 s
 E :    -45.34484913  G :  0.042815    pred/act E change: -0.210D-01 -0.494D-02
Maxdispl :   0.2408   ||displ|| :   0.5112   Lambda : -0.677D-02
Largest |displ|/coords:  0.2408 (  11)  0.2050 (  14)  0.1669 (  12)
................................................................................
.............................. CYCLE    9 ......................................
................................................................................
   1    -45.5894102 -0.455894E+02  0.500E-01    9.08       0.0  T
   2    -45.5896279 -0.217654E-03  0.374E-01    9.10       1.0  T
   3    -45.5897505 -0.122635E-03  0.915E-02    9.11       1.0  T
   4    -45.5897770 -0.265220E-04  0.274E-02    9.11       1.0  T
   5    -45.5897783 -0.124024E-05  0.869E-03    9.11       2.4  T
   6    -45.5897784 -0.104432E-06  0.558E-03    9.11       3.7  T
   7    -45.5897784 -0.354153E-07  0.124E-03    9.12      16.8  T
speedup  1.03
cpu  time for SCC    0.01 s
wall time for SCC    0.01 s
speedup  0.99
cpu  time for grad    0.01 s
wall time for grad    0.01 s
 E :    -45.34738561  G :  0.067686    pred/act E change: -0.387D-02 -0.254D-02
Maxdispl :   0.1874   ||displ|| :   0.3746   Lambda : -0.892D-02
Largest |displ|/coords:  0.1874 (  15)  0.1373 (   8)  0.1163 (  12)
................................................................................
.............................. CYCLE   10 ......................................
................................................................................
   1    -45.5974712 -0.455975E+02  0.428E-01    9.04       0.0  T
   2    -45.5975993 -0.128070E-03  0.321E-01    9.06       1.0  T
   3    -45.5976719 -0.726292E-04  0.697E-02    9.10       1.0  T
   4    -45.5976891 -0.171933E-04  0.182E-02    9.09       1.1  T
   5    -45.5976898 -0.661478E-06  0.698E-03    9.09       3.0  T
   6    -45.5976898 -0.262663E-07  0.355E-03    9.09       5.9  T
   7    -45.5976898 -0.160146E-07  0.754E-04    9.09      27.6  T
speedup  0.93
cpu  time for SCC    0.00 s
wall time for SCC    0.01 s
speedup  1.03
cpu  time for grad    0.01 s
wall time for grad    0.01 s
 E :    -45.34930916  G :  0.064590    pred/act E change: -0.427D-02 -0.192D-02
Maxdispl :   0.1819   ||displ|| :   0.4226   Lambda : -0.122D-01
Largest |displ|/coords:  0.1819 (  14)  0.1748 (  19)  0.1479 (  15)
................................................................................
.............................. CYCLE   11 ......................................
................................................................................
   1    -45.6214145 -0.456214E+02  0.615E-01    9.09       0.0  T
   2    -45.6216400 -0.225537E-03  0.463E-01    9.09       1.0  T
   3    -45.6217960 -0.155989E-03  0.905E-02    9.08       1.0  T
   4    -45.6218238 -0.277737E-04  0.269E-02    9.08       1.0  T
   5    -45.6218252 -0.137489E-05  0.922E-03    9.08       2.3  T
   6    -45.6218252 -0.363804E-07  0.484E-03    9.08       4.3  T
   7    -45.6218252 -0.332185E-07  0.947E-04    9.08      22.0  T
speedup  1.13
cpu  time for SCC    0.01 s
wall time for SCC    0.01 s
speedup  1.03
cpu  time for grad    0.01 s
wall time for grad    0.01 s
 E :    -45.34922728  G :  0.084449    pred/act E change: -0.509D-02  0.819D-04
Maxdispl :   0.1732   ||displ|| :   0.4319   Lambda : -0.155D-01
Largest |displ|/coords:  0.1732 (  22)  0.1539 (  16)  0.1525 (  11)
................................................................................
.............................. CYCLE   12 ......................................
................................................................................
   1    -45.5907293 -0.455907E+02  0.590E-01    8.91       0.0  T
   2    -45.5908952 -0.165903E-03  0.445E-01    8.94       1.0  T
   3    -45.5910426 -0.147396E-03  0.749E-02    8.97       1.0  T
   4    -45.5910613 -0.187405E-04  0.219E-02    8.93       1.0  T
   5    -45.5910619 -0.531564E-06  0.897E-03    8.93       2.3  T
   6    -45.5910620 -0.111282E-06  0.418E-03    8.93       5.0  T
   7    -45.5910620 -0.376152E-07  0.108E-03    8.94      19.2  T
speedup  1.11
cpu  time for SCC    0.01 s
wall time for SCC    0.01 s
speedup  1.03
cpu  time for grad    0.01 s
wall time for grad    0.01 s
 E :    -45.35214439  G :  0.067382    pred/act E change: -0.720D-02 -0.292D-02
Maxdispl :   0.1721   ||displ|| :   0.4174   Lambda : -0.124D-01
Largest |displ|/coords:  0.1721 (  17)  0.1507 (  18)  0.1225 (  14)
................................................................................
.............................. CYCLE   13 ......................................
................................................................................
   1    -45.6214931 -0.456215E+02  0.530E-01    9.24       0.0  T
   2    -45.6216105 -0.117435E-03  0.401E-01    9.23       1.0  T
   3    -45.6217298 -0.119282E-03  0.632E-02    9.21       1.0  T
   4    -45.6217405 -0.106575E-04  0.254E-02    9.21       1.0  T
   5    -45.6217412 -0.692702E-06  0.772E-03    9.22       2.7  T
   6    -45.6217412 -0.640864E-07  0.356E-03    9.22       5.9  T
   7    -45.6217413 -0.330420E-07  0.108E-03    9.22      19.3  T
speedup  0.93
cpu  time for SCC    0.00 s
wall time for SCC    0.01 s
speedup  0.95
cpu  time for grad    0.01 s
wall time for grad    0.01 s
 E :    -45.35289119  G :  0.069533    pred/act E change: -0.919D-02 -0.747D-03
Maxdispl :   0.2712   ||displ|| :   0.4870   Lambda : -0.141D-01
Largest |displ|/coords:  0.2712 (  14)  0.1748 (   2)  0.1508 (  15)
................................................................................
.............................. CYCLE   14 ......................................
................................................................................
   1    -45.6093577 -0.456094E+02  0.711E-01    8.92       0.0  T
   2    -45.6095629 -0.205229E-03  0.539E-01    8.93       1.0  T
   3    -45.6097278 -0.164811E-03  0.818E-02    8.91       1.0  T
   4    -45.6097537 -0.259336E-04  0.217E-02    8.92       1.0  T
   5    -45.6097544 -0.730961E-06  0.979E-03    8.92       2.1  T
   6    -45.6097545 -0.479077E-07  0.424E-03    8.92       4.9  T
   7    -45.6097545 -0.385121E-07  0.982E-04    8.92      21.2  T
speedup  0.93
cpu  time for SCC    0.00 s
wall time for SCC    0.01 s
speedup  0.95
cpu  time for grad    0.01 s
wall time for grad    0.01 s
 E :    -45.35377093  G :  0.061271    pred/act E change: -0.725D-02 -0.880D-03
Maxdispl :   0.1256   ||displ|| :   0.3587   Lambda : -0.812D-02
Largest |displ|/coords:  0.1256 (  11)  0.1130 (  23)  0.1052 (  12)
................................................................................
.............................. CYCLE   15 ......................................
................................................................................
   1    -45.6180517 -0.456181E+02  0.506E-01    9.19       0.0  T
   2    -45.6181756 -0.123824E-03  0.384E-01    9.18       1.0  T
   3    -45.6182906 -0.115056E-03  0.607E-02    9.14       1.0  T
   4    -45.6183035 -0.129098E-04  0.164E-02    9.15       1.3  T
   5    -45.6183037 -0.197220E-06  0.757E-03    9.15       2.8  T
   6    -45.6183038 -0.789058E-07  0.251E-03    9.15       8.3  T
   7    -45.6183038 -0.123030E-07  0.849E-04    9.15      24.5  T
speedup  0.93
cpu  time for SCC    0.00 s
wall time for SCC    0.01 s
speedup  1.03
cpu  time for grad    0.01 s
wall time for grad    0.01 s
 E :    -45.35651257  G :  0.043296    pred/act E change: -0.872D-02 -0.274D-02
Maxdispl :   0.1221   ||displ|| :   0.2455   Lambda : -0.492D-02
Largest |displ|/coords:  0.1221 (  23)  0.0989 (  28)  0.0876 (  24)
................................................................................
.............................. CYCLE   16 ......................................
................................................................................
   1    -45.6152227 -0.456152E+02  0.215E-01    9.15       0.0  T
   2    -45.6153143 -0.915854E-04  0.161E-01    9.16       1.0  T
   3    -45.6153810 -0.666858E-04  0.575E-02    9.18       1.0  T
   4    -45.6153891 -0.805026E-05  0.198E-02    9.18       1.1  T
   5    -45.6153899 -0.865769E-06  0.654E-03    9.18       3.2  T
   6    -45.6153900 -0.584307E-07  0.306E-03    9.18       6.8  T
   7    -45.6153900 -0.998537E-08  0.925E-04    9.18      22.5  T
speedup  1.11
cpu  time for SCC    0.01 s
wall time for SCC    0.01 s
speedup  1.02
cpu  time for grad    0.01 s
wall time for grad    0.01 s
 E :    -45.35649876  G :  0.046794    pred/act E change: -0.458D-02  0.138D-04
Maxdispl :   0.1201   ||displ|| :   0.2473   Lambda : -0.453D-02
Largest |displ|/coords:  0.1201 (   2)  0.1180 (  14)  0.0640 (  18)
................................................................................
.............................. CYCLE   17 ......................................
................................................................................
   1    -45.6163129 -0.456163E+02  0.333E-01    9.00       0.0  T
   2    -45.6163714 -0.584787E-04  0.251E-01    9.01       1.0  T
   3    -45.6164091 -0.376982E-04  0.486E-02    9.01       1.0  T
   4    -45.6164169 -0.777988E-05  0.150E-02    9.01       1.4  T
   5    -45.6164174 -0.509032E-06  0.459E-03    9.01       4.5  T
   6    -45.6164174 -0.111921E-07  0.259E-03    9.01       8.1  T
speedup  0.85
cpu  time for SCC    0.00 s
wall time for SCC    0.00 s
speedup  0.92
cpu  time for grad    0.01 s
wall time for grad    0.01 s
 E :    -45.35822309  G :  0.028644    pred/act E change: -0.261D-02 -0.172D-02
Maxdispl :   0.0908   ||displ|| :   0.1893   Lambda : -0.206D-02
Largest |displ|/coords:  0.0908 (  16)  0.0710 (  11)  0.0679 (  12)
................................................................................
.............................. CYCLE   18 ......................................
................................................................................
   1    -45.6185678 -0.456186E+02  0.197E-01    9.10       0.0  T
   2    -45.6185860 -0.181865E-04  0.150E-01    9.10       1.0  T
   3    -45.6186041 -0.180803E-04  0.253E-02    9.08       1.0  T
   4    -45.6186057 -0.165392E-05  0.962E-03    9.09       2.2  T
   5    -45.6186058 -0.122138E-06  0.297E-03    9.09       7.0  T
   6    -45.6186059 -0.982904E-08  0.177E-03    9.09      11.8  T
speedup  1.06
cpu  time for SCC    0.00 s
wall time for SCC    0.00 s
speedup  1.01
cpu  time for grad    0.01 s
wall time for grad    0.01 s
 E :    -45.35920010  G :  0.025088    pred/act E change: -0.240D-02 -0.977D-03
Maxdispl :   0.0732   ||displ|| :   0.2140   Lambda : -0.165D-02
Largest |displ|/coords:  0.0732 (  26)  0.0662 (  23)  0.0604 (  16)
................................................................................
.............................. CYCLE   19 ......................................
................................................................................
   1    -45.6176304 -0.456176E+02  0.179E-01    9.12       0.0  T
   2    -45.6176488 -0.184385E-04  0.135E-01    9.12       1.0  T
   3    -45.6176638 -0.149438E-04  0.252E-02    9.12       1.0  T
   4    -45.6176661 -0.229387E-05  0.608E-03    9.12       3.4  T
   5    -45.6176661 -0.348982E-07  0.312E-03    9.12       6.7  T
   6    -45.6176661 -0.142536E-07  0.111E-03    9.12      18.8  T
speedup  1.06
cpu  time for SCC    0.00 s
wall time for SCC    0.00 s
speedup  1.01
cpu  time for grad    0.01 s
wall time for grad    0.01 s
 E :    -45.35979776  G :  0.031540    pred/act E change: -0.107D-02 -0.598D-03
Maxdispl :   0.0754   ||displ|| :   0.2210   Lambda : -0.180D-02
Largest |displ|/coords:  0.0754 (  14)  0.0674 (   6)  0.0667 (  10)
................................................................................
.............................. CYCLE   20 ......................................
................................................................................
   1    -45.6273247 -0.456273E+02  0.128E-01    9.18       0.0  T
   2    -45.6273394 -0.147351E-04  0.951E-02    9.19       1.0  T
   3    -45.6273479 -0.842941E-05  0.237E-02    9.19       1.0  T
   4    -45.6273495 -0.161533E-05  0.737E-03    9.19       2.8  T
   5    -45.6273496 -0.124498E-06  0.241E-03    9.19       8.6  T
   6    -45.6273496 -0.573617E-08  0.127E-03    9.19      16.4  T
speedup  0.87
cpu  time for SCC    0.00 s
wall time for SCC    0.00 s
speedup  1.01
cpu  time for grad    0.01 s
wall time for grad    0.01 s
 E :    -45.36082861  G :  0.018066    pred/act E change: -0.863D-03 -0.103D-02
Maxdispl :   0.1392   ||displ|| :   0.3528   Lambda : -0.157D-02
Largest |displ|/coords:  0.1392 (  16)  0.1308 (   2)  0.1278 (  14)
................................................................................
.............................. CYCLE   21 ......................................
................................................................................
   1    -45.6217161 -0.456217E+02  0.199E-01    9.12       0.0  T
   2    -45.6217308 -0.147322E-04  0.150E-01    9.12       1.0  T
   3    -45.6217420 -0.111805E-04  0.247E-02    9.13       1.0  T
   4    -45.6217439 -0.188794E-05  0.959E-03    9.13       2.2  T
   5    -45.6217440 -0.113557E-06  0.279E-03    9.13       7.5  T
   6    -45.6217440 -0.772683E-08  0.147E-03    9.13      14.2  T
speedup  1.06
cpu  time for SCC    0.01 s
wall time for SCC    0.00 s
speedup  1.00
cpu  time for grad    0.01 s
wall time for grad    0.01 s
 E :    -45.36159454  G :  0.019176    pred/act E change: -0.945D-03 -0.766D-03
Maxdispl :   0.0882   ||displ|| :   0.2594   Lambda : -0.937D-03
Largest |displ|/coords:  0.0882 (  10)  0.0824 (   1)  0.0743 (   6)
................................................................................
.............................. CYCLE   22 ......................................
................................................................................
   1    -45.6270888 -0.456271E+02  0.139E-01    9.25       0.0  T
   2    -45.6270978 -0.905811E-05  0.105E-01    9.24       1.0  T
   3    -45.6271037 -0.585829E-05  0.194E-02    9.24       1.1  T
   4    -45.6271051 -0.137702E-05  0.790E-03    9.24       2.6  T
   5    -45.6271051 -0.750589E-07  0.219E-03    9.24       9.5  T
   6    -45.6271051 -0.723249E-08  0.124E-03    9.24      16.8  T
speedup  0.87
cpu  time for SCC    0.00 s
wall time for SCC    0.00 s
speedup  1.00
cpu  time for grad    0.01 s
wall time for grad    0.01 s
 E :    -45.36204823  G :  0.011512    pred/act E change: -0.882D-03 -0.454D-03
Maxdispl :   0.1335   ||displ|| :   0.2762   Lambda : -0.748D-03
Largest |displ|/coords:  0.1335 (   5)  0.0897 (   2)  0.0792 (   3)
................................................................................
.............................. CYCLE   23 ......................................
................................................................................
   1    -45.6271600 -0.456272E+02  0.170E-01    9.12       0.0  T
   2    -45.6271730 -0.130016E-04  0.127E-01    9.12       1.0  T
   3    -45.6271799 -0.681372E-05  0.283E-02    9.11       1.0  T
   4    -45.6271818 -0.189608E-05  0.870E-03    9.12       2.4  T
   5    -45.6271818 -0.813633E-07  0.221E-03    9.12       9.4  T
   6    -45.6271818 -0.699927E-08  0.127E-03    9.12      16.4  T
speedup  1.06
cpu  time for SCC    0.00 s
wall time for SCC    0.00 s
speedup  1.00
cpu  time for grad    0.01 s
wall time for grad    0.01 s
 E :    -45.36227800  G :  0.018501    pred/act E change: -0.500D-03 -0.230D-03
Maxdispl :   0.0677   ||displ|| :   0.1326   Lambda : -0.561D-03
Largest |displ|/coords:  0.0677 (  16)  0.0599 (   1)  0.0419 (  18)
................................................................................
.............................. CYCLE   24 ......................................
................................................................................
   1    -45.6291004 -0.456291E+02  0.859E-02    9.24       0.0  T
   2    -45.6291041 -0.368779E-05  0.624E-02    9.24       1.0  T
   3    -45.6291059 -0.181342E-05  0.132E-02    9.24       1.6  T
   4    -45.6291064 -0.415428E-06  0.331E-03    9.24       6.3  T
   5    -45.6291064 -0.215776E-07  0.105E-03    9.24      19.9  T
   6    -45.6291064 -0.182477E-08  0.600E-04    9.24      34.7  T
speedup  1.09
cpu  time for SCC    0.00 s
wall time for SCC    0.00 s
speedup  1.01
cpu  time for grad    0.01 s
wall time for grad    0.01 s
 E :    -45.36255295  G :  0.010579    pred/act E change: -0.403D-03 -0.275D-03
Maxdispl :   0.1150   ||displ|| :   0.1967   Lambda : -0.601D-03
Largest |displ|/coords:  0.1150 (   1)  0.0590 (  17)  0.0483 (  13)
................................................................................
.............................. CYCLE   25 ......................................
................................................................................
   1    -45.6272398 -0.456272E+02  0.123E-01    9.28       0.0  T
   2    -45.6272474 -0.762464E-05  0.923E-02    9.28       1.0  T
   3    -45.6272519 -0.451747E-05  0.180E-02    9.28       1.2  T
   4    -45.6272530 -0.108911E-05  0.524E-03    9.28       4.0  T
   5    -45.6272531 -0.442854E-07  0.172E-03    9.28      12.1  T
   6    -45.6272531 -0.270644E-08  0.987E-04    9.28      21.1  T
speedup  0.85
cpu  time for SCC    0.00 s
wall time for SCC    0.00 s
speedup  1.00
cpu  time for grad    0.01 s
wall time for grad    0.01 s
 E :    -45.36278979  G :  0.015944    pred/act E change: -0.285D-03 -0.237D-03
Maxdispl :   0.0846   ||displ|| :   0.1454   Lambda : -0.443D-03
Largest |displ|/coords:  0.0846 (   1)  0.0438 (   2)  0.0394 (   3)

generating ANC from model Hessian ...
 Shifting diagonal of input Hessian by   5.118888274243109E-003
 Lowest  eigenvalues of input Hessian
    0.005000   -0.000000   -0.000000    0.000000    0.000000    0.000000
    0.000000    0.005151    0.005264    0.005514    0.005549    0.005725
    0.007023    0.007946    0.008795    0.009925    0.011649    0.012256
 Highest eigenvalues
    1.407547    1.446397    1.464309    2.578521    3.466636    3.600648
 
cpu  time for ANC gen    0.01 s
wall time for ANC gen    0.01 s
................................................................................
.............................. CYCLE   26 ......................................
................................................................................
   1    -45.6293499 -0.456293E+02  0.765E-02    9.24       0.0  T
   2    -45.6293540 -0.410496E-05  0.560E-02    9.24       1.0  T
   3    -45.6293559 -0.181824E-05  0.153E-02    9.24       1.4  T
   4    -45.6293562 -0.378085E-06  0.408E-03    9.24       5.1  T
   5    -45.6293563 -0.354772E-07  0.102E-03    9.24      20.5  T
   6    -45.6293563 -0.925041E-09  0.587E-04    9.24      35.5  T
   7    -45.6293563 -0.547928E-09  0.163E-04    9.24     128.3  T
speedup  0.91
cpu  time for SCC    0.01 s
wall time for SCC    0.01 s
speedup  0.98
cpu  time for grad    0.01 s
wall time for grad    0.01 s
 E :    -45.36306035  G :  0.010262    pred/act E change:  0.000D+00 -0.271D-03
Maxdispl :   0.0796   ||displ|| :   0.1804   Lambda : -0.512D-03
Largest |displ|/coords:  0.0796 (   3)  0.0772 (   6)  0.0620 (  11)
................................................................................
.............................. CYCLE   27 ......................................
................................................................................
   1    -45.6281347 -0.456281E+02  0.173E-01    9.23       0.0  T
   2    -45.6281397 -0.502630E-05  0.131E-01    9.23       1.0  T
   3    -45.6281448 -0.516237E-05  0.109E-02    9.23       1.9  T
   4    -45.6281454 -0.521236E-06  0.380E-03    9.23       5.5  T
   5    -45.6281454 -0.155885E-07  0.161E-03    9.23      13.0  T
   6    -45.6281454 -0.293621E-08  0.587E-04    9.23      35.5  T
speedup  0.85
cpu  time for SCC    0.00 s
wall time for SCC    0.00 s
speedup  1.00
cpu  time for grad    0.01 s
wall time for grad    0.01 s
 E :    -45.36346670  G :  0.006155    pred/act E change:  0.000D+00 -0.406D-03
Maxdispl :   0.2325   ||displ|| :   0.4704   Lambda : -0.924D-03
Largest |displ|/coords:  0.2325 (   6)  0.2062 (   3)  0.1674 (  12)
................................................................................
.............................. CYCLE   28 ......................................
................................................................................
   1    -45.6197467 -0.456197E+02  0.433E-01    9.19       0.0  T
   2    -45.6197923 -0.455873E-04  0.326E-01    9.19       1.0  T
   3    -45.6198263 -0.340011E-04  0.376E-02    9.19       1.0  T
   4    -45.6198332 -0.695167E-05  0.102E-02    9.19       2.0  T
   5    -45.6198334 -0.140839E-06  0.511E-03    9.19       4.1  T
   6    -45.6198334 -0.254918E-07  0.190E-03    9.19      11.0  T
   7    -45.6198334 -0.123296E-07  0.408E-04    9.19      51.1  T
speedup  1.11
cpu  time for SCC    0.01 s
wall time for SCC    0.01 s
speedup  1.03
cpu  time for grad    0.01 s
wall time for grad    0.01 s
 E :    -45.36302191  G :  0.041426    pred/act E change: -0.264D-03  0.445D-03
Maxdispl :   0.0996   ||displ|| :   0.2171   Lambda : -0.222D-02
Largest |displ|/coords:  0.0996 (   6)  0.0901 (  17)  0.0754 (   8)
................................................................................
.............................. CYCLE   29 ......................................
................................................................................
   1    -45.6271792 -0.456272E+02  0.266E-01    9.21       0.0  T
   2    -45.6272143 -0.350889E-04  0.200E-01    9.21       1.0  T
   3    -45.6272392 -0.248541E-04  0.352E-02    9.21       1.0  T
   4    -45.6272440 -0.484040E-05  0.720E-03    9.21       2.9  T
   5    -45.6272441 -0.591994E-07  0.417E-03    9.21       5.0  T
   6    -45.6272441 -0.135751E-07  0.107E-03    9.21      19.4  T
speedup  0.85
cpu  time for SCC    0.00 s
wall time for SCC    0.00 s
speedup  0.99
cpu  time for grad    0.01 s
wall time for grad    0.01 s
 E :    -45.36385495  G :  0.007466    pred/act E change: -0.564D-03 -0.833D-03
Maxdispl :   0.0735   ||displ|| :   0.1177   Lambda : -0.232D-03
Largest |displ|/coords:  0.0735 (   3)  0.0495 (  11)  0.0319 (  17)
................................................................................
.............................. CYCLE   30 ......................................
................................................................................
   1    -45.6280178 -0.456280E+02  0.103E-01    9.21       0.0  T
   2    -45.6280202 -0.241687E-05  0.781E-02    9.21       1.0  T
   3    -45.6280223 -0.206234E-05  0.805E-03    9.21       2.6  T
   4    -45.6280226 -0.311715E-06  0.244E-03    9.21       8.5  T
   5    -45.6280226 -0.108235E-07  0.829E-04    9.21      25.2  T
speedup  1.00
cpu  time for SCC    0.00 s
wall time for SCC    0.00 s
speedup  0.96
cpu  time for grad    0.01 s
wall time for grad    0.01 s
 E :    -45.36398799  G :  0.005427    pred/act E change: -0.116D-02 -0.133D-03
Maxdispl :   0.1714   ||displ|| :   0.2839   Lambda : -0.354D-03
Largest |displ|/coords:  0.1714 (   3)  0.1563 (   6)  0.1171 (  11)
................................................................................
.............................. CYCLE   31 ......................................
................................................................................
   1    -45.6270922 -0.456271E+02  0.204E-01    9.20       0.0  T
   2    -45.6270976 -0.537822E-05  0.154E-01    9.20       1.0  T
   3    -45.6271021 -0.449324E-05  0.121E-02    9.20       1.7  T
   4    -45.6271029 -0.772033E-06  0.420E-03    9.20       5.0  T
   5    -45.6271029 -0.219722E-07  0.187E-03    9.20      11.2  T
   6    -45.6271029 -0.346419E-08  0.826E-04    9.20      25.2  T
speedup  0.87
cpu  time for SCC    0.00 s
wall time for SCC    0.00 s
speedup  0.91
cpu  time for grad    0.01 s
wall time for grad    0.01 s
 E :    -45.36422705  G :  0.011216    pred/act E change: -0.118D-03 -0.239D-03
Maxdispl :   0.2546   ||displ|| :   0.3762   Lambda : -0.409D-03
Largest |displ|/coords:  0.2546 (   3)  0.1557 (  11)  0.1254 (   6)
................................................................................
.............................. CYCLE   32 ......................................
................................................................................
   1    -45.6241343 -0.456241E+02  0.250E-01    9.17       0.0  T
   2    -45.6241444 -0.100955E-04  0.189E-01    9.17       1.0  T
   3    -45.6241535 -0.914477E-05  0.167E-02    9.17       1.2  T
   4    -45.6241548 -0.133056E-05  0.552E-03    9.17       3.8  T
   5    -45.6241549 -0.376947E-07  0.256E-03    9.17       8.2  T
   6    -45.6241549 -0.648396E-08  0.110E-03    9.17      19.0  T
speedup  1.09
cpu  time for SCC    0.00 s
wall time for SCC    0.00 s
speedup  1.00
cpu  time for grad    0.01 s
wall time for grad    0.01 s
 E :    -45.36441860  G :  0.019357    pred/act E change: -0.191D-03 -0.192D-03
Maxdispl :   0.0964   ||displ|| :   0.1777   Lambda : -0.465D-03
Largest |displ|/coords:  0.0964 (   3)  0.0879 (   6)  0.0633 (  13)
................................................................................
.............................. CYCLE   33 ......................................
................................................................................
   1    -45.6279603 -0.456280E+02  0.105E-01    9.17       0.0  T
   2    -45.6279650 -0.467244E-05  0.780E-02    9.18       1.0  T
   3    -45.6279678 -0.275467E-05  0.133E-02    9.18       1.6  T
   4    -45.6279684 -0.630294E-06  0.277E-03    9.18       7.5  T
   5    -45.6279684 -0.119841E-07  0.124E-03    9.18      16.8  T
speedup  1.00
cpu  time for SCC    0.00 s
wall time for SCC    0.00 s
speedup  1.07
cpu  time for grad    0.01 s
wall time for grad    0.01 s
 E :    -45.36464257  G :  0.007660    pred/act E change: -0.233D-03 -0.224D-03
Maxdispl :   0.1943   ||displ|| :   0.2555   Lambda : -0.314D-03
Largest |displ|/coords:  0.1943 (   3)  0.0944 (  11)  0.0784 (   6)
................................................................................
.............................. CYCLE   34 ......................................
................................................................................
   1    -45.6277649 -0.456278E+02  0.139E-01    9.20       0.0  T
   2    -45.6277690 -0.406917E-05  0.105E-01    9.20       1.0  T
   3    -45.6277725 -0.347163E-05  0.115E-02    9.20       1.8  T
   4    -45.6277730 -0.562931E-06  0.368E-03    9.20       5.7  T
   5    -45.6277730 -0.189255E-07  0.170E-03    9.20      12.3  T
   6    -45.6277731 -0.293561E-08  0.775E-04    9.20      26.9  T
speedup  1.04
cpu  time for SCC    0.00 s
wall time for SCC    0.00 s
speedup  0.99
cpu  time for grad    0.01 s
wall time for grad    0.01 s
 E :    -45.36482449  G :  0.008742    pred/act E change: -0.240D-03 -0.182D-03
Maxdispl :   0.3306   ||displ|| :   0.4483   Lambda : -0.414D-03
Largest |displ|/coords:  0.3306 (   3)  0.1575 (   6)  0.1443 (  11)
................................................................................
.............................. CYCLE   35 ......................................
................................................................................
   1    -45.6256953 -0.456257E+02  0.269E-01    9.23       0.0  T
   2    -45.6257063 -0.110608E-04  0.203E-01    9.22       1.0  T
   3    -45.6257163 -0.100109E-04  0.182E-02    9.22       1.1  T
   4    -45.6257177 -0.137851E-05  0.636E-03    9.22       3.3  T
   5    -45.6257178 -0.457260E-07  0.272E-03    9.22       7.7  T
   6    -45.6257178 -0.689595E-08  0.125E-03    9.22      16.6  T
speedup  0.85
cpu  time for SCC    0.00 s
wall time for SCC    0.00 s
speedup  1.00
cpu  time for grad    0.01 s
wall time for grad    0.01 s
 E :    -45.36497605  G :  0.016685    pred/act E change: -0.167D-03 -0.152D-03
Maxdispl :   0.0365   ||displ|| :   0.0847   Lambda : -0.305D-03
Largest |displ|/coords:  0.0365 (   4)  0.0294 (   6)  0.0226 (  21)
................................................................................
.............................. CYCLE   36 ......................................
................................................................................
   1    -45.6297904 -0.456298E+02  0.916E-02    9.26       0.0  T
   2    -45.6297932 -0.277186E-05  0.696E-02    9.26       1.0  T
   3    -45.6297954 -0.221466E-05  0.974E-03    9.26       2.1  T
   4    -45.6297958 -0.382137E-06  0.211E-03    9.26       9.9  T
   5    -45.6297958 -0.309168E-08  0.108E-03    9.26      19.2  T
speedup  1.03
cpu  time for SCC    0.00 s
wall time for SCC    0.00 s
speedup  1.07
cpu  time for grad    0.01 s
wall time for grad    0.01 s
 E :    -45.36512494  G :  0.006154    pred/act E change: -0.249D-03 -0.149D-03
Maxdispl :   0.1998   ||displ|| :   0.2901   Lambda : -0.243D-03
Largest |displ|/coords:  0.1998 (   3)  0.1284 (   6)  0.0867 (   8)
................................................................................
.............................. CYCLE   37 ......................................
................................................................................
   1    -45.6277260 -0.456277E+02  0.172E-01    9.23       0.0  T
   2    -45.6277297 -0.371998E-05  0.130E-01    9.23       1.0  T
   3    -45.6277335 -0.379409E-05  0.103E-02    9.23       2.0  T
   4    -45.6277339 -0.411847E-06  0.413E-03    9.23       5.1  T
   5    -45.6277339 -0.217067E-07  0.157E-03    9.23      13.3  T
   6    -45.6277339 -0.251418E-08  0.694E-04    9.23      30.0  T
speedup  1.09
cpu  time for SCC    0.00 s
wall time for SCC    0.00 s
speedup  1.00
cpu  time for grad    0.01 s
wall time for grad    0.01 s
 E :    -45.36528336  G :  0.006043    pred/act E change: -0.153D-03 -0.158D-03
Maxdispl :   0.2973   ||displ|| :   0.4215   Lambda : -0.251D-03
Largest |displ|/coords:  0.2973 (   3)  0.1754 (   6)  0.1163 (   2)
................................................................................
.............................. CYCLE   38 ......................................
................................................................................
   1    -45.6254819 -0.456255E+02  0.253E-01    9.22       0.0  T
   2    -45.6254884 -0.653124E-05  0.191E-01    9.22       1.0  T
   3    -45.6254954 -0.699884E-05  0.146E-02    9.22       1.4  T
   4    -45.6254961 -0.638078E-06  0.551E-03    9.22       3.8  T
   5    -45.6254961 -0.341811E-07  0.218E-03    9.22       9.6  T
   6    -45.6254961 -0.414902E-08  0.906E-04    9.22      23.0  T
speedup  1.06
cpu  time for SCC    0.00 s
wall time for SCC    0.00 s
speedup  1.00
cpu  time for grad    0.01 s
wall time for grad    0.01 s
 E :    -45.36543284  G :  0.010619    pred/act E change: -0.132D-03 -0.149D-03
Maxdispl :   0.0995   ||displ|| :   0.1676   Lambda : -0.198D-03
Largest |displ|/coords:  0.0995 (   3)  0.0672 (   2)  0.0457 (   6)
................................................................................
.............................. CYCLE   39 ......................................
................................................................................
   1    -45.6275341 -0.456275E+02  0.119E-01    9.25       0.0  T
   2    -45.6275359 -0.180121E-05  0.894E-02    9.25       1.0  T
   3    -45.6275378 -0.186010E-05  0.965E-03    9.25       2.2  T
   4    -45.6275379 -0.173259E-06  0.302E-03    9.25       6.9  T
   5    -45.6275380 -0.108108E-07  0.104E-03    9.25      20.1  T
   6    -45.6275380 -0.789043E-09  0.553E-04    9.25      37.7  T
speedup  0.85
cpu  time for SCC    0.00 s
wall time for SCC    0.00 s
speedup  1.00
cpu  time for grad    0.01 s
wall time for grad    0.01 s
 E :    -45.36557937  G :  0.007870    pred/act E change: -0.148D-03 -0.147D-03
Maxdispl :   0.2637   ||displ|| :   0.4023   Lambda : -0.335D-03
Largest |displ|/coords:  0.2637 (   3)  0.1107 (   8)  0.1088 (   6)
................................................................................
.............................. CYCLE   40 ......................................
................................................................................
   1    -45.6259165 -0.456259E+02  0.316E-01    9.23       0.0  T
   2    -45.6259269 -0.104191E-04  0.239E-01    9.23       1.0  T
   3    -45.6259386 -0.116778E-04  0.192E-02    9.23       1.1  T
   4    -45.6259394 -0.763666E-06  0.629E-03    9.23       3.3  T
   5    -45.6259394 -0.403862E-07  0.251E-03    9.23       8.3  T
   6    -45.6259394 -0.342526E-08  0.107E-03    9.23      19.5  T
speedup  1.06
cpu  time for SCC    0.00 s
wall time for SCC    0.00 s
speedup  0.99
cpu  time for grad    0.01 s
wall time for grad    0.01 s
 E :    -45.36571772  G :  0.013957    pred/act E change: -0.102D-03 -0.138D-03
Maxdispl :   0.0551   ||displ|| :   0.1497   Lambda : -0.341D-03
Largest |displ|/coords:  0.0551 (  16)  0.0416 (   1)  0.0409 (   6)
................................................................................
.............................. CYCLE   41 ......................................
................................................................................
   1    -45.6297245 -0.456297E+02  0.121E-01    9.21       0.0  T
   2    -45.6297297 -0.522796E-05  0.905E-02    9.21       1.0  T
   3    -45.6297329 -0.313338E-05  0.150E-02    9.21       1.4  T
   4    -45.6297336 -0.709123E-06  0.394E-03    9.21       5.3  T
   5    -45.6297336 -0.343917E-07  0.137E-03    9.21      15.2  T
   6    -45.6297336 -0.959560E-09  0.809E-04    9.21      25.8  T
speedup  1.04
cpu  time for SCC    0.00 s
wall time for SCC    0.00 s
speedup  0.99
cpu  time for grad    0.01 s
wall time for grad    0.01 s
 E :    -45.36583905  G :  0.009787    pred/act E change: -0.195D-03 -0.121D-03
Maxdispl :   0.1898   ||displ|| :   0.2994   Lambda : -0.283D-03
Largest |displ|/coords:  0.1898 (   3)  0.1171 (   6)  0.1084 (   2)
................................................................................
.............................. CYCLE   42 ......................................
................................................................................
   1    -45.6273736 -0.456274E+02  0.218E-01    9.23       0.0  T
   2    -45.6273818 -0.825435E-05  0.165E-01    9.23       1.0  T
   3    -45.6273911 -0.925493E-05  0.158E-02    9.23       1.3  T
   4    -45.6273918 -0.772980E-06  0.650E-03    9.23       3.2  T
   5    -45.6273919 -0.469756E-07  0.241E-03    9.23       8.7  T
   6    -45.6273919 -0.506785E-08  0.109E-03    9.23      19.1  T
speedup  1.04
cpu  time for SCC    0.00 s
wall time for SCC    0.00 s
speedup  0.98
cpu  time for grad    0.01 s
wall time for grad    0.01 s
 E :    -45.36594195  G :  0.011475    pred/act E change: -0.174D-03 -0.103D-03
Maxdispl :   0.0398   ||displ|| :   0.0766   Lambda : -0.175D-03
Largest |displ|/coords:  0.0398 (   6)  0.0314 (   8)  0.0287 (   4)
................................................................................
.............................. CYCLE   43 ......................................
................................................................................
   1    -45.6303702 -0.456304E+02  0.874E-02    9.29       0.0  T
   2    -45.6303726 -0.239702E-05  0.657E-02    9.29       1.0  T
   3    -45.6303745 -0.187527E-05  0.109E-02    9.29       1.9  T
   4    -45.6303748 -0.289437E-06  0.270E-03    9.29       7.7  T
   5    -45.6303748 -0.115708E-07  0.899E-04    9.29      23.2  T
speedup  1.00
cpu  time for SCC    0.00 s
wall time for SCC    0.00 s
speedup  0.97
cpu  time for grad    0.01 s
wall time for grad    0.01 s
 E :    -45.36600437  G :  0.008081    pred/act E change: -0.154D-03 -0.624D-04
Maxdispl :   0.1225   ||displ|| :   0.2440   Lambda : -0.233D-03
Largest |displ|/coords:  0.1225 (   3)  0.0833 (   4)  0.0817 (   6)
................................................................................
.............................. CYCLE   44 ......................................
................................................................................
   1    -45.6271995 -0.456272E+02  0.229E-01    9.20       0.0  T
   2    -45.6272073 -0.778586E-05  0.173E-01    9.20       1.0  T
   3    -45.6272142 -0.693066E-05  0.167E-02    9.20       1.2  T
   4    -45.6272151 -0.935583E-06  0.580E-03    9.20       3.6  T
   5    -45.6272152 -0.358208E-07  0.181E-03    9.20      11.5  T
   6    -45.6272152 -0.114074E-08  0.882E-04    9.20      23.7  T
speedup  0.85
cpu  time for SCC    0.00 s
wall time for SCC    0.00 s
speedup  1.00
cpu  time for grad    0.01 s
wall time for grad    0.01 s
 E :    -45.36607843  G :  0.010327    pred/act E change: -0.882D-04 -0.741D-04
Maxdispl :   0.0507   ||displ|| :   0.1054   Lambda : -0.151D-03
Largest |displ|/coords:  0.0507 (   2)  0.0425 (   3)  0.0338 (   6)
................................................................................
.............................. CYCLE   45 ......................................
................................................................................
   1    -45.6285828 -0.456286E+02  0.937E-02    9.24       0.0  T
   2    -45.6285850 -0.216870E-05  0.707E-02    9.24       1.0  T
   3    -45.6285870 -0.203815E-05  0.945E-03    9.24       2.2  T
   4    -45.6285872 -0.259293E-06  0.311E-03    9.24       6.7  T
   5    -45.6285873 -0.104040E-07  0.106E-03    9.24      19.6  T
   6    -45.6285873 -0.866955E-09  0.551E-04    9.24      37.8  T
speedup  0.83
cpu  time for SCC    0.00 s
wall time for SCC    0.00 s
speedup  0.98
cpu  time for grad    0.01 s
wall time for grad    0.01 s
 E :    -45.36616686  G :  0.006436    pred/act E change: -0.123D-03 -0.884D-04
Maxdispl :   0.1133   ||displ|| :   0.2048   Lambda : -0.113D-03
Largest |displ|/coords:  0.1133 (   3)  0.0744 (   6)  0.0688 (   2)
................................................................................
.............................. CYCLE   46 ......................................
................................................................................
   1    -45.6273811 -0.456274E+02  0.141E-01    9.23       0.0  T
   2    -45.6273837 -0.258731E-05  0.106E-01    9.23       1.0  T
   3    -45.6273868 -0.311867E-05  0.954E-03    9.23       2.2  T
   4    -45.6273870 -0.185942E-06  0.416E-03    9.23       5.0  T
   5    -45.6273870 -0.167105E-07  0.127E-03    9.23      16.4  T
   6    -45.6273870 -0.173646E-08  0.768E-04    9.23      27.2  T
speedup  1.06
cpu  time for SCC    0.00 s
wall time for SCC    0.00 s
speedup  1.00
cpu  time for grad    0.01 s
wall time for grad    0.01 s
 E :    -45.36622819  G :  0.007721    pred/act E change: -0.763D-04 -0.613D-04
Maxdispl :   0.0726   ||displ|| :   0.1749   Lambda : -0.149D-03
Largest |displ|/coords:  0.0726 (  11)  0.0721 (   3)  0.0539 (   2)
................................................................................
.............................. CYCLE   47 ......................................
................................................................................
   1    -45.6301638 -0.456302E+02  0.112E-01    9.28       0.0  T
   2    -45.6301656 -0.180765E-05  0.825E-02    9.28       1.0  T
   3    -45.6301670 -0.144800E-05  0.118E-02    9.28       1.8  T
   4    -45.6301672 -0.191046E-06  0.286E-03    9.28       7.3  T
   5    -45.6301673 -0.165692E-07  0.942E-04    9.28      22.1  T
speedup  1.00
cpu  time for SCC    0.00 s
wall time for SCC    0.00 s
speedup  1.06
cpu  time for grad    0.01 s
wall time for grad    0.01 s
 E :    -45.36631722  G :  0.005422    pred/act E change: -0.587D-04 -0.890D-04
Maxdispl :   0.2415   ||displ|| :   0.4531   Lambda : -0.190D-03
Largest |displ|/coords:  0.2415 (   3)  0.1446 (   6)  0.1436 (  11)
................................................................................
.............................. CYCLE   48 ......................................
................................................................................
   1    -45.6267039 -0.456267E+02  0.307E-01    9.22       0.0  T
   2    -45.6267157 -0.117714E-04  0.231E-01    9.22       1.0  T
   3    -45.6267270 -0.112857E-04  0.209E-02    9.22       1.0  T
   4    -45.6267283 -0.133332E-05  0.889E-03    9.22       2.3  T
   5    -45.6267284 -0.716135E-07  0.265E-03    9.22       7.9  T
   6    -45.6267284 -0.712895E-08  0.155E-03    9.22      13.5  T
speedup  0.85
cpu  time for SCC    0.00 s
wall time for SCC    0.00 s
speedup  0.99
cpu  time for grad    0.01 s
wall time for grad    0.01 s
 E :    -45.36638666  G :  0.013047    pred/act E change: -0.768D-04 -0.694D-04
Maxdispl :   0.0547   ||displ|| :   0.0965   Lambda : -0.234D-03
Largest |displ|/coords:  0.0547 (   8)  0.0384 (  13)  0.0333 (  11)
................................................................................
.............................. CYCLE   49 ......................................
................................................................................
   1    -45.6286820 -0.456287E+02  0.847E-02    9.19       0.0  T
   2    -45.6286852 -0.313490E-05  0.639E-02    9.19       1.0  T
   3    -45.6286874 -0.217994E-05  0.106E-02    9.19       2.0  T
   4    -45.6286878 -0.444866E-06  0.347E-03    9.19       6.0  T
   5    -45.6286878 -0.179722E-07  0.118E-03    9.19      17.7  T
   6    -45.6286878 -0.109713E-08  0.605E-04    9.19      34.5  T
speedup  1.06
cpu  time for SCC    0.01 s
wall time for SCC    0.00 s
speedup  1.00
cpu  time for grad    0.01 s
wall time for grad    0.01 s
 E :    -45.36645203  G :  0.010097    pred/act E change: -0.114D-03 -0.654D-04
Maxdispl :   0.0845   ||displ|| :   0.1553   Lambda : -0.219D-03
Largest |displ|/coords:  0.0845 (   3)  0.0695 (   6)  0.0408 (   2)
................................................................................
.............................. CYCLE   50 ......................................
................................................................................
   1    -45.6296494 -0.456296E+02  0.101E-01    9.27       0.0  T
   2    -45.6296514 -0.205774E-05  0.755E-02    9.27       1.0  T
   3    -45.6296528 -0.141781E-05  0.116E-02    9.26       1.8  T
   4    -45.6296531 -0.295958E-06  0.292E-03    9.26       7.1  T
   5    -45.6296531 -0.113345E-07  0.977E-04    9.26      21.3  T
speedup  1.03
cpu  time for SCC    0.00 s
wall time for SCC    0.00 s
speedup  0.97
cpu  time for grad    0.01 s
wall time for grad    0.01 s
 E :    -45.36655745  G :  0.007347    pred/act E change: -0.118D-03 -0.105D-03
Maxdispl :   0.1859   ||displ|| :   0.3414   Lambda : -0.245D-03
Largest |displ|/coords:  0.1859 (   3)  0.1197 (   6)  0.1195 (  11)
................................................................................
.............................. CYCLE   51 ......................................
................................................................................
   1    -45.6277857 -0.456278E+02  0.218E-01    9.22       0.0  T
   2    -45.6277944 -0.871775E-05  0.165E-01    9.22       1.0  T
   3    -45.6278043 -0.988311E-05  0.159E-02    9.22       1.3  T
   4    -45.6278051 -0.786714E-06  0.720E-03    9.22       2.9  T
   5    -45.6278051 -0.541700E-07  0.207E-03    9.22      10.1  T
   6    -45.6278051 -0.381342E-08  0.107E-03    9.22      19.5  T
speedup  1.06
cpu  time for SCC    0.00 s
wall time for SCC    0.00 s
speedup  0.99
cpu  time for grad    0.01 s
wall time for grad    0.01 s
 E :    -45.36660439  G :  0.014505    pred/act E change: -0.112D-03 -0.469D-04
Maxdispl :   0.0884   ||displ|| :   0.2077   Lambda : -0.262D-03
Largest |displ|/coords:  0.0884 (   3)  0.0691 (  11)  0.0676 (   6)
................................................................................
.............................. CYCLE   52 ......................................
................................................................................
   1    -45.6274273 -0.456274E+02  0.157E-01    9.23       0.0  T
   2    -45.6274303 -0.305831E-05  0.119E-01    9.23       1.0  T
   3    -45.6274337 -0.332751E-05  0.938E-03    9.22       2.2  T
   4    -45.6274339 -0.245020E-06  0.362E-03    9.23       5.8  T
   5    -45.6274339 -0.121703E-07  0.128E-03    9.23      16.3  T
   6    -45.6274339 -0.136583E-08  0.640E-04    9.23      32.6  T
speedup  1.02
cpu  time for SCC    0.01 s
wall time for SCC    0.00 s
speedup  1.06
cpu  time for grad    0.01 s
wall time for grad    0.01 s
 E :    -45.36673010  G :  0.014059    pred/act E change: -0.137D-03 -0.126D-03
Maxdispl :   0.1060   ||displ|| :   0.1885   Lambda : -0.447D-03
Largest |displ|/coords:  0.1060 (   3)  0.0639 (   7)  0.0634 (   2)

generating ANC from model Hessian ...
 Shifting diagonal of input Hessian by   5.101308953391453E-003
 Lowest  eigenvalues of input Hessian
    0.005000   -0.000000   -0.000000   -0.000000   -0.000000    0.000000
    0.000000    0.005142    0.005383    0.005558    0.006332    0.006478
    0.007051    0.008250    0.008703    0.010039    0.010389    0.011525
 Highest eigenvalues
    1.418927    1.441606    1.468892    2.608296    3.519532    3.598499
 
cpu  time for ANC gen    0.01 s
wall time for ANC gen    0.01 s
................................................................................
.............................. CYCLE   53 ......................................
................................................................................
   1    -45.6369959 -0.456370E+02  0.146E-01    9.37       0.0  T
   2    -45.6370057 -0.982840E-05  0.107E-01    9.38       1.0  T
   3    -45.6370122 -0.651430E-05  0.208E-02    9.38       1.0  T
   4    -45.6370132 -0.101036E-05  0.691E-03    9.37       3.0  T
   5    -45.6370133 -0.597654E-07  0.208E-03    9.37      10.0  T
   6    -45.6370133 -0.349510E-08  0.118E-03    9.38      17.7  T
   7    -45.6370133 -0.194196E-08  0.295E-04    9.38      70.7  T
   8    -45.6370133 -0.200224E-09  0.742E-05    9.38     281.1  T
speedup  0.98
cpu  time for SCC    0.01 s
wall time for SCC    0.01 s
speedup  1.00
cpu  time for grad    0.01 s
wall time for grad    0.01 s
 E :    -45.36662041  G :  0.017235    pred/act E change:  0.000D+00  0.110D-03
Maxdispl :   0.0502   ||displ|| :   0.1124   Lambda : -0.423D-03
Largest |displ|/coords:  0.0502 (  11)  0.0408 (   6)  0.0393 (  19)
................................................................................
.............................. CYCLE   54 ......................................
................................................................................
   1    -45.6330991 -0.456331E+02  0.114E-01    9.34       0.0  T
   2    -45.6331019 -0.283999E-05  0.865E-02    9.34       1.0  T
   3    -45.6331046 -0.263514E-05  0.100E-02    9.34       2.1  T
   4    -45.6331049 -0.309239E-06  0.314E-03    9.34       6.6  T
   5    -45.6331049 -0.140838E-07  0.112E-03    9.34      18.6  T
   6    -45.6331049 -0.583590E-09  0.558E-04    9.34      37.4  T
speedup  1.06
cpu  time for SCC    0.01 s
wall time for SCC    0.00 s
speedup  0.99
cpu  time for grad    0.01 s
wall time for grad    0.01 s
 E :    -45.36687249  G :  0.005316    pred/act E change:  0.000D+00 -0.252D-03
Maxdispl :   0.0665   ||displ|| :   0.1292   Lambda : -0.163D-03
Largest |displ|/coords:  0.0665 (   7)  0.0580 (   6)  0.0388 (  15)
................................................................................
.............................. CYCLE   55 ......................................
................................................................................
   1    -45.6300050 -0.456300E+02  0.118E-01    9.29       0.0  T
   2    -45.6300075 -0.251818E-05  0.896E-02    9.29       1.0  T
   3    -45.6300102 -0.271148E-05  0.871E-03    9.29       2.4  T
   4    -45.6300104 -0.237318E-06  0.304E-03    9.29       6.9  T
   5    -45.6300104 -0.101042E-07  0.118E-03    9.29      17.7  T
   6    -45.6300105 -0.131048E-08  0.564E-04    9.29      37.0  T
speedup  0.85
cpu  time for SCC    0.00 s
wall time for SCC    0.00 s
speedup  0.99
cpu  time for grad    0.01 s
wall time for grad    0.01 s
 E :    -45.36696832  G :  0.005262    pred/act E change: -0.214D-03 -0.958D-04
Maxdispl :   0.0769   ||displ|| :   0.1393   Lambda : -0.101D-03
Largest |displ|/coords:  0.0769 (   7)  0.0512 (   6)  0.0481 (   9)
................................................................................
.............................. CYCLE   56 ......................................
................................................................................
   1    -45.6288369 -0.456288E+02  0.101E-01    9.25       0.0  T
   2    -45.6288381 -0.115430E-05  0.765E-02    9.25       1.0  T
   3    -45.6288395 -0.146849E-05  0.551E-03    9.25       3.8  T
   4    -45.6288396 -0.636212E-07  0.186E-03    9.25      11.2  T
   5    -45.6288396 -0.392381E-08  0.851E-04    9.25      24.5  T
speedup  1.03
cpu  time for SCC    0.00 s
wall time for SCC    0.00 s
speedup  1.06
cpu  time for grad    0.01 s
wall time for grad    0.01 s
 E :    -45.36704419  G :  0.007439    pred/act E change: -0.827D-04 -0.759D-04
Maxdispl :   0.1706   ||displ|| :   0.3151   Lambda : -0.200D-03
Largest |displ|/coords:  0.1706 (   7)  0.1322 (   6)  0.0996 (   3)
................................................................................
.............................. CYCLE   57 ......................................
................................................................................
   1    -45.6269721 -0.456270E+02  0.222E-01    9.17       0.0  T
   2    -45.6269770 -0.489669E-05  0.168E-01    9.17       1.0  T
   3    -45.6269830 -0.600523E-05  0.117E-02    9.17       1.8  T
   4    -45.6269833 -0.286722E-06  0.404E-03    9.17       5.2  T
   5    -45.6269833 -0.197816E-07  0.172E-03    9.17      12.1  T
   6    -45.6269833 -0.391285E-08  0.722E-04    9.17      28.9  T
speedup  1.06
cpu  time for SCC    0.00 s
wall time for SCC    0.00 s
speedup  1.08
cpu  time for grad    0.01 s
wall time for grad    0.01 s
 E :    -45.36716473  G :  0.012621    pred/act E change: -0.512D-04 -0.121D-03
Maxdispl :   0.0878   ||displ|| :   0.1761   Lambda : -0.181D-03
Largest |displ|/coords:  0.0878 (   6)  0.0806 (   7)  0.0759 (   3)
................................................................................
.............................. CYCLE   58 ......................................
................................................................................
   1    -45.6287028 -0.456287E+02  0.112E-01    9.17       0.0  T
   2    -45.6287043 -0.149271E-05  0.848E-02    9.17       1.0  T
   3    -45.6287059 -0.163031E-05  0.642E-03    9.17       3.2  T
   4    -45.6287060 -0.119971E-06  0.216E-03    9.17       9.7  T
   5    -45.6287060 -0.431293E-08  0.875E-04    9.17      23.8  T
speedup  1.03
cpu  time for SCC    0.00 s
wall time for SCC    0.00 s
speedup  1.06
cpu  time for grad    0.01 s
wall time for grad    0.01 s
 E :    -45.36729837  G :  0.010232    pred/act E change: -0.110D-03 -0.134D-03
Maxdispl :   0.1121   ||displ|| :   0.2479   Lambda : -0.268D-03
Largest |displ|/coords:  0.1121 (   6)  0.1113 (   3)  0.1084 (   7)
................................................................................
.............................. CYCLE   59 ......................................
................................................................................
   1    -45.6322083 -0.456322E+02  0.146E-01    9.26       0.0  T
   2    -45.6322109 -0.262353E-05  0.109E-01    9.26       1.0  T
   3    -45.6322136 -0.270227E-05  0.102E-02    9.26       2.1  T
   4    -45.6322138 -0.259511E-06  0.359E-03    9.26       5.8  T
   5    -45.6322139 -0.152307E-07  0.140E-03    9.26      14.9  T
   6    -45.6322139 -0.160179E-08  0.590E-04    9.26      35.4  T
speedup  1.06
cpu  time for SCC    0.00 s
wall time for SCC    0.00 s
speedup  0.99
cpu  time for grad    0.01 s
wall time for grad    0.01 s
 E :    -45.36748698  G :  0.006833    pred/act E change: -0.931D-04 -0.189D-03
Maxdispl :   0.1946   ||displ|| :   0.4322   Lambda : -0.262D-03
Largest |displ|/coords:  0.1946 (   7)  0.1887 (   6)  0.1605 (   2)
................................................................................
.............................. CYCLE   60 ......................................
................................................................................
   1    -45.6281160 -0.456281E+02  0.307E-01    9.27       0.0  T
   2    -45.6281281 -0.121065E-04  0.232E-01    9.27       1.0  T
   3    -45.6281410 -0.128873E-04  0.181E-02    9.27       1.2  T
   4    -45.6281421 -0.111030E-05  0.590E-03    9.27       3.5  T
   5    -45.6281421 -0.282784E-07  0.311E-03    9.27       6.7  T
   6    -45.6281421 -0.111251E-07  0.102E-03    9.27      20.5  T
   7    -45.6281421 -0.322752E-08  0.258E-04    9.27      80.8  T
speedup  1.13
cpu  time for SCC    0.01 s
wall time for SCC    0.01 s
speedup  1.02
cpu  time for grad    0.01 s
wall time for grad    0.01 s
 E :    -45.36738739  G :  0.020885    pred/act E change: -0.142D-03  0.996D-04
Maxdispl :   0.0695   ||displ|| :   0.1353   Lambda : -0.723D-03
Largest |displ|/coords:  0.0695 (   6)  0.0618 (   3)  0.0548 (   5)
................................................................................
.............................. CYCLE   61 ......................................
................................................................................
   1    -45.6340835 -0.456341E+02  0.179E-01    9.36       0.0  T
   2    -45.6340931 -0.960370E-05  0.136E-01    9.36       1.0  T
   3    -45.6341020 -0.886841E-05  0.170E-02    9.36       1.2  T
   4    -45.6341031 -0.107529E-05  0.457E-03    9.36       4.6  T
   5    -45.6341031 -0.230642E-07  0.201E-03    9.36      10.4  T
speedup  1.03
cpu  time for SCC    0.00 s
wall time for SCC    0.00 s
speedup  0.97
cpu  time for grad    0.01 s
wall time for grad    0.01 s
 E :    -45.36763721  G :  0.007978    pred/act E change: -0.155D-03 -0.250D-03
Maxdispl :   0.0382   ||displ|| :   0.0894   Lambda : -0.152D-03
Largest |displ|/coords:  0.0382 (  13)  0.0309 (   9)  0.0286 (   5)
................................................................................
.............................. CYCLE   62 ......................................
................................................................................
   1    -45.6334046 -0.456334E+02  0.959E-02    9.32       0.0  T
   2    -45.6334071 -0.245580E-05  0.728E-02    9.32       1.0  T
   3    -45.6334097 -0.259171E-05  0.926E-03    9.31       2.3  T
   4    -45.6334099 -0.238950E-06  0.293E-03    9.31       7.1  T
   5    -45.6334099 -0.834718E-08  0.113E-03    9.31      18.5  T
speedup  1.03
cpu  time for SCC    0.00 s
wall time for SCC    0.00 s
speedup  0.97
cpu  time for grad    0.01 s
wall time for grad    0.01 s
 E :    -45.36766080  G :  0.009268    pred/act E change: -0.368D-03 -0.236D-04
Maxdispl :   0.0708   ||displ|| :   0.1108   Lambda : -0.177D-03
Largest |displ|/coords:  0.0708 (   5)  0.0491 (   2)  0.0352 (   7)
................................................................................
.............................. CYCLE   63 ......................................
................................................................................
   1    -45.6336358 -0.456336E+02  0.136E-01    9.31       0.0  T
   2    -45.6336404 -0.460106E-05  0.104E-01    9.31       1.0  T
   3    -45.6336451 -0.465345E-05  0.112E-02    9.31       1.9  T
   4    -45.6336455 -0.433967E-06  0.294E-03    9.31       7.1  T
   5    -45.6336455 -0.119882E-07  0.129E-03    9.31      16.2  T
speedup  1.00
cpu  time for SCC    0.00 s
wall time for SCC    0.00 s
speedup  1.06
cpu  time for grad    0.01 s
wall time for grad    0.01 s
 E :    -45.36766668  G :  0.010105    pred/act E change: -0.768D-04 -0.587D-05
Maxdispl :   0.1222   ||displ|| :   0.2184   Lambda : -0.210D-03
Largest |displ|/coords:  0.1222 (   7)  0.0846 (   1)  0.0739 (   5)
................................................................................
.............................. CYCLE   64 ......................................
................................................................................
   1    -45.6315313 -0.456315E+02  0.170E-01    9.28       0.0  T
   2    -45.6315360 -0.469390E-05  0.129E-01    9.28       1.0  T
   3    -45.6315427 -0.671832E-05  0.962E-03    9.28       2.2  T
   4    -45.6315428 -0.107593E-06  0.431E-03    9.28       4.8  T
   5    -45.6315428 -0.185075E-07  0.125E-03    9.28      16.7  T
   6    -45.6315428 -0.187689E-08  0.565E-04    9.28      36.9  T
speedup  1.06
cpu  time for SCC    0.00 s
wall time for SCC    0.00 s
speedup  0.98
cpu  time for grad    0.01 s
wall time for grad    0.01 s
 E :    -45.36775701  G :  0.005878    pred/act E change: -0.895D-04 -0.903D-04
Maxdispl :   0.0489   ||displ|| :   0.0646   Lambda : -0.780D-04
Largest |displ|/coords:  0.0489 (   9)  0.0220 (  13)  0.0208 (   7)
................................................................................
.............................. CYCLE   65 ......................................
................................................................................
   1    -45.6337754 -0.456338E+02  0.488E-02    9.34       0.0  T
   2    -45.6337761 -0.680611E-06  0.365E-02    9.34       1.0  T
   3    -45.6337767 -0.567369E-06  0.547E-03    9.34       3.8  T
   4    -45.6337768 -0.809630E-07  0.147E-03    9.34      14.2  T
   5    -45.6337768 -0.389202E-08  0.607E-04    9.34      34.3  T
speedup  1.00
cpu  time for SCC    0.00 s
wall time for SCC    0.00 s
speedup  1.05
cpu  time for grad    0.01 s
wall time for grad    0.01 s
 E :    -45.36778952  G :  0.004689    pred/act E change: -0.110D-03 -0.325D-04
Maxdispl :   0.0595   ||displ|| :   0.1146   Lambda : -0.599D-04
[...]
wall time for SCC    0.00 s
speedup  1.07
cpu  time for grad    0.01 s
wall time for grad    0.01 s
 E :    -45.37583296  G :  0.000448    pred/act E change: -0.411D-06 -0.586D-06
Maxdispl :   0.0101   ||displ|| :   0.0203   Lambda : -0.869D-06
Largest |displ|/coords:  0.0101 (  31)  0.0090 (   2)  0.0055 (   1)
................................................................................
.............................. CYCLE  220 ......................................
................................................................................
   1    -45.6399936 -0.456400E+02  0.223E-02    9.29       0.0  T
   2    -45.6399937 -0.774401E-07  0.165E-02    9.29       1.3  T
   3    -45.6399937 -0.317058E-07  0.314E-03    9.29       6.6  T
   4    -45.6399938 -0.122682E-07  0.838E-04    9.29      24.9  T
   5    -45.6399938 -0.411532E-09  0.113E-04    9.29     184.7  T
speedup  1.03
cpu  time for SCC    0.00 s
wall time for SCC    0.00 s
speedup  0.97
cpu  time for grad    0.01 s
wall time for grad    0.01 s
 E :    -45.37583354  G :  0.000406    pred/act E change: -0.459D-06 -0.579D-06
Maxdispl :   0.0169   ||displ|| :   0.0225   Lambda : -0.929D-06
Largest |displ|/coords:  0.0169 (   1)  0.0068 (   8)  0.0064 (   3)
................................................................................
.............................. CYCLE  221 ......................................
................................................................................
   1    -45.6400085 -0.456400E+02  0.169E-02    9.29       0.0  T
   2    -45.6400085 -0.287985E-07  0.127E-02    9.29       1.6  T
   3    -45.6400085 -0.261218E-07  0.126E-03    9.29      16.6  T
   4    -45.6400085 -0.347185E-08  0.421E-04    9.29      49.5  T
   5    -45.6400085 -0.228368E-09  0.134E-04    9.29     155.2  T
speedup  1.00
cpu  time for SCC    0.00 s
wall time for SCC    0.00 s
speedup  1.06
cpu  time for grad    0.01 s
wall time for grad    0.01 s
 E :    -45.37583422  G :  0.000391    pred/act E change: -0.435D-06 -0.679D-06
Maxdispl :   0.0202   ||displ|| :   0.0274   Lambda : -0.935D-06
Largest |displ|/coords:  0.0202 (   1)  0.0103 (   3)  0.0072 (   8)
................................................................................
.............................. CYCLE  222 ......................................
................................................................................
   1    -45.6399950 -0.456400E+02  0.209E-02    9.29       0.0  T
   2    -45.6399950 -0.341642E-07  0.157E-02    9.29       1.3  T
   3    -45.6399951 -0.351883E-07  0.129E-03    9.29      16.1  T
   4    -45.6399951 -0.347259E-08  0.472E-04    9.29      44.2  T
   5    -45.6399951 -0.250516E-09  0.154E-04    9.29     135.3  T
speedup  1.00
cpu  time for SCC    0.00 s
wall time for SCC    0.00 s
speedup  0.97
cpu  time for grad    0.01 s
wall time for grad    0.01 s
 E :    -45.37583490  G :  0.000387    pred/act E change: -0.465D-06 -0.679D-06
Maxdispl :   0.0228   ||displ|| :   0.0304   Lambda : -0.785D-06
Largest |displ|/coords:  0.0228 (   1)  0.0135 (   3)  0.0076 (   8)
................................................................................
.............................. CYCLE  223 ......................................
................................................................................
   1    -45.6400169 -0.456400E+02  0.209E-02    9.29       0.0  T
   2    -45.6400169 -0.300638E-07  0.158E-02    9.29       1.3  T
   3    -45.6400169 -0.329516E-07  0.111E-03    9.30      18.9  T
   4    -45.6400169 -0.275941E-08  0.405E-04    9.30      51.5  T
   5    -45.6400169 -0.188813E-09  0.149E-04    9.29     139.8  T
speedup  0.98
cpu  time for SCC    0.00 s
wall time for SCC    0.00 s
speedup  0.96
cpu  time for grad    0.01 s
wall time for grad    0.01 s
 E :    -45.37583548  G :  0.000369    pred/act E change: -0.468D-06 -0.575D-06
Maxdispl :   0.0229   ||displ|| :   0.0300   Lambda : -0.699D-06
Largest |displ|/coords:  0.0229 (   1)  0.0140 (   3)  0.0067 (   8)

generating ANC from model Hessian ...
 Shifting diagonal of input Hessian by   4.588457828854755E-003
 Lowest  eigenvalues of input Hessian
   -0.000000   -0.000000    0.000000    0.000000    0.000000    0.000000
    0.005000    0.005326    0.005703    0.006455    0.006806    0.007690
    0.007959    0.008919    0.009561    0.010581    0.010829    0.012114
 Highest eigenvalues
    1.410284    1.413490    1.441270    2.617671    3.536285    3.559519
 
cpu  time for ANC gen    0.02 s
wall time for ANC gen    0.02 s
................................................................................
.............................. CYCLE  224 ......................................
................................................................................
   1    -45.6400341 -0.456400E+02  0.205E-02    9.29       0.0  T
   2    -45.6400341 -0.258614E-07  0.155E-02    9.30       1.3  T
   3    -45.6400341 -0.289798E-07  0.879E-04    9.30      23.7  T
   4    -45.6400341 -0.218696E-08  0.389E-04    9.30      53.7  T
speedup  0.91
cpu  time for SCC    0.00 s
wall time for SCC    0.00 s
speedup  1.04
cpu  time for grad    0.01 s
wall time for grad    0.01 s
 E :    -45.37583599  G :  0.000294    pred/act E change:  0.000D+00 -0.517D-06
Maxdispl :   0.0017   ||displ|| :   0.0035   Lambda : -0.279D-06
Largest |displ|/coords:  0.0017 (   9)  0.0013 (   5)  0.0012 (  10)
................................................................................
.............................. CYCLE  225 ......................................
................................................................................
   1    -45.6400373 -0.456400E+02  0.271E-03    9.30       0.0  T
   2    -45.6400373 -0.137324E-08  0.204E-03    9.30      10.2  T
   3    -45.6400373 -0.134818E-08  0.278E-04    9.30      74.9  T
   4    -45.6400373 -0.153470E-09  0.108E-04    9.30     192.6  T
speedup  0.61
cpu  time for SCC    0.00 s
wall time for SCC    0.00 s
speedup  0.85
cpu  time for grad    0.01 s
wall time for grad    0.01 s
 E :    -45.37583619  G :  0.000181    pred/act E change:  0.000D+00 -0.197D-06
Maxdispl :   0.0049   ||displ|| :   0.0088   Lambda : -0.452D-06
Largest |displ|/coords:  0.0049 (   3)  0.0033 (   1)  0.0032 (  10)
................................................................................
.............................. CYCLE  226 ......................................
................................................................................
   1    -45.6400394 -0.456400E+02  0.530E-03    9.29       0.0  T
   2    -45.6400394 -0.490030E-08  0.395E-03    9.29       5.3  T
   3    -45.6400394 -0.408497E-08  0.584E-04    9.29      35.7  T
   4    -45.6400394 -0.550713E-09  0.175E-04    9.29     119.1  T
speedup  1.21
cpu  time for SCC    0.00 s
wall time for SCC    0.00 s
speedup  1.05
cpu  time for grad    0.01 s
wall time for grad    0.01 s
 E :    -45.37583645  G :  0.000185    pred/act E change: -0.140D-06 -0.262D-06
Maxdispl :   0.0028   ||displ|| :   0.0054   Lambda : -0.126D-06
Largest |displ|/coords:  0.0028 (   3)  0.0027 (   1)  0.0019 (  10)
................................................................................
.............................. CYCLE  227 ......................................
................................................................................
   1    -45.6400299 -0.456400E+02  0.305E-03    9.29       0.0  T
   2    -45.6400299 -0.138890E-08  0.230E-03    9.29       9.1  T
   3    -45.6400299 -0.151304E-08  0.253E-04    9.29      82.3  T
   4    -45.6400299 -0.119798E-09  0.961E-05    9.29     217.1  T
speedup  0.91
cpu  time for SCC    0.00 s
wall time for SCC    0.00 s
speedup  0.94
cpu  time for grad    0.01 s
wall time for grad    0.01 s
 E :    -45.37583656  G :  0.000158    pred/act E change: -0.226D-06 -0.106D-06
Maxdispl :   0.0071   ||displ|| :   0.0128   Lambda : -0.237D-06
Largest |displ|/coords:  0.0071 (   1)  0.0070 (   3)  0.0041 (  10)
................................................................................
.............................. CYCLE  228 ......................................
................................................................................
   1    -45.6400171 -0.456400E+02  0.684E-03    9.29       0.0  T
   2    -45.6400171 -0.659099E-08  0.517E-03    9.29       4.0  T
   3    -45.6400171 -0.782629E-08  0.453E-04    9.29      46.1  T
   4    -45.6400171 -0.528146E-09  0.179E-04    9.29     116.3  T
speedup  0.91
cpu  time for SCC    0.00 s
wall time for SCC    0.00 s
speedup  0.94
cpu  time for grad    0.01 s
wall time for grad    0.01 s
 E :    -45.37583671  G :  0.000139    pred/act E change: -0.628D-07 -0.153D-06
Maxdispl :   0.0043   ||displ|| :   0.0063   Lambda : -0.794D-07
Largest |displ|/coords:  0.0043 (   1)  0.0032 (   3)  0.0019 (  10)
................................................................................
.............................. CYCLE  229 ......................................
................................................................................
   1    -45.6400253 -0.456400E+02  0.305E-03    9.29       0.0  T
   2    -45.6400253 -0.151058E-08  0.230E-03    9.29       9.1  T
   3    -45.6400253 -0.143092E-08  0.205E-04    9.29     101.5  T
   4    -45.6400253 -0.201361E-09  0.765E-05    9.29     272.5  T
speedup  0.91
cpu  time for SCC    0.00 s
wall time for SCC    0.00 s
speedup  0.95
cpu  time for grad    0.01 s
wall time for grad    0.01 s
 E :    -45.37583677  G :  0.000121    pred/act E change: -0.118D-06 -0.626D-07
Maxdispl :   0.0068   ||displ|| :   0.0093   Lambda : -0.941D-07
Largest |displ|/coords:  0.0068 (   1)  0.0043 (   3)  0.0026 (  10)

   *** GEOMETRY OPTIMIZATION CONVERGED AFTER 229 ITERATIONS ***

------------------------------------------------------------------------
 total energy gain (kcal):     -0.0005
------------------------------------------------------------------------
================
 final structure:
================
$coord
       -2.88414649323026        0.45740361876592        1.04019566617121      S 
       -2.41046404825526        2.94325210012687       -0.00891746876310      O 
       -2.89447777938523       -1.51535502478446       -0.88415780264845      O 
       -1.18878642784836       -0.11030108004112        3.11684771920278      O 
       -5.66205382477616        0.48073912293266        2.15292195657396      O 
       -5.65509653333895        1.90420352542634        3.25288978989404      H 
        1.62620103190663       -1.36981223586816        2.33408391765797      H 
        3.01131148882753       -2.23217567713776        1.44605293451509      O 
        2.36388083807700       -3.94587660622799        1.25886366904073      H 
       -0.53096169016096       -5.81045158288666        0.51086092686142      O 
       -1.58434123310245       -4.38750636478396       -0.01741834548349      H 
       -1.42580509729983       -6.61815196581017        1.86180038139211      H 
        2.42778808603433        3.87224700047768        1.77077165314045      O 
        3.09041368069656        2.59773273044636        2.87634893723997      H 
        0.63239134629709        3.53058455539629        1.62067583961146      H 
        1.39428208276221        4.31726341424340       -3.22878791735402      O 
       -0.31231870825792        4.32139175827342       -2.54639433037721      H 
        2.42491832069545        4.75148364483566       -1.77266143697054      H 
        1.54802397238056       -0.64650197564849       -3.01260342361478      N 
        2.14284808918402       -1.64220931093053       -4.53953382950236      H 
        1.69785361238827        1.34619140663961       -3.30245186111102      H 
       -0.34692530719242       -1.04023848534041       -2.59254648361240      H 
        2.53546459364378       -1.20391254919503       -1.33684051082114      H 
$end
 
 Bond Distances (Angstroems)
 ---------------------------
S1-O2=1.4496         S1-O3=1.4584         S1-O4=1.4501         S1-O5=1.5836         O2-S1=1.4496         O3-S1=1.4584         
O4-S1=1.4501         O5-S1=1.5836         O5-H6=0.9520         H6-O5=0.9520         H7-O8=0.9830         O8-H7=0.9830         
O8-H9=0.9745         H9-O8=0.9745         O10-H11=0.9777       O10-H12=0.9581       H11-O10=0.9777       H12-O10=0.9581       
O13-H14=0.9592       O13-H15=0.9704       H14-O13=0.9592       H15-O13=0.9704       O16-H17=0.9726       O16-H18=0.9716       
H17-O16=0.9726       H18-O16=0.9716       N19-H20=1.0147       N19-H21=1.0685       N19-H22=1.0480       N19-H23=1.0707       
H20-N19=1.0147       H21-N19=1.0685       H22-N19=1.0480       H23-N19=1.0707       
 N  H  Rav=1.0505 sigma=0.0225  Rmin=1.0147  Rmax=1.0707     4
 O  H  Rav=0.9688 sigma=0.0096  Rmin=0.9520  Rmax=0.9830     9
 S  O  Rav=1.4854 sigma=0.0568  Rmin=1.4496  Rmax=1.5836     4
 
 selected bond angles (degree)
 --------------------
O3-S1-O2=112.51                O4-S1-O2=111.79                O4-S1-O3=112.53                O5-S1-O2=107.21                
O5-S1-O3=105.17                O5-S1-O4=107.11                H6-O5-S1=103.29                H9-O8-H7=102.62                
H12-O10-H11=105.97             
 
 selected dihedral angles (degree)
 ---------------------------------
H6-O5-S1-O2=306.47            H6-O5-S1-O3=186.52            H6-O5-S1-O4= 66.60            
 
 CMA Distance (Angstroems)
 ---------------------------
R(CMA):  2.5274

========================================================================
 FINAL SINGLEPOINT CALCULATION ON OPTIMIZED GEOMETRY
========================================================================

 Ncao       : 59
 Nao        : 58
 Nshell     : 34
 Nel        : 72
 T(el)      :   300.0
 intcut     :    25.0
 scfconv/Eh :  0.100E-05
   qconv/e  :  0.100E-03
 intneglect :  0.100E-07
 broydamp   :      0.250
 iter      E             dE          RMSdq      gap      omega  full diag
   1    -45.6400253 -0.456400E+02  0.233E-05    9.29       0.0  T
   2    -45.6400253 -0.952127E-12  0.147E-05    9.29    1419.9  T
   3    -45.6400253 -0.426326E-12  0.480E-06    9.29    4346.7  T
speedup  0.83
cpu  time for SCC    0.00 s
wall time for SCC    0.00 s

   *** convergence criteria satisfied after 3 iterations ***

          eigenvalues
 #    :          24         25         26         27         28         29         30         31
 occ. :        2.000      2.000      2.000      2.000      2.000      2.000      2.000      2.000
 eps  :       -13.930    -13.613    -13.487    -12.757    -12.492    -12.429    -12.346    -12.238
 #    :          32         33         34         35         36         37         38         39
 occ. :        2.000      2.000      2.000      2.000      2.000      0.000      0.000      0.000
 eps  :       -12.189    -12.104    -11.986    -11.933    -11.819     -2.525     -0.801     -0.599
 #    :          40         41         42         43         44         45         46         47
 occ. :        0.000      0.000      0.000      0.000      0.000      0.000      0.000      0.000
 eps  :         0.712      1.149      1.915      2.049      3.477      3.807      4.432      5.180


   #   Z            q   n(s)   n(p)   n(d)      C6AA      α(0)
   1  16 S      1.669  1.583  1.792  0.956    89.480    15.921
   2   8 O     -0.754  1.770  4.984  0.000    30.221     7.371
   3   8 O     -0.731  1.765  4.965  0.000    29.560     7.290
   4   8 O     -0.747  1.771  4.976  0.000    30.026     7.347
   5   8 O     -0.584  1.750  4.834  0.000    24.774     6.719
   6   1 H      0.345  0.655  0.000  0.000     0.593     1.206
   7   1 H      0.325  0.675  0.000  0.000     0.651     1.267
   8   8 O     -0.620  1.756  4.863  0.000    25.661     6.837
   9   1 H      0.323  0.677  0.000  0.000     0.657     1.273
  10   8 O     -0.611  1.742  4.870  0.000    25.457     6.810
  11   1 H      0.317  0.683  0.000  0.000     0.672     1.287
  12   1 H      0.283  0.717  0.000  0.000     0.776     1.383
  13   8 O     -0.614  1.737  4.877  0.000    25.525     6.819
  14   1 H      0.296  0.704  0.000  0.000     0.732     1.343
  15   1 H      0.305  0.695  0.000  0.000     0.706     1.320
  16   8 O     -0.591  1.746  4.845  0.000    24.966     6.744
  17   1 H      0.326  0.674  0.000  0.000     0.649     1.265
  18   1 H      0.330  0.670  0.000  0.000     0.638     1.255
  19   7 N     -0.359  1.281  4.078  0.000    29.227     8.029
  20   1 H      0.232  0.768  0.000  0.000     0.958     1.533
  21   1 H      0.292  0.708  0.000  0.000     0.736     1.344
  22   1 H      0.275  0.725  0.000  0.000     0.792     1.395
  23   1 H      0.293  0.707  0.000  0.000     0.734     1.342

 Mol. C6AA /au·bohr⁶  :       4498.642888
 Mol. C8AA /au·bohr⁸  :      99074.938920
 Mol. α(0) /au        :         97.100323

 
 Wiberg/Mayer (AO) data. WBOs > 0.1 written file <wbo>
 largest (>0.05) Wiberg bond orders for each atom
           total WBO             WBO to atom ...
     1  S   4.869    O    2 1.324    O    4 1.323    O    3 1.287    O    5 0.897
     2  O   1.705    S    1 1.324    O    4 0.113    O    3 0.106    O    5 0.076
     3  O   1.759    S    1 1.287    O    4 0.110    O    2 0.106    H   22 0.080    O    5 0.059
     4  O   1.713    S    1 1.323    O    2 0.113    O    3 0.110    O    5 0.075    H    7 0.058
     5  O   1.977    S    1 0.897    H    6 0.864    O    2 0.076    O    4 0.075    O    3 0.059
     6  H   0.881    O    5 0.864
     7  H   0.894    O    8 0.829    O    4 0.058
     8  O   1.931    H    9 0.857    H    7 0.829    H   23 0.127    N   19 0.063
     9  H   0.896    O    8 0.857
    10  O   1.846    H   12 0.917    H   11 0.846
    11  H   0.899    O   10 0.846
    12  H   0.920    O   10 0.917
    13  O   1.833    H   14 0.904    H   15 0.868
    14  H   0.912    O   13 0.904
    15  H   0.907    O   13 0.868
    16  O   1.954    H   18 0.864    H   17 0.864    H   21 0.129    N   19 0.064
    17  H   0.894    O   16 0.864
    18  H   0.891    O   16 0.864
    19  N   3.515    H   20 0.943    H   22 0.835    H   23 0.782    H   21 0.781    O   16 0.064    O    8 0.063
    20  H   0.946    N   19 0.943
    21  H   0.914    N   19 0.781    O   16 0.129
    22  H   0.924    N   19 0.835    O    3 0.080
    23  H   0.914    N   19 0.782    O    8 0.127
 MOs/occ written to file <molden.input>
 
molecular dipole:
                 x           y           z       tot (Debye)
 q only:        0.788      -0.438      -0.888
   full:       -0.190      -0.557      -0.209       1.587
molecular quadrupole (traceless):
                xx          xy          yy          xz          yz          zz
 q only:       -2.312      -3.528      -4.577      -8.375       2.857       6.889
  q+dip:       -1.653      -4.485      -5.885      -9.718       3.722       7.538
   full:       -1.201      -4.651      -6.047     -10.089       3.816       7.248

SCC energy    :     -45.6400253
rep           :       0.2639903
ES            :       0.2341679
AES           :      -0.0665578
AXC           :      -0.0077764
disp          :      -0.0177973
XB            :       0.0000000
fix           :       0.0000000
total E       :     -45.3758368
atomizationE  :       4.4588993     2798.00
(atE without considering molecular charge,
 total energy contains solvation terms)
H-L gap (eV)  :          9.2939
optimized geometry written to: xtbopt.xyz


------------------------------------------------------------------------
 * finished run on 2019/09/16 at 11:48:17.682     
------------------------------------------------------------------------
 total:
 * wall-time:     0 d,  0 h,  0 min,  4.248 sec
 *  cpu-time:     0 d,  0 h,  0 min,  4.200 sec
 * ratio c/w:     0.989 speedup
 SCF:
 * wall-time:     0 d,  0 h,  0 min,  0.117 sec
 *  cpu-time:     0 d,  0 h,  0 min,  0.114 sec
 * ratio c/w:     0.973 speedup
 ANC optimizer:
 * wall-time:     0 d,  0 h,  0 min,  4.106 sec
 *  cpu-time:     0 d,  0 h,  0 min,  4.063 sec
 * ratio c/w:     0.990 speedup

