      -----------------------------------------------------------      
     |                   =====================                   |     
     |                           x T B                           |     
     |                   =====================                   |     
     |                         S. Grimme                         |     
     |          Mulliken Center for Theoretical Chemistry        |     
     |                    University of Bonn                     |     
     |                 Version 6.0.1 (SAW181210)                 |     
      -----------------------------------------------------------      

   This program is distributed in the hope that it will be useful,
   but WITHOUT ANY WARRANTY; without even the implied warranty of
   MERCHANTABILITY or FITNESS FOR A PARTICULAR PURPOSE.
   
   FOR NON-COMMERCIAL, ACADEMIA USE ONLY.
   
   Cite this work as:
   S. Grimme, C. Bannwarth, P. Shushkov, J. Comput. Theory Chem., 2017,
   13, 1989-2009.
   C. Bannwarth, S. Ehlert and S. Grimme., ChemRxiv, 2018, preprint.
   http://doi.org/10.26434/chemrxiv.7246238.v1
   
   for sTDA-xTB:
   S. Grimme and C. Bannwarth, J. Chem. Phys., 2016, 145, 054103.
   
   in the mass-spec context:
   V. Asgeirsson, C. Bauer and S. Grimme, Chem. Sci., 2017, 8, 4879.
   
   if GBSA is used:
   P. Shushkov, F. März and S. Grimme, unpublished.
   
   for ANC optimizer:
   S. Grimme, unpublished.
   Rational Function algorithm used in ANCopt:
   F. Eckert, P. Pulay, H.-J. Werner, J. Comput. Chem., 1997, 18, 1473.
   
   with help from (in alphabetical order)
   C. Bannwarth, F. Bohle, G. Brandenburg, E. Caldeweyher, M. Checinski,
   S. Dohm, S. Ehlert, S. Ehrlich, F. März, H. Neugebauer, J. Pisarek,
   P. Pracht, P. Shushkov, and S. Spicher.
   
 * started run on 2019/09/16 at 12:04:13.971     
========================================================================
 # omp threads = 1
========================================================================
number of atoms            : 23
number of electrons        : 72
charge                     : 0
spin                       : .0
first test random number   : .8423

########################################################################
# WARNING! Please study the warnings concerning your input carefully
#  - XTBPATH is not set, using XTBHOME instead
#  - the use of '-opt' is discouraged, please use '--opt' next time
#  - the use of '-chrg' is discouraged, please use '--chrg' next time
#  - the use of '-uhf' is discouraged, please use '--uhf' next time
########################################################################

           ------------------------------------------------- 
          |                 G F N 2 - x T B                 |
          | Geometry, Frequencies, Noncovalent interactions |
          |            JCTC 2018 parametrisation            |
           ------------------------------------------------- 
      method parameters     
 k(s)        :  1.8500
 k(p)        :  2.2300
 k(d)        :  2.2300
 k(f)        :  2.0000
 kEN (H0ij)  : -2.0000
 D4 a1       :  0.5200
 D4 a2       :  5.0000
 D4 s6       :  1.0000
 D4 s8       :  2.7000
 D4 s9       :  5.0000
 alphaj      :  2.0000


            Z     q(EN)     CN     RAES       Cart. coordinates
     1  S   6.0    0.58    4.28    4.21     3.13002     0.70138    -2.88198
     2  O   6.0   -0.31    1.13    1.80     3.04613    -0.73537    -0.53461
     3  O   6.0   -0.27    1.09    1.80     5.36021     2.01749    -3.73738
     4  O   6.0   -0.23    2.04    1.83     2.06740    -1.15215    -5.11372
     5  O   6.0   -0.23    2.07    1.83     0.88431     2.75527    -2.95977
     6  H   1.0    0.18    1.31    1.50    -0.64530     2.01062    -2.25822
     7  H   1.0    0.16    1.19    1.46     2.55322    -2.87083    -4.67049
     8  O   6.0   -0.40    1.64    1.81    -2.75754     0.65470    -1.02174
     9  H   1.0    0.18    0.94    1.42    -4.07797     0.15419    -2.24228
    10  O   6.0   -0.28    2.01    1.83     4.05976    -5.59609    -3.82521
    11  H   1.0    0.14    0.97    1.43     4.41484    -6.94239    -4.99824
    12  H   1.0    0.15    0.97    1.43     4.85920    -6.09223    -2.26657
    13  O   6.0   -0.29    2.03    1.83    -2.15156     2.31073     6.28615
    14  H   1.0    0.15    0.97    1.43    -2.43282     3.46565     7.66516
    15  H   1.0    0.16    1.05    1.44    -2.76554     3.17178     4.80418
    16  O   6.0   -0.30    2.05    1.83    -3.58934     4.20390     1.89269
    17  H   1.0    0.15    0.97    1.43    -3.82038     5.66638     0.83327
    18  H   1.0    0.18    1.14    1.45    -3.36770     2.80813     0.74494
    19  N   5.0   -0.14    3.96    2.75    -0.95339    -1.30623     2.85676
    20  H   1.0    0.13    1.18    1.46    -1.91219    -0.61173     1.31313
    21  H   1.0    0.11    1.01    1.43     0.94308    -1.42856     2.44099
    22  H   1.0    0.10    1.06    1.44    -1.20962    -0.11162     4.37060
    23  H   1.0    0.08    0.99    1.43    -1.63484    -3.07301     3.30234

  Z AO/shell   Hii/eV     exponent
  1     Wed Apr 25 08:07:45 CEST 2018   EN: 2.200 GM2: 0.406  GM3: 0.0800  RAES: 1.40
     1s    -10.707211    1.230000
  7     Wed Apr 25 08:07:45 CEST 2018   EN: 3.040 GM2: 0.461  GM3:-0.0640  RAES: 1.90
     2s    -16.686243    2.339881
     2p    -12.523956    2.014332
  8     Wed Apr 25 08:07:45 CEST 2018   EN: 3.440 GM2: 0.452  GM3:-0.0517  RAES: 1.80
     2s    -20.229985    2.439742
     2p    -15.503117    2.137023
 16     Tue Apr 24 11:44:34 CEST 2018   EN: 2.580 GM2: 0.340  GM3:-0.0502  RAES: 3.10
     3s    -20.029654    1.981333
     3p    -11.377694    2.025643
     3d     -0.420282    1.702555
 no old-style atom pair restraining (fixing) potential

molecular fragmentation (1/2 indicates fragments):
11111112222222222222222
# atoms in fragment 1/2:     7    16
 fragment masses (1/2) :       98.07       89.09
CMA distance (Bohr)    :   5.854
constraining FC (au)   :  0.0500
           ------------------------------------------------- 
          |        Self-Consistent Charge Iterations        |
           ------------------------------------------------- 

 Ncao       : 59
 Nao        : 58
 Nshell     : 34
 Nel        : 72
 T(el)      :   300.0
 intcut     :    25.0
 scfconv/Eh :  0.100E-05
   qconv/e  :  0.100E-03
 intneglect :  0.100E-07
 broydamp   :      0.250
 iter      E             dE          RMSdq      gap      omega  full diag
   1    -45.4728507 -0.454729E+02  0.717E+00    8.16       0.0  T
   2    -45.5184121 -0.455614E-01  0.504E+00    7.35       1.0  T
   3    -45.5542754 -0.358633E-01  0.120E+00    5.16       1.0  T
   4    -45.5574720 -0.319662E-02  0.663E-01    5.33       1.0  T
   5    -45.5588261 -0.135412E-02  0.271E-01    5.41       1.0  T
   6    -45.5591239 -0.297774E-03  0.161E-01    5.44       1.0  T
   7    -45.5592710 -0.147061E-03  0.417E-02    5.44       1.0  T
   8    -45.5592785 -0.751687E-05  0.234E-02    5.44       1.0  T
   9    -45.5592810 -0.248540E-05  0.922E-03    5.45       2.3  T
  10    -45.5592813 -0.330509E-06  0.292E-03    5.45       7.1  T
  11    -45.5592813 -0.225808E-07  0.106E-03    5.45      19.7  T
  12    -45.5592813 -0.418540E-08  0.395E-04    5.45      52.8  T
  13    -45.5592813 -0.497884E-09  0.172E-04    5.45     121.1  T
speedup  1.03
cpu  time for SCC    0.01 s
wall time for SCC    0.01 s

   *** convergence criteria satisfied after 13 iterations ***

          eigenvalues
 #    :          24         25         26         27         28         29         30         31
 occ. :        2.000      2.000      2.000      2.000      2.000      2.000      2.000      2.000
 eps  :       -13.128    -12.895    -12.750    -12.210    -12.127    -12.061    -12.034    -11.962
 #    :          32         33         34         35         36         37         38         39
 occ. :        2.000      2.000      2.000      2.000      2.000      0.000      0.000      0.000
 eps  :       -11.808    -11.645    -11.081     -9.751     -9.491     -4.043     -1.344     -0.892
 #    :          40         41         42         43         44         45         46         47
 occ. :        0.000      0.000      0.000      0.000      0.000      0.000      0.000      0.000
 eps  :        -0.381      0.721      1.633      1.962      2.712      4.065      4.384      5.099


   #   Z            q   n(s)   n(p)   n(d)      C6AA      α(0)
   1  16 S      1.600  1.633  1.829  0.938    91.063    16.061
   2   8 O     -0.682  1.761  4.921  0.000    28.219     7.122
   3   8 O     -0.622  1.769  4.854  0.000    26.668     6.924
   4   8 O     -0.587  1.761  4.826  0.000    24.853     6.730
   5   8 O     -0.595  1.761  4.834  0.000    25.040     6.755
   6   1 H      0.384  0.616  0.000  0.000     0.510     1.119
   7   1 H      0.367  0.633  0.000  0.000     0.547     1.161
   8   8 O     -0.867  1.835  5.033  0.000    33.683     7.782
   9   1 H      0.207  0.793  0.000  0.000     1.082     1.634
  10   8 O     -0.577  1.740  4.837  0.000    24.650     6.701
  11   1 H      0.303  0.697  0.000  0.000     0.711     1.324
  12   1 H      0.306  0.694  0.000  0.000     0.704     1.318
  13   8 O     -0.623  1.733  4.890  0.000    25.734     6.847
  14   1 H      0.281  0.719  0.000  0.000     0.780     1.387
  15   1 H      0.341  0.659  0.000  0.000     0.608     1.225
  16   8 O     -0.662  1.749  4.913  0.000    26.709     6.975
  17   1 H      0.271  0.729  0.000  0.000     0.815     1.418
  18   1 H      0.334  0.666  0.000  0.000     0.624     1.239
  19   7 N     -0.305  1.259  4.046  0.000    27.845     7.837
  20   1 H      0.327  0.673  0.000  0.000     0.635     1.247
  21   1 H      0.273  0.727  0.000  0.000     0.800     1.401
  22   1 H      0.298  0.702  0.000  0.000     0.720     1.330
  23   1 H      0.226  0.774  0.000  0.000     0.982     1.552

 Mol. C6AA /au·bohr⁶  :       4494.239925
 Mol. C8AA /au·bohr⁸  :      99038.023326
 Mol. α(0) /au        :         97.089119

 
 Wiberg/Mayer (AO) data. WBOs > 0.1 written file <wbo>
 largest (>0.05) Wiberg bond orders for each atom
           total WBO             WBO to atom ...
     1  S   4.808    O    3 1.485    O    2 1.383    O    5 1.005    O    4 0.909
     2  O   1.749    S    1 1.383    O    3 0.138    O    5 0.101    O    4 0.093
     3  O   1.819    S    1 1.485    O    2 0.138    O    4 0.094    O    5 0.089
     4  O   1.978    S    1 0.909    H    7 0.798    O    3 0.094    O    2 0.093    O    5 0.057
     5  O   1.988    S    1 1.005    H    6 0.673    O    2 0.101    O    3 0.089    O    4 0.057    O    8 0.052
     6  H   0.853    O    5 0.673    O    8 0.165
     7  H   0.865    O    4 0.798
     8  O   1.576    H    9 0.941    H    6 0.165    H   20 0.164    H   18 0.125    N   19 0.066    O   16 0.052    O    5 0.052
     9  H   0.957    O    8 0.941
    10  O   1.869    H   11 0.903    H   12 0.900
    11  H   0.908    O   10 0.903
    12  H   0.907    O   10 0.900
    13  O   1.835    H   14 0.906    H   15 0.828    H   22 0.052
    14  H   0.921    O   13 0.906
    15  H   0.883    O   13 0.828    O   16 0.052
    16  O   1.804    H   17 0.914    H   18 0.761    O    8 0.052    H   15 0.052
    17  H   0.926    O   16 0.914
    18  H   0.888    O   16 0.761    O    8 0.125
    19  N   3.541    H   23 0.945    H   21 0.897    H   22 0.853    H   20 0.721    O    8 0.066
    20  H   0.893    N   19 0.721    O    8 0.164
    21  H   0.925    N   19 0.897
    22  H   0.911    N   19 0.853    O   13 0.052
    23  H   0.949    N   19 0.945
 MOs/occ written to file <molden.input>
 
molecular dipole:
                 x           y           z       tot (Debye)
 q only:       -0.308      -2.758       2.056
   full:       -0.483      -3.003       1.776       8.952
molecular quadrupole (traceless):
                xx          xy          yy          xz          yz          zz
 q only:      -10.875     -13.858      12.804       1.065       9.745      -1.929
  q+dip:      -11.252     -18.957      16.324       2.152      12.708      -5.071
   full:      -11.813     -19.296      16.710       2.436      13.068      -4.896

SCC energy    :     -45.5592813
rep           :       0.2574531
ES            :       0.2620575
AES           :      -0.0450346
AXC           :      -0.0047277
disp          :      -0.0144150
XB            :       0.0000000
fix           :       0.0000000
total E       :     -45.3016905
atomizationE  :       4.3847530     2751.47
(atE without considering molecular charge,
 total energy contains solvation terms)
H-L gap (eV)  :          5.4479
           ------------------------------------------------- 
          |                 ===============                 |
          |                   A N C O P T                   |
          |                 ===============                 |
          |          Approximate Normal Coordinate          |
          |           Rational Function Optimizer           |
           ------------------------------------------------- 
dumping coords to <xtbopt.coord> and <xtbopt.log>
 optlevel               2
 Maxcycle             460
 Maxmicro              25
 Econv         1.000000000000000E-007
 Gconv         2.000000000000000E-004
 Maxdispl       1.00000000000000     
 Hlow          5.000000000000000E-003
 S6             20.0000000000000     
 Nvar               63

generating ANC from model Hessian ...
 Shifting diagonal of input Hessian by   5.185318801365223E-003
 Lowest  eigenvalues of input Hessian
    0.005000    0.005060   -0.000000   -0.000000   -0.000000    0.000000
    0.000000    0.000000    0.005213    0.005476    0.005547    0.005632
    0.005834    0.006102    0.006349    0.006801    0.008008    0.008535
 Highest eigenvalues
    1.432790    1.442882    1.449440    1.952260    2.767353    3.589226
 
cpu  time for ANC gen    0.01 s
wall time for ANC gen    0.01 s
................................................................................
.............................. CYCLE    1 ......................................
................................................................................
   1    -45.5592813 -0.455593E+02  0.615E-05    5.45       0.0  T
   2    -45.5592813 -0.547118E-11  0.490E-05    5.45     425.4  T
   3    -45.5592813 -0.776623E-11  0.181E-05    5.45    1150.0  T
speedup  0.80
cpu  time for SCC    0.00 s
wall time for SCC    0.00 s
speedup  0.98
cpu  time for grad    0.01 s
wall time for grad    0.01 s
 E :    -45.30169045  G :  0.154489    pred/act E change:  0.000D+00  0.302D-07
Maxdispl :   0.1760   ||displ|| :   0.2956   Lambda : -0.207D-01
Largest |displ|/coords:  0.1760 (  12)  0.0894 (  10)  0.0595 (  17)
................................................................................
.............................. CYCLE    2 ......................................
................................................................................
   1    -45.5688808 -0.455689E+02  0.374E-01    6.19       0.0  T
   2    -45.5690406 -0.159742E-03  0.280E-01    6.27       1.0  T
   3    -45.5691050 -0.643939E-04  0.691E-02    6.44       1.0  T
   4    -45.5691253 -0.203031E-04  0.279E-02    6.43       1.0  T
   5    -45.5691265 -0.121602E-05  0.617E-03    6.41       3.4  T
   6    -45.5691266 -0.718995E-07  0.332E-03    6.41       6.3  T
   7    -45.5691266 -0.152168E-07  0.147E-03    6.41      14.2  T
speedup  0.93
cpu  time for SCC    0.00 s
wall time for SCC    0.01 s
speedup  0.96
cpu  time for grad    0.01 s
wall time for grad    0.01 s
 E :    -45.31749739  G :  0.086695    pred/act E change:  0.000D+00 -0.158D-01
Maxdispl :   0.2106   ||displ|| :   0.3448   Lambda : -0.915D-02
Largest |displ|/coords:  0.2106 (  12)  0.1113 (   5)  0.1057 (   7)
................................................................................
.............................. CYCLE    3 ......................................
................................................................................
   1    -45.5727133 -0.455727E+02  0.421E-01    7.00       0.0  T
   2    -45.5728866 -0.173261E-03  0.315E-01    7.10       1.0  T
   3    -45.5729491 -0.625449E-04  0.728E-02    7.31       1.0  T
   4    -45.5729744 -0.252662E-04  0.231E-02    7.28       1.0  T
   5    -45.5729757 -0.127275E-05  0.474E-03    7.26       4.4  T
   6    -45.5729757 -0.312468E-07  0.296E-03    7.26       7.1  T
speedup  1.06
cpu  time for SCC    0.00 s
wall time for SCC    0.00 s
speedup  1.02
cpu  time for grad    0.01 s
wall time for grad    0.01 s
 E :    -45.32481976  G :  0.063263    pred/act E change: -0.113D-01 -0.732D-02
Maxdispl :   0.1102   ||displ|| :   0.2944   Lambda : -0.565D-02
Largest |displ|/coords:  0.1102 (  11)  0.1088 (  15)  0.0909 (  10)
................................................................................
.............................. CYCLE    4 ......................................
................................................................................
   1    -45.5841267 -0.455841E+02  0.330E-01    7.76       0.0  T
   2    -45.5842884 -0.161690E-03  0.244E-01    7.84       1.0  T
   3    -45.5843479 -0.594680E-04  0.704E-02    8.01       1.0  T
   4    -45.5843645 -0.166794E-04  0.208E-02    7.99       1.0  T
   5    -45.5843656 -0.101622E-05  0.493E-03    7.98       4.2  T
   6    -45.5843656 -0.307547E-07  0.297E-03    7.98       7.0  T
speedup  1.06
cpu  time for SCC    0.00 s
wall time for SCC    0.00 s
speedup  1.02
cpu  time for grad    0.01 s
wall time for grad    0.01 s
 E :    -45.32875025  G :  0.038577    pred/act E change: -0.512D-02 -0.393D-02
Maxdispl :   0.3234   ||displ|| :   0.6265   Lambda : -0.886D-02
Largest |displ|/coords:  0.3234 (  12)  0.2278 (   4)  0.1782 (  15)
................................................................................
.............................. CYCLE    5 ......................................
................................................................................
   1    -45.5736185 -0.455736E+02  0.841E-01    8.79       0.0  T
   2    -45.5745540 -0.935464E-03  0.622E-01    9.00       1.0  T
   3    -45.5748747 -0.320664E-03  0.169E-01    9.27       1.0  T
   4    -45.5749852 -0.110536E-03  0.424E-02    9.25       1.0  T
   5    -45.5749903 -0.510055E-05  0.987E-03    9.23       2.1  T
   6    -45.5749904 -0.989858E-07  0.647E-03    9.23       3.2  T
   7    -45.5749905 -0.793624E-07  0.215E-03    9.23       9.7  T
   8    -45.5749905 -0.916452E-08  0.753E-04    9.23      27.7  T
speedup  1.00
cpu  time for SCC    0.01 s
wall time for SCC    0.01 s
speedup  0.98
cpu  time for grad    0.01 s
wall time for grad    0.01 s
 E :    -45.33200386  G :  0.059662    pred/act E change: -0.307D-02 -0.325D-02
Maxdispl :   0.1876   ||displ|| :   0.4468   Lambda : -0.896D-02
Largest |displ|/coords:  0.1876 (   4)  0.1736 (   8)  0.1675 (  11)
................................................................................
.............................. CYCLE    6 ......................................
................................................................................
   1    -45.5916367 -0.455916E+02  0.821E-01    8.92       0.0  T
   2    -45.5919773 -0.340603E-03  0.622E-01    8.89       1.0  T
   3    -45.5921559 -0.178544E-03  0.114E-01    8.80       1.0  T
   4    -45.5922128 -0.568824E-04  0.284E-02    8.83       1.0  T
   5    -45.5922153 -0.248693E-05  0.970E-03    8.83       2.1  T
   6    -45.5922153 -0.592126E-07  0.512E-03    8.83       4.1  T
   7    -45.5922153 -0.258152E-07  0.106E-03    8.83      19.7  T
speedup  1.09
cpu  time for SCC    0.01 s
wall time for SCC    0.01 s
speedup  1.03
cpu  time for grad    0.01 s
wall time for grad    0.01 s
 E :    -45.33270541  G :  0.036167    pred/act E change: -0.617D-02 -0.702D-03
Maxdispl :   0.1828   ||displ|| :   0.3320   Lambda : -0.244D-02
Largest |displ|/coords:  0.1828 (  11)  0.0991 (  15)  0.0949 (  14)
................................................................................
.............................. CYCLE    7 ......................................
................................................................................
   1    -45.5847024 -0.455847E+02  0.335E-01    8.86       0.0  T
   2    -45.5847891 -0.866621E-04  0.250E-01    8.89       1.0  T
   3    -45.5848268 -0.377361E-04  0.559E-02    8.95       1.0  T
   4    -45.5848398 -0.129702E-04  0.117E-02    8.94       1.8  T
   5    -45.5848402 -0.455690E-06  0.453E-03    8.94       4.6  T
   6    -45.5848403 -0.173255E-07  0.281E-03    8.94       7.4  T
speedup  1.09
cpu  time for SCC    0.00 s
wall time for SCC    0.00 s
speedup  1.02
cpu  time for grad    0.01 s
wall time for grad    0.01 s
 E :    -45.33404897  G :  0.036913    pred/act E change: -0.538D-02 -0.134D-02
Maxdispl :   0.2273   ||displ|| :   0.5571   Lambda : -0.497D-02
Largest |displ|/coords:  0.2273 (   4)  0.2098 (  19)  0.1827 (  10)
................................................................................
.............................. CYCLE    8 ......................................
................................................................................
   1    -45.5781720 -0.455782E+02  0.546E-01    8.94       0.0  T
   2    -45.5784553 -0.283346E-03  0.406E-01    8.97       1.0  T
   3    -45.5785776 -0.122274E-03  0.997E-02    9.01       1.0  T
   4    -45.5786168 -0.392565E-04  0.228E-02    9.01       1.0  T
   5    -45.5786182 -0.133817E-05  0.767E-03    9.01       2.7  T
   6    -45.5786182 -0.417792E-07  0.484E-03    9.01       4.3  T
   7    -45.5786183 -0.341528E-07  0.973E-04    9.01      21.4  T
speedup  0.93
cpu  time for SCC    0.00 s
wall time for SCC    0.01 s
speedup  0.95
cpu  time for grad    0.01 s
wall time for grad    0.01 s
 E :    -45.33407915  G :  0.064660    pred/act E change: -0.135D-02 -0.302D-04
Maxdispl :   0.2114   ||displ|| :   0.4650   Lambda : -0.101D-01
Largest |displ|/coords:  0.2114 (  19)  0.1590 (   9)  0.1564 (   5)
................................................................................
.............................. CYCLE    9 ......................................
................................................................................
   1    -45.5852849 -0.455853E+02  0.580E-01    8.95       0.0  T
   2    -45.5855722 -0.287324E-03  0.433E-01    8.94       1.0  T
   3    -45.5857099 -0.137743E-03  0.101E-01    8.90       1.0  T
   4    -45.5857503 -0.403965E-04  0.253E-02    8.92       1.0  T
   5    -45.5857519 -0.154181E-05  0.866E-03    8.92       2.4  T
   6    -45.5857519 -0.435371E-07  0.478E-03    8.92       4.4  T
   7    -45.5857519 -0.348246E-07  0.111E-03    8.92      18.7  T
speedup  0.93
cpu  time for SCC    0.00 s
wall time for SCC    0.01 s
speedup  0.95
cpu  time for grad    0.01 s
wall time for grad    0.01 s
 E :    -45.33483932  G :  0.056563    pred/act E change: -0.326D-02 -0.760D-03
Maxdispl :   0.1809   ||displ|| :   0.4390   Lambda : -0.867D-02
Largest |displ|/coords:  0.1809 (  10)  0.1767 (   5)  0.1727 (   4)
................................................................................
.............................. CYCLE   10 ......................................
................................................................................
   1    -45.5883817 -0.455884E+02  0.654E-01    8.87       0.0  T
   2    -45.5885722 -0.190473E-03  0.495E-01    8.89       1.0  T
   3    -45.5887039 -0.131725E-03  0.810E-02    8.92       1.0  T
   4    -45.5887322 -0.283394E-04  0.177E-02    8.91       1.2  T
   5    -45.5887326 -0.416357E-06  0.904E-03    8.91       2.3  T
   6    -45.5887327 -0.421032E-07  0.387E-03    8.91       5.4  T
   7    -45.5887327 -0.293303E-07  0.700E-04    8.91      29.8  T
speedup  0.94
cpu  time for SCC    0.00 s
wall time for SCC    0.01 s
speedup  1.04
cpu  time for grad    0.01 s
wall time for grad    0.01 s
 E :    -45.33638605  G :  0.048292    pred/act E change: -0.615D-02 -0.155D-02
Maxdispl :   0.1302   ||displ|| :   0.2486   Lambda : -0.284D-02
Largest |displ|/coords:  0.1302 (   7)  0.1222 (   5)  0.0827 (   6)
................................................................................
.............................. CYCLE   11 ......................................
................................................................................
   1    -45.5868344 -0.455868E+02  0.337E-01    8.94       0.0  T
   2    -45.5868750 -0.405952E-04  0.256E-01    8.94       1.0  T
   3    -45.5869036 -0.286118E-04  0.361E-02    8.95       1.0  T
   4    -45.5869099 -0.624097E-05  0.106E-02    8.95       2.0  T
   5    -45.5869101 -0.264141E-06  0.385E-03    8.95       5.4  T
   6    -45.5869101 -0.786219E-08  0.231E-03    8.95       9.0  T
speedup  1.09
cpu  time for SCC    0.01 s
wall time for SCC    0.00 s
speedup  1.01
cpu  time for grad    0.01 s
wall time for grad    0.01 s
 E :    -45.33826550  G :  0.029574    pred/act E change: -0.517D-02 -0.188D-02
Maxdispl :   0.1070   ||displ|| :   0.2524   Lambda : -0.198D-02
Largest |displ|/coords:  0.1070 (   5)  0.1031 (   7)  0.1016 (  11)
................................................................................
.............................. CYCLE   12 ......................................
................................................................................
   1    -45.5865538 -0.455866E+02  0.248E-01    8.92       0.0  T
   2    -45.5866074 -0.535402E-04  0.186E-01    8.93       1.0  T
   3    -45.5866360 -0.286247E-04  0.469E-02    8.93       1.0  T
   4    -45.5866426 -0.661776E-05  0.140E-02    8.93       1.5  T
   5    -45.5866431 -0.513941E-06  0.446E-03    8.93       4.7  T
   6    -45.5866431 -0.161243E-07  0.275E-03    8.93       7.6  T
speedup  1.09
cpu  time for SCC    0.00 s
wall time for SCC    0.00 s
speedup  1.01
cpu  time for grad    0.01 s
wall time for grad    0.01 s
 E :    -45.33922481  G :  0.036548    pred/act E change: -0.151D-02 -0.959D-03
Maxdispl :   0.1248   ||displ|| :   0.2916   Lambda : -0.214D-02
Largest |displ|/coords:  0.1248 (   4)  0.1153 (   7)  0.0973 (   6)
................................................................................
.............................. CYCLE   13 ......................................
................................................................................
   1    -45.5888328 -0.455888E+02  0.266E-01    8.91       0.0  T
   2    -45.5888894 -0.566372E-04  0.202E-01    8.91       1.0  T
   3    -45.5889162 -0.267176E-04  0.532E-02    8.91       1.0  T
   4    -45.5889245 -0.836002E-05  0.152E-02    8.91       1.4  T
   5    -45.5889250 -0.491917E-06  0.433E-03    8.91       4.8  T
   6    -45.5889250 -0.145620E-07  0.249E-03    8.91       8.4  T
speedup  1.06
cpu  time for SCC    0.00 s
wall time for SCC    0.00 s
speedup  1.01
cpu  time for grad    0.01 s
wall time for grad    0.01 s
 E :    -45.34109480  G :  0.041659    pred/act E change: -0.105D-02 -0.187D-02
Maxdispl :   0.3194   ||displ|| :   0.6918   Lambda : -0.722D-02
Largest |displ|/coords:  0.3194 (   4)  0.2228 (  15)  0.2203 (   7)
................................................................................
.............................. CYCLE   14 ......................................
................................................................................
   1    -45.5984477 -0.455984E+02  0.645E-01    8.85       0.0  T
   2    -45.5988866 -0.438929E-03  0.490E-01    8.85       1.0  T
   3    -45.5991090 -0.222401E-03  0.143E-01    8.84       1.0  T
   4    -45.5991658 -0.567719E-04  0.464E-02    8.84       1.0  T
   5    -45.5991697 -0.390318E-05  0.128E-02    8.84       1.6  T
   6    -45.5991698 -0.147334E-06  0.770E-03    8.84       2.7  T
   7    -45.5991699 -0.891526E-07  0.218E-03    8.84       9.6  T
   8    -45.5991699 -0.116358E-07  0.637E-04    8.84      32.7  T
speedup  1.11
cpu  time for SCC    0.01 s
wall time for SCC    0.01 s
speedup  1.03
cpu  time for grad    0.01 s
wall time for grad    0.01 s
 E :    -45.34653467  G :  0.056343    pred/act E change: -0.116D-02 -0.544D-02
Maxdispl :   0.1817   ||displ|| :   0.3644   Lambda : -0.731D-02
Largest |displ|/coords:  0.1817 (  15)  0.1260 (   6)  0.1131 (   3)
................................................................................
.............................. CYCLE   15 ......................................
................................................................................
   1    -45.6192866 -0.456193E+02  0.432E-01    8.77       0.0  T
   2    -45.6194661 -0.179590E-03  0.317E-01    8.78       1.0  T
   3    -45.6195634 -0.972655E-04  0.836E-02    8.78       1.0  T
   4    -45.6195792 -0.157909E-04  0.246E-02    8.77       1.0  T
   5    -45.6195804 -0.117816E-05  0.765E-03    8.78       2.7  T
   6    -45.6195804 -0.242373E-07  0.416E-03    8.78       5.0  T
   7    -45.6195804 -0.294305E-07  0.976E-04    8.78      21.4  T
speedup  0.93
cpu  time for SCC    0.00 s
wall time for SCC    0.01 s
speedup  0.94
cpu  time for grad    0.01 s
wall time for grad    0.01 s
 E :    -45.34872227  G :  0.063497    pred/act E change: -0.534D-02 -0.219D-02
Maxdispl :   0.1925   ||displ|| :   0.4767   Lambda : -0.116D-01
Largest |displ|/coords:  0.1925 (   5)  0.1841 (   7)  0.1794 (  18)
................................................................................
.............................. CYCLE   16 ......................................
................................................................................
   1    -45.5841782 -0.455842E+02  0.565E-01    8.85       0.0  T
   2    -45.5845926 -0.414318E-03  0.413E-01    8.85       1.0  T
   3    -45.5848174 -0.224817E-03  0.117E-01    8.84       1.0  T
   4    -45.5848579 -0.405257E-04  0.258E-02    8.84       1.0  T
   5    -45.5848588 -0.900795E-06  0.110E-02    8.84       1.9  T
   6    -45.5848591 -0.244642E-06  0.544E-03    8.84       3.8  T
   7    -45.5848591 -0.470346E-07  0.122E-03    8.84      17.1  T
speedup  0.93
cpu  time for SCC    0.01 s
wall time for SCC    0.01 s
speedup  1.03
cpu  time for grad    0.01 s
wall time for grad    0.01 s
 E :    -45.34735008  G :  0.086554    pred/act E change: -0.414D-02  0.137D-02
Maxdispl :   0.1361   ||displ|| :   0.3757   Lambda : -0.189D-01
Largest |displ|/coords:  0.1361 (  18)  0.1184 (  23)  0.1076 (   5)
................................................................................
.............................. CYCLE   17 ......................................
................................................................................
   1    -45.6323957 -0.456324E+02  0.538E-01    8.94       0.0  T
   2    -45.6327536 -0.357908E-03  0.394E-01    8.94       1.0  T
   3    -45.6329893 -0.235671E-03  0.110E-01    8.93       1.0  T
   4    -45.6330176 -0.283344E-04  0.269E-02    8.93       1.0  T
   5    -45.6330189 -0.126059E-05  0.107E-02    8.93       1.9  T
   6    -45.6330189 -0.418454E-07  0.524E-03    8.93       4.0  T
   7    -45.6330190 -0.519293E-07  0.111E-03    8.93      18.8  T
speedup  1.11
cpu  time for SCC    0.01 s
wall time for SCC    0.01 s
speedup  1.03
cpu  time for grad    0.01 s
wall time for grad    0.01 s
 E :    -45.34912331  G :  0.097538    pred/act E change: -0.713D-02 -0.177D-02
Maxdispl :   0.1430   ||displ|| :   0.3414   Lambda : -0.189D-01
Largest |displ|/coords:  0.1430 (   6)  0.1151 (  26)  0.0886 (  17)
................................................................................
.............................. CYCLE   18 ......................................
................................................................................
   1    -45.5933126 -0.455933E+02  0.411E-01    8.71       0.0  T
   2    -45.5935751 -0.262477E-03  0.296E-01    8.73       1.0  T
   3    -45.5937350 -0.159884E-03  0.928E-02    8.77       1.0  T
   4    -45.5937549 -0.198610E-04  0.305E-02    8.76       1.0  T
   5    -45.5937561 -0.122576E-05  0.846E-03    8.76       2.5  T
   6    -45.5937563 -0.242234E-06  0.521E-03    8.76       4.0  T
   7    -45.5937564 -0.397733E-07  0.158E-03    8.76      13.2  T
speedup  0.93
cpu  time for SCC    0.00 s
wall time for SCC    0.01 s
speedup  0.92
cpu  time for grad    0.01 s
wall time for grad    0.01 s
 E :    -45.34804581  G :  0.080940    pred/act E change: -0.108D-01  0.108D-02
Maxdispl :   0.1810   ||displ|| :   0.4036   Lambda : -0.188D-01
Largest |displ|/coords:  0.1810 (   6)  0.1130 (  26)  0.1093 (   2)
................................................................................
.............................. CYCLE   19 ......................................
................................................................................
   1    -45.6159761 -0.456160E+02  0.446E-01    9.12       0.0  T
   2    -45.6161720 -0.195897E-03  0.330E-01    9.09       1.0  T
   3    -45.6163216 -0.149574E-03  0.905E-02    9.05       1.0  T
   4    -45.6163389 -0.172619E-04  0.345E-02    9.06       1.0  T
   5    -45.6163404 -0.155666E-05  0.897E-03    9.06       2.3  T
   6    -45.6163405 -0.880723E-07  0.487E-03    9.06       4.3  T
   7    -45.6163406 -0.469429E-07  0.196E-03    9.06      10.6  T
speedup  1.09
cpu  time for SCC    0.01 s
wall time for SCC    0.01 s
speedup  1.01
cpu  time for grad    0.01 s
wall time for grad    0.01 s
 E :    -45.34995411  G :  0.078394    pred/act E change: -0.106D-01 -0.191D-02
Maxdispl :   0.1862   ||displ|| :   0.4074   Lambda : -0.190D-01
Largest |displ|/coords:  0.1862 (   6)  0.1174 (  26)  0.0965 (  19)
................................................................................
.............................. CYCLE   20 ......................................
................................................................................
   1    -45.6096700 -0.456097E+02  0.483E-01    8.73       0.0  T
   2    -45.6099111 -0.241074E-03  0.357E-01    8.77       1.0  T
   3    -45.6100874 -0.176306E-03  0.975E-02    8.82       1.0  T
   4    -45.6101071 -0.197051E-04  0.365E-02    8.80       1.0  T
   5    -45.6101093 -0.225458E-05  0.102E-02    8.80       2.0  T
   6    -45.6101094 -0.107904E-06  0.566E-03    8.80       3.7  T
   7    -45.6101095 -0.448167E-07  0.200E-03    8.80      10.4  T
speedup  0.91
cpu  time for SCC    0.01 s
wall time for SCC    0.01 s
speedup  0.94
cpu  time for grad    0.01 s
wall time for grad    0.01 s
 E :    -45.35058282  G :  0.063390    pred/act E change: -0.109D-01 -0.629D-03
Maxdispl :   0.0877   ||displ|| :   0.3046   Lambda : -0.106D-01
Largest |displ|/coords:  0.0877 (  22)  0.0857 (   5)  0.0821 (   7)
................................................................................
.............................. CYCLE   21 ......................................
................................................................................
   1    -45.6113538 -0.456114E+02  0.334E-01    9.05       0.0  T
   2    -45.6114782 -0.124338E-03  0.246E-01    9.03       1.0  T
   3    -45.6115647 -0.865235E-04  0.711E-02    9.00       1.0  T
   4    -45.6115752 -0.105301E-04  0.246E-02    9.01       1.0  T
   5    -45.6115762 -0.102529E-05  0.709E-03    9.01       2.9  T
   6    -45.6115763 -0.634553E-07  0.399E-03    9.01       5.2  T
   7    -45.6115763 -0.269433E-07  0.144E-03    9.01      14.5  T
speedup  0.94
cpu  time for SCC    0.00 s
wall time for SCC    0.01 s
speedup  1.03
cpu  time for grad    0.01 s
wall time for grad    0.01 s
 E :    -45.35431601  G :  0.034096    pred/act E change: -0.111D-01 -0.373D-02
Maxdispl :   0.0930   ||displ|| :   0.1778   Lambda : -0.198D-02
Largest |displ|/coords:  0.0930 (   8)  0.0665 (  13)  0.0655 (  15)
................................................................................
.............................. CYCLE   22 ......................................
................................................................................
   1    -45.6162711 -0.456163E+02  0.157E-01    8.93       0.0  T
   2    -45.6162871 -0.160265E-04  0.115E-01    8.93       1.0  T
   3    -45.6162962 -0.902294E-05  0.279E-02    8.94       1.0  T
   4    -45.6162977 -0.157505E-05  0.934E-03    8.93       2.2  T
   5    -45.6162979 -0.141939E-06  0.241E-03    8.93       8.6  T
   6    -45.6162979 -0.517105E-08  0.137E-03    8.93      15.2  T
speedup  1.06
cpu  time for SCC    0.00 s
wall time for SCC    0.00 s
speedup  1.08
cpu  time for grad    0.01 s
wall time for grad    0.01 s
 E :    -45.35546582  G :  0.017472    pred/act E change: -0.576D-02 -0.115D-02
Maxdispl :   0.0891   ||displ|| :   0.1851   Lambda : -0.799D-03
Largest |displ|/coords:  0.0891 (   8)  0.0706 (  15)  0.0641 (   5)
................................................................................
.............................. CYCLE   23 ......................................
................................................................................
   1    -45.6146386 -0.456146E+02  0.119E-01    8.90       0.0  T
   2    -45.6146427 -0.414306E-05  0.879E-02    8.91       1.0  T
   3    -45.6146453 -0.259596E-05  0.157E-02    8.91       1.3  T
   4    -45.6146458 -0.475553E-06  0.631E-03    8.91       3.3  T
   5    -45.6146458 -0.311557E-07  0.121E-03    8.91      17.3  T
   6    -45.6146458 -0.152188E-08  0.756E-04    8.91      27.6  T
speedup  1.09
cpu  time for SCC    0.01 s
wall time for SCC    0.00 s
speedup  1.00
cpu  time for grad    0.01 s
wall time for grad    0.01 s
 E :    -45.35603329  G :  0.015507    pred/act E change: -0.102D-02 -0.567D-03
Maxdispl :   0.2277   ||displ|| :   0.4872   Lambda : -0.187D-02
Largest |displ|/coords:  0.2277 (   8)  0.1615 (   5)  0.1555 (  15)
................................................................................
.............................. CYCLE   24 ......................................
................................................................................
   1    -45.6181020 -0.456181E+02  0.322E-01    8.92       0.0  T
   2    -45.6181355 -0.334638E-04  0.240E-01    8.92       1.0  T
   3    -45.6181625 -0.269596E-04  0.438E-02    8.93       1.0  T
   4    -45.6181663 -0.380766E-05  0.164E-02    8.93       1.3  T
   5    -45.6181666 -0.290237E-06  0.444E-03    8.93       4.7  T
   6    -45.6181666 -0.184678E-07  0.273E-03    8.93       7.6  T
   7    -45.6181666 -0.818518E-08  0.660E-04    8.93      31.6  T
speedup  0.94
cpu  time for SCC    0.00 s
wall time for SCC    0.01 s
speedup  1.02
cpu  time for grad    0.01 s
wall time for grad    0.01 s
 E :    -45.35709080  G :  0.027114    pred/act E change: -0.413D-03 -0.106D-02
Maxdispl :   0.1938   ||displ|| :   0.4218   Lambda : -0.192D-02
Largest |displ|/coords:  0.1938 (   8)  0.1502 (   7)  0.1302 (   5)
................................................................................
.............................. CYCLE   25 ......................................
................................................................................
   1    -45.6177384 -0.456177E+02  0.277E-01    8.94       0.0  T
   2    -45.6177527 -0.142501E-04  0.203E-01    8.94       1.0  T
   3    -45.6177634 -0.107484E-04  0.362E-02    8.94       1.0  T
   4    -45.6177647 -0.132534E-05  0.880E-03    8.94       2.4  T
   5    -45.6177649 -0.123657E-06  0.237E-03    8.94       8.8  T
   6    -45.6177649 -0.861051E-08  0.131E-03    8.94      15.9  T
speedup  1.06
cpu  time for SCC    0.00 s
wall time for SCC    0.00 s
speedup  0.99
cpu  time for grad    0.01 s
wall time for grad    0.01 s
 E :    -45.35832304  G :  0.018671    pred/act E change: -0.116D-02 -0.123D-02
Maxdispl :   0.1307   ||displ|| :   0.3097   Lambda : -0.123D-02
Largest |displ|/coords:  0.1307 (   8)  0.0994 (   7)  0.0833 (   5)

generating ANC from model Hessian ...
 Shifting diagonal of input Hessian by   5.097574278118937E-003
 Lowest  eigenvalues of input Hessian
    0.005000   -0.000000   -0.000000   -0.000000    0.000000    0.000000
    0.000000    0.005133    0.005441    0.005480    0.005758    0.006256
    0.007238    0.007352    0.007746    0.009158    0.010350    0.011329
 Highest eigenvalues
    1.407143    1.420919    1.439390    2.425753    3.334379    3.776890
 
cpu  time for ANC gen    0.01 s
wall time for ANC gen    0.01 s
................................................................................
.............................. CYCLE   26 ......................................
................................................................................
   1    -45.6200365 -0.456200E+02  0.190E-01    9.09       0.0  T
   2    -45.6200482 -0.116891E-04  0.138E-01    9.09       1.0  T
   3    -45.6200552 -0.702930E-05  0.277E-02    9.08       1.0  T
   4    -45.6200563 -0.110513E-05  0.707E-03    9.09       3.0  T
   5    -45.6200564 -0.900976E-07  0.206E-03    9.09      10.1  T
   6    -45.6200564 -0.460208E-08  0.120E-03    9.09      17.3  T
   7    -45.6200564 -0.244726E-08  0.393E-04    9.09      53.1  T
   8    -45.6200564 -0.291543E-09  0.106E-04    9.09     196.1  T
speedup  0.97
cpu  time for SCC    0.01 s
wall time for SCC    0.01 s
speedup  0.92
cpu  time for grad    0.01 s
wall time for grad    0.01 s
 E :    -45.35904425  G :  0.021483    pred/act E change:  0.000D+00 -0.721D-03
Maxdispl :   0.1745   ||displ|| :   0.3829   Lambda : -0.342D-02
Largest |displ|/coords:  0.1745 (  16)  0.1446 (  17)  0.1161 (   2)
................................................................................
.............................. CYCLE   27 ......................................
................................................................................
   1    -45.6207539 -0.456208E+02  0.408E-01    9.09       0.0  T
   2    -45.6207813 -0.274110E-04  0.311E-01    9.09       1.0  T
   3    -45.6208133 -0.320639E-04  0.267E-02    9.10       1.0  T
   4    -45.6208154 -0.210823E-05  0.118E-02    9.10       1.8  T
   5    -45.6208156 -0.169289E-06  0.418E-03    9.10       5.0  T
   6    -45.6208156 -0.245857E-07  0.206E-03    9.10      10.1  T
speedup  1.06
cpu  time for SCC    0.00 s
wall time for SCC    0.00 s
speedup  0.99
cpu  time for grad    0.01 s
wall time for grad    0.01 s
 E :    -45.36137520  G :  0.018230    pred/act E change:  0.000D+00 -0.233D-02
Maxdispl :   0.2481   ||displ|| :   0.4701   Lambda : -0.218D-02
Largest |displ|/coords:  0.2481 (   8)  0.1663 (   2)  0.1542 (  13)
................................................................................
.............................. CYCLE   28 ......................................
................................................................................
   1    -45.6186257 -0.456186E+02  0.356E-01    9.08       0.0  T
   2    -45.6186461 -0.204949E-04  0.269E-01    9.08       1.0  T
   3    -45.6186711 -0.249484E-04  0.286E-02    9.09       1.0  T
   4    -45.6186727 -0.155764E-05  0.980E-03    9.08       2.1  T
   5    -45.6186728 -0.132877E-06  0.460E-03    9.08       4.5  T
   6    -45.6186728 -0.383810E-07  0.201E-03    9.08      10.4  T
   7    -45.6186728 -0.132145E-07  0.751E-04    9.08      27.8  T
speedup  0.93
cpu  time for SCC    0.01 s
wall time for SCC    0.01 s
speedup  1.00
cpu  time for grad    0.01 s
wall time for grad    0.01 s
 E :    -45.36266217  G :  0.033253    pred/act E change: -0.196D-02 -0.129D-02
Maxdispl :   0.1577   ||displ|| :   0.3358   Lambda : -0.185D-02
Largest |displ|/coords:  0.1577 (  13)  0.1555 (   7)  0.1091 (   5)
................................................................................
.............................. CYCLE   29 ......................................
................................................................................
   1    -45.6239709 -0.456240E+02  0.220E-01    9.08       0.0  T
   2    -45.6240072 -0.363130E-04  0.160E-01    9.08       1.0  T
   3    -45.6240256 -0.183567E-04  0.349E-02    9.08       1.0  T
   4    -45.6240291 -0.348376E-05  0.534E-03    9.08       3.9  T
   5    -45.6240291 -0.369680E-07  0.304E-03    9.08       6.9  T
speedup  1.00
cpu  time for SCC    0.00 s
wall time for SCC    0.00 s
speedup  0.96
cpu  time for grad    0.01 s
wall time for grad    0.01 s
 E :    -45.36333432  G :  0.020256    pred/act E change: -0.133D-02 -0.672D-03
Maxdispl :   0.1518   ||displ|| :   0.2902   Lambda : -0.151D-02
Largest |displ|/coords:  0.1518 (   2)  0.1370 (   8)  0.1112 (  17)
................................................................................
.............................. CYCLE   30 ......................................
................................................................................
   1    -45.6224771 -0.456225E+02  0.202E-01    9.09       0.0  T
   2    -45.6224893 -0.121770E-04  0.151E-01    9.09       1.0  T
   3    -45.6225003 -0.109567E-04  0.238E-02    9.09       1.0  T
   4    -45.6225016 -0.135071E-05  0.694E-03    9.09       3.0  T
   5    -45.6225017 -0.862825E-07  0.281E-03    9.09       7.4  T
   6    -45.6225017 -0.827741E-08  0.149E-03    9.09      14.0  T
speedup  1.09
cpu  time for SCC    0.00 s
wall time for SCC    0.00 s
speedup  0.99
cpu  time for grad    0.01 s
wall time for grad    0.01 s
 E :    -45.36406345  G :  0.017513    pred/act E change: -0.103D-02 -0.729D-03
Maxdispl :   0.1752   ||displ|| :   0.3031   Lambda : -0.117D-02
Largest |displ|/coords:  0.1752 (   2)  0.1249 (   5)  0.0841 (  14)
................................................................................
.............................. CYCLE   31 ......................................
................................................................................
   1    -45.6191589 -0.456192E+02  0.290E-01    9.11       0.0  T
   2    -45.6191839 -0.249582E-04  0.219E-01    9.11       1.0  T
   3    -45.6192031 -0.192500E-04  0.304E-02    9.11       1.0  T
   4    -45.6192066 -0.350452E-05  0.957E-03    9.10       2.2  T
   5    -45.6192068 -0.128676E-06  0.383E-03    9.11       5.4  T
   6    -45.6192068 -0.134523E-07  0.214E-03    9.11       9.8  T
   7    -45.6192068 -0.691013E-08  0.415E-04    9.11      50.2  T
speedup  0.94
cpu  time for SCC    0.00 s
wall time for SCC    0.01 s
speedup  0.98
cpu  time for grad    0.01 s
wall time for grad    0.01 s
 E :    -45.36446479  G :  0.026210    pred/act E change: -0.817D-03 -0.401D-03
Maxdispl :   0.1713   ||displ|| :   0.3117   Lambda : -0.155D-02
Largest |displ|/coords:  0.1713 (   2)  0.1010 (  12)  0.0903 (   5)
................................................................................
.............................. CYCLE   32 ......................................
................................................................................
   1    -45.6245011 -0.456245E+02  0.270E-01    9.14       0.0  T
   2    -45.6245238 -0.227795E-04  0.202E-01    9.14       1.0  T
   3    -45.6245410 -0.171643E-04  0.314E-02    9.14       1.0  T
   4    -45.6245440 -0.299874E-05  0.848E-03    9.14       2.5  T
   5    -45.6245441 -0.851265E-07  0.365E-03    9.14       5.7  T
   6    -45.6245441 -0.123741E-07  0.181E-03    9.14      11.5  T
speedup  0.87
cpu  time for SCC    0.00 s
wall time for SCC    0.00 s
speedup  0.99
cpu  time for grad    0.01 s
wall time for grad    0.01 s
 E :    -45.36485255  G :  0.026133    pred/act E change: -0.637D-03 -0.388D-03
Maxdispl :   0.1526   ||displ|| :   0.2661   Lambda : -0.149D-02
Largest |displ|/coords:  0.1526 (   2)  0.1035 (   1)  0.0774 (  15)
................................................................................
.............................. CYCLE   33 ......................................
................................................................................
   1    -45.6307536 -0.456308E+02  0.236E-01    9.13       0.0  T
   2    -45.6307824 -0.287715E-04  0.177E-01    9.13       1.0  T
   3    -45.6308020 -0.195770E-04  0.322E-02    9.13       1.0  T
   4    -45.6308058 -0.384195E-05  0.575E-03    9.13       3.6  T
   5    -45.6308058 -0.441962E-07  0.318E-03    9.13       6.6  T
speedup  1.05
cpu  time for SCC    0.00 s
wall time for SCC    0.00 s
speedup  1.07
cpu  time for grad    0.01 s
wall time for grad    0.01 s
 E :    -45.36513461  G :  0.026841    pred/act E change: -0.851D-03 -0.282D-03
Maxdispl :   0.2310   ||displ|| :   0.3897   Lambda : -0.173D-02
Largest |displ|/coords:  0.2310 (   2)  0.1667 (   5)  0.1125 (   7)
................................................................................
.............................. CYCLE   34 ......................................
................................................................................
   1    -45.6210045 -0.456210E+02  0.318E-01    9.10       0.0  T
   2    -45.6210277 -0.231721E-04  0.240E-01    9.10       1.0  T
   3    -45.6210467 -0.190307E-04  0.285E-02    9.10       1.0  T
   4    -45.6210497 -0.294601E-05  0.820E-03    9.10       2.5  T
   5    -45.6210498 -0.941105E-07  0.384E-03    9.10       5.4  T
   6    -45.6210498 -0.229554E-07  0.191E-03    9.10      10.9  T
speedup  1.09
cpu  time for SCC    0.00 s
wall time for SCC    0.00 s
speedup  0.99
cpu  time for grad    0.01 s
wall time for grad    0.01 s
 E :    -45.36574505  G :  0.019279    pred/act E change: -0.797D-03 -0.610D-03
Maxdispl :   0.1974   ||displ|| :   0.2764   Lambda : -0.110D-02
Largest |displ|/coords:  0.1974 (   2)  0.0686 (   3)  0.0685 (  17)
................................................................................
.............................. CYCLE   35 ......................................
................................................................................
   1    -45.6232889 -0.456233E+02  0.214E-01    9.10       0.0  T
   2    -45.6232956 -0.669863E-05  0.161E-01    9.11       1.0  T
   3    -45.6233014 -0.581315E-05  0.169E-02    9.11       1.2  T
   4    -45.6233022 -0.802763E-06  0.667E-03    9.11       3.1  T
   5    -45.6233023 -0.490276E-07  0.213E-03    9.11       9.8  T
   6    -45.6233023 -0.352961E-08  0.122E-03    9.11      17.2  T
speedup  1.09
cpu  time for SCC    0.00 s
wall time for SCC    0.00 s
speedup  0.99
cpu  time for grad    0.01 s
wall time for grad    0.01 s
 E :    -45.36626398  G :  0.014808    pred/act E change: -0.997D-03 -0.519D-03
Maxdispl :   0.3241   ||displ|| :   0.4143   Lambda : -0.101D-02
Largest |displ|/coords:  0.3241 (   2)  0.1249 (   5)  0.1236 (  18)
................................................................................
.............................. CYCLE   36 ......................................
................................................................................
   1    -45.6241314 -0.456241E+02  0.242E-01    9.12       0.0  T
   2    -45.6241474 -0.159510E-04  0.182E-01    9.12       1.0  T
   3    -45.6241605 -0.131259E-04  0.262E-02    9.12       1.0  T
   4    -45.6241624 -0.192338E-05  0.798E-03    9.12       2.6  T
   5    -45.6241625 -0.844492E-07  0.322E-03    9.12       6.5  T
   6    -45.6241625 -0.891605E-08  0.164E-03    9.12      12.7  T
   7    -45.6241625 -0.578905E-08  0.397E-04    9.12      52.5  T
speedup  0.93
cpu  time for SCC    0.00 s
wall time for SCC    0.01 s
speedup  1.00
cpu  time for grad    0.01 s
wall time for grad    0.01 s
 E :    -45.36662155  G :  0.027930    pred/act E change: -0.594D-03 -0.358D-03
Maxdispl :   0.2303   ||displ|| :   0.3265   Lambda : -0.137D-02
Largest |displ|/coords:  0.2303 (   2)  0.1440 (   5)  0.0741 (   9)
................................................................................
.............................. CYCLE   37 ......................................
................................................................................
   1    -45.6318123 -0.456318E+02  0.144E-01    9.13       0.0  T
   2    -45.6318275 -0.152188E-04  0.108E-01    9.13       1.0  T
   3    -45.6318384 -0.108125E-04  0.245E-02    9.13       1.0  T
   4    -45.6318401 -0.173491E-05  0.751E-03    9.13       2.8  T
   5    -45.6318402 -0.109598E-06  0.284E-03    9.13       7.4  T
   6    -45.6318402 -0.405853E-08  0.146E-03    9.13      14.3  T
speedup  0.89
cpu  time for SCC    0.00 s
wall time for SCC    0.00 s
speedup  1.00
cpu  time for grad    0.01 s
wall time for grad    0.01 s
 E :    -45.36703823  G :  0.021503    pred/act E change: -0.593D-03 -0.417D-03
Maxdispl :   0.3767   ||displ|| :   0.4622   Lambda : -0.150D-02
Largest |displ|/coords:  0.3767 (   2)  0.0982 (   5)  0.0964 (   8)
................................................................................
.............................. CYCLE   38 ......................................
................................................................................
   1    -45.6251161 -0.456251E+02  0.243E-01    9.11       0.0  T
   2    -45.6251304 -0.143471E-04  0.184E-01    9.11       1.0  T
   3    -45.6251450 -0.146400E-04  0.212E-02    9.11       1.0  T
   4    -45.6251467 -0.166608E-05  0.848E-03    9.11       2.5  T
   5    -45.6251468 -0.915130E-07  0.340E-03    9.11       6.1  T
   6    -45.6251468 -0.192199E-07  0.182E-03    9.11      11.4  T
speedup  1.09
cpu  time for SCC    0.00 s
wall time for SCC    0.00 s
speedup  1.07
cpu  time for grad    0.01 s
wall time for grad    0.01 s
 E :    -45.36792668  G :  0.018922    pred/act E change: -0.755D-03 -0.888D-03
Maxdispl :   0.3774   ||displ|| :   0.4697   Lambda : -0.121D-02
Largest |displ|/coords:  0.3774 (   2)  0.1295 (   5)  0.1222 (  10)
................................................................................
.............................. CYCLE   39 ......................................
................................................................................
   1    -45.6243775 -0.456244E+02  0.224E-01    9.11       0.0  T
   2    -45.6243948 -0.173084E-04  0.170E-01    9.11       1.0  T
   3    -45.6244088 -0.140296E-04  0.249E-02    9.11       1.0  T
   4    -45.6244112 -0.241240E-05  0.949E-03    9.11       2.2  T
   5    -45.6244113 -0.126286E-06  0.340E-03    9.11       6.1  T
   6    -45.6244114 -0.146373E-07  0.194E-03    9.11      10.8  T
   7    -45.6244114 -0.957736E-08  0.544E-04    9.11      38.3  T
speedup  1.11
cpu  time for SCC    0.01 s
wall time for SCC    0.01 s
speedup  1.01
cpu  time for grad    0.01 s
wall time for grad    0.01 s
 E :    -45.36821313  G :  0.028665    pred/act E change: -0.912D-03 -0.286D-03
Maxdispl :   0.2810   ||displ|| :   0.3626   Lambda : -0.142D-02
Largest |displ|/coords:  0.2810 (   2)  0.0878 (  18)  0.0850 (   5)
................................................................................
.............................. CYCLE   40 ......................................
................................................................................
   1    -45.6250974 -0.456251E+02  0.207E-01    9.13       0.0  T
   2    -45.6251042 -0.681610E-05  0.156E-01    9.13       1.0  T
   3    -45.6251098 -0.560063E-05  0.175E-02    9.12       1.2  T
   4    -45.6251106 -0.795449E-06  0.619E-03    9.12       3.4  T
   5    -45.6251106 -0.430223E-07  0.188E-03    9.12      11.1  T
   6    -45.6251106 -0.278347E-08  0.100E-03    9.12      20.8  T
speedup  1.06
cpu  time for SCC    0.00 s
wall time for SCC    0.00 s
speedup  0.98
cpu  time for grad    0.01 s
wall time for grad    0.01 s
 E :    -45.36901235  G :  0.025939    pred/act E change: -0.740D-03 -0.799D-03
Maxdispl :   0.1307   ||displ|| :   0.2281   Lambda : -0.136D-02
Largest |displ|/coords:  0.1307 (   2)  0.0761 (   6)  0.0698 (   4)
................................................................................
.............................. CYCLE   41 ......................................
................................................................................
   1    -45.6357491 -0.456357E+02  0.150E-01    9.18       0.0  T
   2    -45.6357736 -0.245553E-04  0.110E-01    9.18       1.0  T
   3    -45.6357903 -0.166822E-04  0.298E-02    9.18       1.0  T
   4    -45.6357926 -0.230131E-05  0.808E-03    9.18       2.6  T
   5    -45.6357927 -0.129062E-06  0.318E-03    9.18       6.6  T
   6    -45.6357927 -0.546336E-08  0.158E-03    9.18      13.2  T
speedup  1.09
cpu  time for SCC    0.01 s
wall time for SCC    0.00 s
speedup  0.99
cpu  time for grad    0.01 s
wall time for grad    0.01 s
 E :    -45.36917244  G :  0.030389    pred/act E change: -0.804D-03 -0.160D-03
Maxdispl :   0.3159   ||displ|| :   0.4256   Lambda : -0.154D-02
Largest |displ|/coords:  0.3159 (   2)  0.1903 (   5)  0.0770 (   6)
................................................................................
.............................. CYCLE   42 ......................................
................................................................................
   1    -45.6271862 -0.456272E+02  0.266E-01    9.14       0.0  T
   2    -45.6272095 -0.233081E-04  0.199E-01    9.14       1.0  T
   3    -45.6272267 -0.171848E-04  0.295E-02    9.14       1.0  T
   4    -45.6272299 -0.315989E-05  0.685E-03    9.14       3.0  T
   5    -45.6272299 -0.407041E-07  0.371E-03    9.14       5.6  T
   6    -45.6272299 -0.197114E-07  0.127E-03    9.14      16.4  T
speedup  0.85
cpu  time for SCC    0.00 s
wall time for SCC    0.00 s
speedup  0.97
cpu  time for grad    0.01 s
wall time for grad    0.01 s
 E :    -45.36980484  G :  0.028948    pred/act E change: -0.717D-03 -0.632D-03
Maxdispl :   0.1585   ||displ|| :   0.2746   Lambda : -0.177D-02
Largest |displ|/coords:  0.1585 (   2)  0.1182 (  18)  0.0786 (  10)
................................................................................
.............................. CYCLE   43 ......................................
................................................................................
   1    -45.6268477 -0.456268E+02  0.246E-01    9.12       0.0  T
   2    -45.6268909 -0.432325E-04  0.184E-01    9.12       1.0  T
   3    -45.6269186 -0.277543E-04  0.411E-02    9.12       1.0  T
   4    -45.6269239 -0.523588E-05  0.118E-02    9.12       1.8  T
   5    -45.6269242 -0.297050E-06  0.456E-03    9.12       4.6  T
   6    -45.6269242 -0.196095E-07  0.246E-03    9.12       8.5  T
speedup  0.85
cpu  time for SCC    0.00 s
wall time for SCC    0.00 s
speedup  0.98
cpu  time for grad    0.01 s
wall time for grad    0.01 s
 E :    -45.36956846  G :  0.039349    pred/act E change: -0.907D-03  0.236D-03
Maxdispl :   0.0852   ||displ|| :   0.1693   Lambda : -0.199D-02
Largest |displ|/coords:  0.0852 (   2)  0.0815 (   5)  0.0612 (   6)
................................................................................
.............................. CYCLE   44 ......................................
................................................................................
   1    -45.6290825 -0.456291E+02  0.138E-01    9.13       0.0  T
   2    -45.6291018 -0.192676E-04  0.102E-01    9.13       1.0  T
   3    -45.6291148 -0.130621E-04  0.262E-02    9.13       1.0  T
   4    -45.6291170 -0.212223E-05  0.606E-03    9.13       3.4  T
   5    -45.6291170 -0.504279E-07  0.285E-03    9.13       7.3  T
   6    -45.6291170 -0.505617E-08  0.123E-03    9.13      17.0  T
speedup  0.87
cpu  time for SCC    0.00 s
wall time for SCC    0.00 s
speedup  0.96
cpu  time for grad    0.01 s
wall time for grad    0.01 s
 E :    -45.37055320  G :  0.019296    pred/act E change: -0.954D-03 -0.985D-03
Maxdispl :   0.1047   ||displ|| :   0.1637   Lambda : -0.993D-03
Largest |displ|/coords:  0.1047 (   4)  0.0437 (   3)  0.0434 (   1)
................................................................................
.............................. CYCLE   45 ......................................
................................................................................
   1    -45.6330663 -0.456331E+02  0.147E-01    9.17       0.0  T
   2    -45.6330883 -0.220069E-04  0.108E-01    9.17       1.0  T
   3    -45.6331021 -0.138304E-04  0.272E-02    9.17       1.0  T
   4    -45.6331043 -0.218723E-05  0.637E-03    9.17       3.3  T
   5    -45.6331043 -0.508068E-07  0.256E-03    9.17       8.2  T
   6    -45.6331043 -0.379295E-08  0.124E-03    9.17      16.8  T
speedup  0.85
cpu  time for SCC    0.00 s
wall time for SCC    0.00 s
speedup  0.97
cpu  time for grad    0.01 s
wall time for grad    0.01 s
 E :    -45.37029350  G :  0.031076    pred/act E change: -0.102D-02  0.260D-03
Maxdispl :   0.1232   ||displ|| :   0.2125   Lambda : -0.141D-02
Largest |displ|/coords:  0.1232 (   2)  0.0889 (   5)  0.0779 (  18)
................................................................................
.............................. CYCLE   46 ......................................
................................................................................
   1    -45.6309571 -0.456310E+02  0.151E-01    9.16       0.0  T
   2    -45.6309684 -0.112920E-04  0.113E-01    9.15       1.0  T
   3    -45.6309768 -0.834692E-05  0.204E-02    9.15       1.0  T
   4    -45.6309783 -0.147464E-05  0.605E-03    9.15       3.4  T
   5    -45.6309783 -0.586522E-07  0.268E-03    9.15       7.8  T
   6    -45.6309783 -0.709606E-08  0.134E-03    9.15      15.5  T
speedup  0.85
cpu  time for SCC    0.00 s
wall time for SCC    0.00 s
speedup  0.98
cpu  time for grad    0.01 s
wall time for grad    0.01 s
 E :    -45.37113251  G :  0.013265    pred/act E change: -0.510D-03 -0.839D-03
Maxdispl :   0.2121   ||displ|| :   0.3070   Lambda : -0.480D-03
Largest |displ|/coords:  0.2121 (   2)  0.0974 (   5)  0.0796 (  18)
................................................................................
.............................. CYCLE   47 ......................................
................................................................................
   1    -45.6279045 -0.456279E+02  0.182E-01    9.12       0.0  T
   2    -45.6279121 -0.763751E-05  0.138E-01    9.12       1.0  T
   3    -45.6279214 -0.922200E-05  0.160E-02    9.11       1.3  T
   4    -45.6279220 -0.620917E-06  0.577E-03    9.12       3.6  T
   5    -45.6279220 -0.358651E-07  0.241E-03    9.12       8.6  T
   6    -45.6279220 -0.904646E-08  0.115E-03    9.12      18.1  T
speedup  0.87
cpu  time for SCC    0.00 s
wall time for SCC    0.00 s
speedup  0.98
cpu  time for grad    0.01 s
wall time for grad    0.01 s
 E :    -45.37137434  G :  0.021304    pred/act E change: -0.739D-03 -0.242D-03
Maxdispl :   0.1560   ||displ|| :   0.3286   Lambda : -0.139D-02
Largest |displ|/coords:  0.1560 (   5)  0.1142 (   8)  0.1127 (  18)
................................................................................
.............................. CYCLE   48 ......................................
................................................................................
   1    -45.6344743 -0.456345E+02  0.275E-01    9.16       0.0  T
   2    -45.6345054 -0.310870E-04  0.202E-01    9.16       1.0  T
   3    -45.6345211 -0.156936E-04  0.383E-02    9.15       1.0  T
   4    -45.6345247 -0.362610E-05  0.140E-02    9.16       1.5  T
   5    -45.6345250 -0.286764E-06  0.315E-03    9.16       6.6  T
   6    -45.6345250 -0.806996E-08  0.195E-03    9.16      10.7  T
speedup  0.85
cpu  time for SCC    0.00 s
wall time for SCC    0.00 s
speedup  0.97
cpu  time for grad    0.01 s
wall time for grad    0.01 s
 E :    -45.37117060  G :  0.040156    pred/act E change: -0.263D-03  0.204D-03
Maxdispl :   0.0528   ||displ|| :   0.1475   Lambda : -0.190D-02
Largest |displ|/coords:  0.0528 (   7)  0.0522 (  12)  0.0454 (   4)
................................................................................
.............................. CYCLE   49 ......................................
................................................................................
   1    -45.6331610 -0.456332E+02  0.139E-01    9.16       0.0  T
   2    -45.6331756 -0.145615E-04  0.103E-01    9.16       1.0  T
   3    -45.6331852 -0.958845E-05  0.225E-02    9.16       1.0  T
   4    -45.6331868 -0.159928E-05  0.549E-03    9.16       3.8  T
   5    -45.6331868 -0.409240E-07  0.239E-03    9.16       8.7  T
speedup  0.77
cpu  time for SCC    0.00 s
wall time for SCC    0.00 s
speedup  0.94
cpu  time for grad    0.01 s
wall time for grad    0.01 s
 E :    -45.37216084  G :  0.022513    pred/act E change: -0.768D-03 -0.990D-03
Maxdispl :   0.1733   ||displ|| :   0.2566   Lambda : -0.126D-02
Largest |displ|/coords:  0.1733 (   2)  0.0951 (   4)  0.0669 (  15)
................................................................................
.............................. CYCLE   50 ......................................
................................................................................
   1    -45.6258321 -0.456258E+02  0.175E-01    9.12       0.0  T
   2    -45.6258572 -0.250481E-04  0.129E-01    9.13       1.0  T
   3    -45.6258721 -0.149095E-04  0.296E-02    9.13       1.0  T
   4    -45.6258745 -0.247032E-05  0.704E-03    9.13       3.0  T
   5    -45.6258746 -0.911370E-07  0.311E-03    9.13       6.7  T
   6    -45.6258746 -0.933717E-08  0.153E-03    9.13      13.7  T
speedup  1.09
cpu  time for SCC    0.01 s
wall time for SCC    0.00 s
speedup  0.98
cpu  time for grad    0.01 s
wall time for grad    0.01 s
 E :    -45.37172372  G :  0.036593    pred/act E change: -0.971D-03  0.437D-03
Maxdispl :   0.0989   ||displ|| :   0.1377   Lambda : -0.189D-02
Largest |displ|/coords:  0.0989 (   2)  0.0352 (  15)  0.0318 (  17)
................................................................................
.............................. CYCLE   51 ......................................
................................................................................
   1    -45.6340487 -0.456340E+02  0.102E-01    9.15       0.0  T
   2    -45.6340594 -0.106466E-04  0.745E-02    9.15       1.0  T
   3    -45.6340669 -0.755566E-05  0.195E-02    9.15       1.1  T
   4    -45.6340678 -0.879287E-06  0.624E-03    9.15       3.3  T
   5    -45.6340679 -0.477425E-07  0.215E-03    9.15       9.7  T
   6    -45.6340679 -0.410706E-08  0.108E-03    9.15      19.2  T
speedup  1.06
cpu  time for SCC    0.00 s
wall time for SCC    0.00 s
speedup  0.97
cpu  time for grad    0.01 s
wall time for grad    0.01 s
 E :    -45.37265463  G :  0.011662    pred/act E change: -0.670D-03 -0.931D-03
Maxdispl :   0.2061   ||displ|| :   0.4215   Lambda : -0.964D-03
Largest |displ|/coords:  0.2061 (   5)  0.1678 (   2)  0.1589 (  18)
................................................................................
.............................. CYCLE   52 ......................................
................................................................................
   1    -45.6282788 -0.456283E+02  0.321E-01    9.11       0.0  T
   2    -45.6283045 -0.256671E-04  0.242E-01    9.11       1.0  T
   3    -45.6283291 -0.246262E-04  0.328E-02    9.10       1.0  T
   4    -45.6283320 -0.292643E-05  0.128E-02    9.11       1.6  T
   5    -45.6283322 -0.214593E-06  0.449E-03    9.11       4.6  T
   6    -45.6283323 -0.265663E-07  0.252E-03    9.11       8.3  T
   7    -45.6283323 -0.136996E-07  0.564E-04    9.11      37.0  T
speedup  1.07
cpu  time for SCC    0.01 s
wall time for SCC    0.01 s
speedup  0.98
cpu  time for grad    0.01 s
wall time for grad    0.01 s
 E :    -45.37236233  G :  0.036648    pred/act E change: -0.964D-03  0.292D-03
Maxdispl :   0.0865   ||displ|| :   0.1598   Lambda : -0.140D-02
Largest |displ|/coords:  0.0865 (   2)  0.0686 (  18)  0.0657 (   5)

generating ANC from model Hessian ...
 Shifting diagonal of input Hessian by   5.088956101431531E-003
 Lowest  eigenvalues of input Hessian
    0.005000   -0.000000   -0.000000   -0.000000    0.000000    0.000000
    0.000000    0.005643    0.005949    0.006287    0.006772    0.007266
    0.007502    0.007865    0.008440    0.010412    0.011665    0.012642
 Highest eigenvalues
    1.386583    1.401568    1.449413    2.451708    3.370523    3.772085
 
cpu  time for ANC gen    0.01 s
wall time for ANC gen    0.01 s
................................................................................
.............................. CYCLE   53 ......................................
................................................................................
   1    -45.6335427 -0.456335E+02  0.128E-01    9.13       0.0  T
   2    -45.6335529 -0.102717E-04  0.955E-02    9.14       1.0  T
   3    -45.6335607 -0.773226E-05  0.208E-02    9.14       1.0  T
   4    -45.6335618 -0.115128E-05  0.776E-03    9.14       2.7  T
   5    -45.6335619 -0.107214E-06  0.249E-03    9.14       8.4  T
   6    -45.6335619 -0.634908E-08  0.128E-03    9.14      16.3  T
   7    -45.6335619 -0.308778E-08  0.286E-04    9.14      72.8  T
   8    -45.6335619 -0.172015E-09  0.684E-05    9.14     304.7  T
speedup  0.98
cpu  time for SCC    0.01 s
wall time for SCC    0.01 s
speedup  0.98
cpu  time for grad    0.01 s
wall time for grad    0.01 s
 E :    -45.37313381  G :  0.010003    pred/act E change:  0.000D+00 -0.771D-03
Maxdispl :   0.1585   ||displ|| :   0.2454   Lambda : -0.689D-03
Largest |displ|/coords:  0.1585 (   9)  0.1262 (   8)  0.0748 (   3)
................................................................................
.............................. CYCLE   54 ......................................
................................................................................
   1    -45.6333460 -0.456333E+02  0.205E-01    9.13       0.0  T
   2    -45.6333506 -0.459951E-05  0.154E-01    9.14       1.0  T
   3    -45.6333564 -0.573682E-05  0.123E-02    9.14       1.7  T
   4    -45.6333567 -0.342061E-06  0.534E-03    9.14       3.9  T
   5    -45.6333567 -0.413399E-07  0.203E-03    9.14      10.3  T
   6    -45.6333567 -0.618310E-08  0.914E-04    9.14      22.8  T
speedup  1.09
cpu  time for SCC    0.00 s
wall time for SCC    0.00 s
speedup  0.97
cpu  time for grad    0.01 s
wall time for grad    0.01 s
 E :    -45.37365612  G :  0.009597    pred/act E change:  0.000D+00 -0.522D-03
Maxdispl :   0.1848   ||displ|| :   0.3343   Lambda : -0.675D-03
Largest |displ|/coords:  0.1848 (   9)  0.1191 (  14)  0.1093 (   3)
................................................................................
.............................. CYCLE   55 ......................................
................................................................................
   1    -45.6302142 -0.456302E+02  0.278E-01    9.11       0.0  T
   2    -45.6302241 -0.994687E-05  0.209E-01    9.11       1.0  T
   3    -45.6302365 -0.123574E-04  0.195E-02    9.12       1.1  T
   4    -45.6302372 -0.788204E-06  0.894E-03    9.11       2.3  T
   5    -45.6302374 -0.108568E-06  0.297E-03    9.11       7.0  T
   6    -45.6302374 -0.124634E-07  0.149E-03    9.11      14.0  T
speedup  1.06
cpu  time for SCC    0.00 s
wall time for SCC    0.00 s
speedup  1.06
cpu  time for grad    0.01 s
wall time for grad    0.01 s
 E :    -45.37395283  G :  0.019924    pred/act E change: -0.365D-03 -0.297D-03
Maxdispl :   0.0614   ||displ|| :   0.1259   Lambda : -0.523D-03
Largest |displ|/coords:  0.0614 (   4)  0.0547 (   8)  0.0369 (   7)
................................................................................
.............................. CYCLE   56 ......................................
................................................................................
   1    -45.6328439 -0.456328E+02  0.887E-02    9.11       0.0  T
   2    -45.6328482 -0.429168E-05  0.656E-02    9.11       1.0  T
   3    -45.6328505 -0.236491E-05  0.131E-02    9.12       1.6  T
   4    -45.6328511 -0.535689E-06  0.349E-03    9.11       6.0  T
   5    -45.6328511 -0.190399E-07  0.138E-03    9.11      15.1  T
   6    -45.6328511 -0.168531E-08  0.698E-04    9.11      29.9  T
speedup  1.06
cpu  time for SCC    0.00 s
wall time for SCC    0.00 s
speedup  1.05
cpu  time for grad    0.01 s
wall time for grad    0.01 s
 E :    -45.37428403  G :  0.007170    pred/act E change: -0.375D-03 -0.331D-03
Maxdispl :   0.1387   ||displ|| :   0.2482   Lambda : -0.349D-03
Largest |displ|/coords:  0.1387 (   3)  0.1180 (   4)  0.0605 (  14)
................................................................................
.............................. CYCLE   57 ......................................
................................................................................
   1    -45.6333544 -0.456334E+02  0.175E-01    9.10       0.0  T
   2    -45.6333584 -0.395399E-05  0.131E-01    9.10       1.0  T
   3    -45.6333622 -0.380470E-05  0.136E-02    9.11       1.5  T
   4    -45.6333626 -0.436327E-06  0.510E-03    9.10       4.1  T
   5    -45.6333627 -0.313852E-07  0.178E-03    9.10      11.7  T
   6    -45.6333627 -0.384050E-08  0.104E-03    9.10      20.1  T
speedup  1.06
cpu  time for SCC    0.00 s
wall time for SCC    0.00 s
speedup  1.06
cpu  time for grad    0.01 s
wall time for grad    0.01 s
 E :    -45.37452233  G :  0.006154    pred/act E change: -0.266D-03 -0.238D-03
Maxdispl :   0.1617   ||displ|| :   0.2997   Lambda : -0.279D-03
Largest |displ|/coords:  0.1617 (   4)  0.1515 (   3)  0.0954 (   9)
................................................................................
.............................. CYCLE   58 ......................................
................................................................................
   1    -45.6322974 -0.456323E+02  0.198E-01    9.09       0.0  T
   2    -45.6323023 -0.490900E-05  0.149E-01    9.09       1.0  T
   3    -45.6323083 -0.602941E-05  0.147E-02    9.09       1.4  T
   4    -45.6323087 -0.374340E-06  0.585E-03    9.09       3.6  T
   5    -45.6323087 -0.479665E-07  0.221E-03    9.09       9.4  T
   6    -45.6323088 -0.643237E-08  0.130E-03    9.09      16.1  T
speedup  0.87
cpu  time for SCC    0.00 s
wall time for SCC    0.00 s
speedup  0.97
cpu  time for grad    0.01 s
wall time for grad    0.01 s
 E :    -45.37468430  G :  0.007410    pred/act E change: -0.185D-03 -0.162D-03
Maxdispl :   0.1100   ||displ|| :   0.1894   Lambda : -0.192D-03
Largest |displ|/coords:  0.1100 (   3)  0.1003 (   4)  0.0584 (   6)
................................................................................
.............................. CYCLE   59 ......................................
................................................................................
   1    -45.6343982 -0.456344E+02  0.109E-01    9.12       0.0  T
   2    -45.6343998 -0.163043E-05  0.814E-02    9.12       1.0  T
   3    -45.6344016 -0.174740E-05  0.970E-03    9.11       2.2  T
   4    -45.6344017 -0.111227E-06  0.263E-03    9.11       7.9  T
   5    -45.6344017 -0.838249E-08  0.100E-03    9.11      20.8  T
speedup  1.03
cpu  time for SCC    0.00 s
wall time for SCC    0.00 s
speedup  0.94
cpu  time for grad    0.01 s
wall time for grad    0.01 s
 E :    -45.37478055  G :  0.005883    pred/act E change: -0.152D-03 -0.962D-04
Maxdispl :   0.1477   ||displ|| :   0.2320   Lambda : -0.151D-03
Largest |displ|/coords:  0.1477 (   3)  0.1235 (   4)  0.0866 (   9)
................................................................................
.............................. CYCLE   60 ......................................
................................................................................
   1    -45.6332557 -0.456333E+02  0.147E-01    9.13       0.0  T
   2    -45.6332597 -0.409247E-05  0.110E-01    9.13       1.0  T
   3    -45.6332643 -0.452097E-05  0.124E-02    9.13       1.7  T
   4    -45.6332647 -0.408425E-06  0.515E-03    9.13       4.0  T
   5    -45.6332647 -0.320521E-07  0.182E-03    9.13      11.4  T
   6    -45.6332647 -0.412744E-08  0.969E-04    9.13      21.5  T
speedup  1.06
cpu  time for SCC    0.00 s
wall time for SCC    0.00 s
speedup  1.06
cpu  time for grad    0.01 s
wall time for grad    0.01 s
 E :    -45.37482079  G :  0.009728    pred/act E change: -0.992D-04 -0.402D-04
Maxdispl :   0.0636   ||displ|| :   0.1010   Lambda : -0.161D-03
Largest |displ|/coords:  0.0636 (   3)  0.0397 (   6)  0.0262 (   8)
................................................................................
.............................. CYCLE   61 ......................................
................................................................................
   1    -45.6351622 -0.456352E+02  0.622E-02    9.14       0.0  T
   2    -45.6351636 -0.143083E-05  0.468E-02    9.14       1.0  T
   3    -45.6351647 -0.109732E-05  0.740E-03    9.14       2.8  T
   4    -45.6351649 -0.191109E-06  0.269E-03    9.14       7.7  T
   5    -45.6351649 -0.858547E-08  0.834E-04    9.14      25.0  T
speedup  1.03
cpu  time for SCC    0.00 s
wall time for SCC    0.00 s
speedup  1.05
cpu  time for grad    0.01 s
wall time for grad    0.01 s
 E :    -45.37488462  G :  0.005908    pred/act E change: -0.798D-04 -0.638D-04
Maxdispl :   0.1102   ||displ|| :   0.1788   Lambda : -0.152D-03
Largest |displ|/coords:  0.1102 (   3)  0.0825 (   6)  0.0724 (   4)
................................................................................
.............................. CYCLE   62 ......................................
................................................................................
   1    -45.6328274 -0.456328E+02  0.121E-01    9.13       0.0  T
   2    -45.6328293 -0.197073E-05  0.906E-02    9.13       1.0  T
   3    -45.6328314 -0.207146E-05  0.834E-03    9.13       2.5  T
   4    -45.6328315 -0.152964E-06  0.288E-03    9.13       7.2  T
   5    -45.6328316 -0.934941E-08  0.118E-03    9.13      17.7  T
speedup  1.03
cpu  time for SCC    0.00 s
wall time for SCC    0.00 s
speedup  0.95
cpu  time for grad    0.01 s
wall time for grad    0.01 s
 E :    -45.37488723  G :  0.011583    pred/act E change: -0.811D-04 -0.262D-05
Maxdispl :   0.0399   ||displ|| :   0.0753   Lambda : -0.199D-03
Largest |displ|/coords:  0.0399 (   8)  0.0317 (   5)  0.0269 (   2)
................................................................................
.............................. CYCLE   63 ......................................
................................................................................
   1    -45.6349286 -0.456349E+02  0.653E-02    9.15       0.0  T
   2    -45.6349300 -0.141627E-05  0.486E-02    9.15       1.0  T
   3    -45.6349310 -0.104076E-05  0.802E-03    9.15       2.6  T
   4    -45.6349312 -0.168249E-06  0.226E-03    9.15       9.2  T
   5    -45.6349312 -0.595760E-08  0.893E-04    9.15      23.4  T
speedup  1.00
cpu  time for SCC    0.00 s
wall time for SCC    0.00 s
speedup  1.04
cpu  time for grad    0.01 s
wall time for grad    0.01 s
 E :    -45.37498352  G :  0.004018    pred/act E change: -0.785D-04 -0.963D-04
Maxdispl :   0.1315   ||displ|| :   0.1909   Lambda : -0.110D-03
Largest |displ|/coords:  0.1315 (   3)  0.0998 (   4)  0.0568 (   9)
................................................................................
.............................. CYCLE   64 ......................................
................................................................................
   1    -45.6343719 -0.456344E+02  0.106E-01    9.15       0.0  T
   2    -45.6343737 -0.178081E-05  0.801E-02    9.15       1.0  T
   3    -45.6343757 -0.207166E-05  0.815E-03    9.15       2.6  T
   4    -45.6343759 -0.153566E-06  0.364E-03    9.15       5.7  T
   5    -45.6343759 -0.163695E-07  0.119E-03    9.15      17.6  T
   6    -45.6343759 -0.171417E-08  0.716E-04    9.15      29.1  T
speedup  1.09
cpu  time for SCC    0.01 s
wall time for SCC    0.00 s
speedup  1.07
cpu  time for grad    0.01 s
wall time for grad    0.01 s
 E :    -45.37502870  G :  0.006136    pred/act E change: -0.100D-03 -0.452D-04
Maxdispl :   0.1115   ||displ|| :   0.1691   Lambda : -0.916D-04
Largest |displ|/coords:  0.1115 (   3)  0.0826 (   4)  0.0665 (   6)
................................................................................
.............................. CYCLE   65 ......................................
................................................................................
   1    -45.6343593 -0.456344E+02  0.989E-02    9.16       0.0  T
[...]
   3    -45.6351777 -0.196373E-06  0.374E-03    9.24       5.6  T
   4    -45.6351777 -0.120148E-07  0.977E-04    9.24      21.3  T
   5    -45.6351777 -0.156859E-08  0.425E-04    9.24      49.0  T
speedup  1.03
cpu  time for SCC    0.00 s
wall time for SCC    0.00 s
speedup  1.00
cpu  time for grad    0.01 s
wall time for grad    0.01 s
 E :    -45.37575046  G :  0.000693    pred/act E change: -0.174D-05 -0.293D-05
Maxdispl :   0.0152   ||displ|| :   0.0252   Lambda : -0.123D-05
Largest |displ|/coords:  0.0152 (   3)  0.0134 (   4)  0.0073 (   1)
................................................................................
.............................. CYCLE   94 ......................................
................................................................................
   1    -45.6350932 -0.456351E+02  0.133E-02    9.24       0.0  T
   2    -45.6350932 -0.160295E-07  0.994E-03    9.24       2.1  T
   3    -45.6350933 -0.189759E-07  0.106E-03    9.24      19.7  T
   4    -45.6350933 -0.120013E-08  0.328E-04    9.24      63.5  T
   5    -45.6350933 -0.184734E-09  0.117E-04    9.24     178.6  T
speedup  1.03
cpu  time for SCC    0.00 s
wall time for SCC    0.00 s
speedup  1.00
cpu  time for grad    0.01 s
wall time for grad    0.01 s
 E :    -45.37575143  G :  0.000566    pred/act E change: -0.252D-05 -0.968D-06
Maxdispl :   0.0259   ||displ|| :   0.0401   Lambda : -0.200D-05
Largest |displ|/coords:  0.0259 (   3)  0.0196 (   4)  0.0105 (   1)
................................................................................
.............................. CYCLE   95 ......................................
................................................................................
   1    -45.6350449 -0.456350E+02  0.192E-02    9.23       0.0  T
   2    -45.6350450 -0.374600E-07  0.144E-02    9.23       1.4  T
   3    -45.6350450 -0.371846E-07  0.147E-03    9.23      14.2  T
   4    -45.6350450 -0.392077E-08  0.548E-04    9.23      38.0  T
   5    -45.6350450 -0.399766E-09  0.167E-04    9.23     124.9  T
speedup  0.75
cpu  time for SCC    0.00 s
wall time for SCC    0.00 s
speedup  0.91
cpu  time for grad    0.01 s
wall time for grad    0.01 s
 E :    -45.37575273  G :  0.000565    pred/act E change: -0.617D-06 -0.130D-05
Maxdispl :   0.0186   ||displ|| :   0.0305   Lambda : -0.104D-05
Largest |displ|/coords:  0.0186 (   3)  0.0170 (   4)  0.0078 (   1)
................................................................................
.............................. CYCLE   96 ......................................
................................................................................
   1    -45.6350321 -0.456350E+02  0.151E-02    9.23       0.0  T
   2    -45.6350321 -0.174348E-07  0.114E-02    9.23       1.8  T
   3    -45.6350321 -0.205376E-07  0.809E-04    9.23      25.8  T
   4    -45.6350321 -0.134115E-08  0.344E-04    9.23      60.5  T
speedup  0.91
cpu  time for SCC    0.00 s
wall time for SCC    0.00 s
speedup  0.96
cpu  time for grad    0.01 s
wall time for grad    0.01 s
 E :    -45.37575357  G :  0.000633    pred/act E change: -0.100D-05 -0.840D-06
Maxdispl :   0.0302   ||displ|| :   0.0517   Lambda : -0.199D-05
Largest |displ|/coords:  0.0302 (   3)  0.0265 (   4)  0.0173 (   8)
................................................................................
.............................. CYCLE   97 ......................................
................................................................................
   1    -45.6350710 -0.456351E+02  0.278E-02    9.23       0.0  T
   2    -45.6350710 -0.555506E-07  0.209E-02    9.23       1.0  T
   3    -45.6350711 -0.619107E-07  0.149E-03    9.23      14.0  T
   4    -45.6350711 -0.460133E-08  0.662E-04    9.23      31.5  T
   5    -45.6350711 -0.401450E-09  0.201E-04    9.23     103.7  T
speedup  0.98
cpu  time for SCC    0.00 s
wall time for SCC    0.00 s
speedup  0.98
cpu  time for grad    0.01 s
wall time for grad    0.01 s
 E :    -45.37575506  G :  0.000648    pred/act E change: -0.520D-06 -0.149D-05
Maxdispl :   0.0398   ||displ|| :   0.0677   Lambda : -0.209D-05
Largest |displ|/coords:  0.0398 (   3)  0.0350 (   4)  0.0233 (   8)
................................................................................
.............................. CYCLE   98 ......................................
................................................................................
   1    -45.6350931 -0.456351E+02  0.385E-02    9.23       0.0  T
   2    -45.6350932 -0.987641E-07  0.289E-02    9.23       1.0  T
   3    -45.6350933 -0.116635E-06  0.206E-03    9.23      10.1  T
   4    -45.6350933 -0.726588E-08  0.894E-04    9.23      23.3  T
   5    -45.6350933 -0.745814E-09  0.280E-04    9.23      74.5  T
speedup  1.03
cpu  time for SCC    0.00 s
wall time for SCC    0.00 s
speedup  1.01
cpu  time for grad    0.01 s
wall time for grad    0.01 s
 E :    -45.37575649  G :  0.000581    pred/act E change: -0.999D-06 -0.143D-05
Maxdispl :   0.0197   ||displ|| :   0.0378   Lambda : -0.141D-05
Largest |displ|/coords:  0.0197 (   8)  0.0164 (   3)  0.0137 (   4)
................................................................................
.............................. CYCLE   99 ......................................
................................................................................
   1    -45.6352152 -0.456352E+02  0.249E-02    9.24       0.0  T
   2    -45.6352153 -0.542763E-07  0.186E-02    9.24       1.1  T
   3    -45.6352153 -0.526698E-07  0.192E-03    9.24      10.8  T
   4    -45.6352153 -0.489781E-08  0.616E-04    9.24      33.8  T
   5    -45.6352153 -0.494964E-09  0.162E-04    9.24     128.6  T
speedup  1.03
cpu  time for SCC    0.00 s
wall time for SCC    0.00 s
speedup  1.01
cpu  time for grad    0.01 s
wall time for grad    0.01 s
 E :    -45.37575742  G :  0.000433    pred/act E change: -0.105D-05 -0.930D-06
Maxdispl :   0.0244   ||displ|| :   0.0392   Lambda : -0.973D-06
Largest |displ|/coords:  0.0244 (   3)  0.0196 (   4)  0.0135 (   8)
................................................................................
.............................. CYCLE  100 ......................................
................................................................................
   1    -45.6351652 -0.456352E+02  0.246E-02    9.24       0.0  T
   2    -45.6351652 -0.387547E-07  0.184E-02    9.24       1.1  T
   3    -45.6351653 -0.423192E-07  0.164E-03    9.24      12.7  T
   4    -45.6351653 -0.306679E-08  0.480E-04    9.24      43.5  T
   5    -45.6351653 -0.364139E-09  0.177E-04    9.24     117.5  T
speedup  1.03
cpu  time for SCC    0.00 s
wall time for SCC    0.00 s
speedup  1.00
cpu  time for grad    0.01 s
wall time for grad    0.01 s
 E :    -45.37575799  G :  0.000456    pred/act E change: -0.708D-06 -0.568D-06
Maxdispl :   0.0078   ||displ|| :   0.0140   Lambda : -0.557D-06
Largest |displ|/coords:  0.0078 (   5)  0.0052 (   3)  0.0052 (   4)
................................................................................
.............................. CYCLE  101 ......................................
................................................................................
   1    -45.6352438 -0.456352E+02  0.854E-03    9.24       0.0  T
   2    -45.6352438 -0.115946E-07  0.625E-03    9.24       3.3  T
   3    -45.6352438 -0.933741E-08  0.992E-04    9.24      21.0  T
   4    -45.6352438 -0.996145E-09  0.179E-04    9.24     116.7  T
speedup  0.94
cpu  time for SCC    0.00 s
wall time for SCC    0.00 s
speedup  0.98
cpu  time for grad    0.01 s
wall time for grad    0.01 s
 E :    -45.37575831  G :  0.000293    pred/act E change: -0.487D-06 -0.316D-06
Maxdispl :   0.0042   ||displ|| :   0.0068   Lambda : -0.246D-06
Largest |displ|/coords:  0.0042 (   3)  0.0038 (   4)  0.0022 (   1)
................................................................................
.............................. CYCLE  102 ......................................
................................................................................
   1    -45.6351827 -0.456352E+02  0.503E-03    9.24       0.0  T
   2    -45.6351827 -0.274091E-08  0.371E-03    9.24       5.6  T
   3    -45.6351827 -0.222093E-08  0.557E-04    9.24      37.5  T
   4    -45.6351827 -0.246310E-09  0.145E-04    9.24     143.9  T
speedup  0.94
cpu  time for SCC    0.00 s
wall time for SCC    0.00 s
speedup  0.98
cpu  time for grad    0.01 s
wall time for grad    0.01 s
 E :    -45.37575846  G :  0.000176    pred/act E change: -0.279D-06 -0.156D-06
Maxdispl :   0.0019   ||displ|| :   0.0042   Lambda : -0.958D-07
Largest |displ|/coords:  0.0019 (   5)  0.0016 (   4)  0.0015 (  10)
................................................................................
.............................. CYCLE  103 ......................................
................................................................................
   1    -45.6351662 -0.456352E+02  0.231E-03    9.23       0.0  T
   2    -45.6351662 -0.175236E-08  0.173E-03    9.23      12.1  T
   3    -45.6351662 -0.115854E-08  0.307E-04    9.23      68.0  T
   4    -45.6351662 -0.247006E-09  0.137E-04    9.23     152.6  T
speedup  1.25
cpu  time for SCC    0.00 s
wall time for SCC    0.00 s
speedup  1.07
cpu  time for grad    0.01 s
wall time for grad    0.01 s
 E :    -45.37575851  G :  0.000103    pred/act E change: -0.123D-06 -0.472D-07
Maxdispl :   0.0037   ||displ|| :   0.0062   Lambda : -0.288D-07
Largest |displ|/coords:  0.0037 (   3)  0.0035 (   4)  0.0022 (   1)

   *** GEOMETRY OPTIMIZATION CONVERGED AFTER 103 ITERATIONS ***

------------------------------------------------------------------------
 total energy gain (kcal):     -0.0681
------------------------------------------------------------------------
================
 final structure:
================
$coord
        1.96866549516003        0.14400471123030       -2.22444294182713      S 
        2.52577127739097       -1.09981393838659        0.19778333278094      O 
        4.18563941834689        0.97225176206428       -3.53945626338607      O 
        0.62763803253531       -2.00706046356656       -3.86439638654712      O 
       -0.00262186198369        2.04199445969176       -1.91385780676563      O 
       -2.81001982266250        0.61494033679521       -2.08369919544285      H 
        2.03153115007381       -3.17308301688910       -4.14203890972536      H 
       -4.16590728137039       -0.64283614424636       -1.87762273925329      O 
       -3.86012267364485       -1.84384198829487       -3.20441525839466      H 
        5.21568355236776       -3.93110778524888       -3.42382222421699      O 
        5.57969886565181       -2.17676318066033       -3.84163153995814      H 
        5.15151235621290       -3.95039330428801       -1.60557236065812      H 
       -2.03183264094159        2.16292695550300        5.51712187055203      O 
       -0.65048428150657        2.32314794508025        6.67884156980262      H 
       -1.72949622093190        3.46174472815349        4.20410809140657      H 
       -0.87475940264837        5.27661736322022        1.79990182299618      O 
       -0.36579647166062        4.13954937928132        0.42545808959339      H 
       -2.10172443376136        6.39723074899644        1.07677092493073      H 
       -1.76520509509311       -1.78510611721546        2.39829195177010      N 
       -3.03094348896787       -1.49789130845872        0.88819079596458      H 
        0.09515918206825       -1.57488982129171        1.59559665436588      H 
       -2.00085030352631       -0.33610857610133        3.74905051188622      H 
       -1.99153536993197       -3.51551276434324        3.18983999120496      H 
$end
 
 Bond Distances (Angstroems)
 ---------------------------
S1-O2=1.4708         S1-O3=1.4327         S1-O4=1.5976         S1-O5=1.4574         O2-S1=1.4708         O3-S1=1.4327         
O4-S1=1.5976         O4-H7=0.9768         O5-S1=1.4574         H6-O8=0.9847         H7-O4=0.9768         O8-H6=0.9847         
O8-H9=0.9608         H9-O8=0.9608         O10-H11=0.9736       O10-H12=0.9628       H11-O10=0.9736       H12-O10=0.9628       
O13-H14=0.9589       O13-H15=0.9903       H14-O13=0.9589       H15-O13=0.9903       O16-H17=0.9816       O16-H18=0.9590       
H17-O16=0.9816       H18-O16=0.9590       N19-H20=1.0537       N19-H21=1.0779       N19-H22=1.0557       N19-H23=1.0140       
H20-N19=1.0537       H21-N19=1.0779       H22-N19=1.0557       H23-N19=1.0140       
 N  H  Rav=1.0503 sigma=0.0230  Rmin=1.0140  Rmax=1.0779     4
 O  H  Rav=0.9721 sigma=0.0114  Rmin=0.9589  Rmax=0.9903     9
 S  O  Rav=1.4896 sigma=0.0638  Rmin=1.4327  Rmax=1.5976     4
 
 selected bond angles (degree)
 --------------------
O3-S1-O2=113.33                O4-S1-O2=104.10                O4-S1-O3=108.53                O5-S1-O2=110.71                
O5-S1-O3=115.47                O5-S1-O4=103.55                H7-O4-S1=101.18                H9-O8-H6=104.09                
H12-O10-H11=104.12             
 
 selected dihedral angles (degree)
 ---------------------------------
H7-O4-S1-O2=291.67            H7-O4-S1-O3= 52.66            H7-O4-S1-O5=175.84            
 
 CMA Distance (Angstroems)
 ---------------------------
R(CMA):  2.1386

========================================================================
 FINAL SINGLEPOINT CALCULATION ON OPTIMIZED GEOMETRY
========================================================================

 Ncao       : 59
 Nao        : 58
 Nshell     : 34
 Nel        : 72
 T(el)      :   300.0
 intcut     :    25.0
 scfconv/Eh :  0.100E-05
   qconv/e  :  0.100E-03
 intneglect :  0.100E-07
 broydamp   :      0.250
 iter      E             dE          RMSdq      gap      omega  full diag
   1    -45.6351662 -0.456352E+02  0.455E-05    9.23       0.0  T
   2    -45.6351662 -0.952127E-12  0.291E-05    9.23     715.6  T
   3    -45.6351662 -0.639488E-12  0.506E-06    9.23    4117.5  T
speedup  0.83
cpu  time for SCC    0.00 s
wall time for SCC    0.00 s

   *** convergence criteria satisfied after 3 iterations ***

          eigenvalues
 #    :          24         25         26         27         28         29         30         31
 occ. :        2.000      2.000      2.000      2.000      2.000      2.000      2.000      2.000
 eps  :       -13.912    -13.512    -13.219    -12.577    -12.454    -12.378    -12.283    -12.190
 #    :          32         33         34         35         36         37         38         39
 occ. :        2.000      2.000      2.000      2.000      2.000      0.000      0.000      0.000
 eps  :       -12.143    -12.123    -11.987    -11.831    -11.658     -2.423     -0.884     -0.235
 #    :          40         41         42         43         44         45         46         47
 occ. :        0.000      0.000      0.000      0.000      0.000      0.000      0.000      0.000
 eps  :         0.879      1.503      1.738      2.384      2.704      3.474      5.020      5.473


   #   Z            q   n(s)   n(p)   n(d)      C6AA      α(0)
   1  16 S      1.679  1.593  1.780  0.947    89.238    15.899
   2   8 O     -0.756  1.773  4.983  0.000    30.257     7.375
   3   8 O     -0.710  1.768  4.942  0.000    28.970     7.216
   4   8 O     -0.640  1.762  4.878  0.000    26.129     6.901
   5   8 O     -0.742  1.763  4.979  0.000    29.874     7.328
   6   1 H      0.329  0.671  0.000  0.000     0.639     1.256
   7   1 H      0.362  0.638  0.000  0.000     0.554     1.166
   8   8 O     -0.604  1.742  4.862  0.000    25.272     6.785
   9   1 H      0.298  0.702  0.000  0.000     0.726     1.339
  10   8 O     -0.603  1.740  4.862  0.000    25.253     6.782
  11   1 H      0.316  0.684  0.000  0.000     0.676     1.291
  12   1 H      0.299  0.701  0.000  0.000     0.725     1.338
  13   8 O     -0.604  1.746  4.858  0.000    25.285     6.787
  14   1 H      0.288  0.712  0.000  0.000     0.757     1.366
  15   1 H      0.340  0.660  0.000  0.000     0.612     1.229
  16   8 O     -0.608  1.743  4.865  0.000    25.379     6.799
  17   1 H      0.330  0.670  0.000  0.000     0.638     1.255
  18   1 H      0.291  0.709  0.000  0.000     0.747     1.358
  19   7 N     -0.356  1.280  4.076  0.000    29.161     8.020
  20   1 H      0.284  0.716  0.000  0.000     0.765     1.370
  21   1 H      0.291  0.709  0.000  0.000     0.738     1.345
  22   1 H      0.290  0.710  0.000  0.000     0.744     1.352
  23   1 H      0.224  0.776  0.000  0.000     0.993     1.561

 Mol. C6AA /au·bohr⁶  :       4500.737417
 Mol. C8AA /au·bohr⁸  :      99093.814090
 Mol. α(0) /au        :         97.118320

 
 Wiberg/Mayer (AO) data. WBOs > 0.1 written file <wbo>
 largest (>0.05) Wiberg bond orders for each atom
           total WBO             WBO to atom ...
     1  S   4.837    O    3 1.392    O    5 1.289    O    2 1.236    O    4 0.884
     2  O   1.732    S    1 1.236    H   21 0.140    O    3 0.106    O    5 0.105    O    4 0.076    N   19 0.056
     3  O   1.749    S    1 1.392    O    5 0.107    O    2 0.106    O    4 0.083
     4  O   1.932    S    1 0.884    H    7 0.790    O    3 0.083    O    2 0.076    O    5 0.062
     5  O   1.738    S    1 1.289    O    3 0.107    O    2 0.105    H    6 0.063    O    4 0.062    H   17 0.058
     6  H   0.892    O    8 0.824    O    5 0.063
     7  H   0.869    O    4 0.790    O   10 0.062
     8  O   1.911    H    9 0.904    H    6 0.824    H   20 0.097    N   19 0.050
     9  H   0.911    O    8 0.904
    10  O   1.879    H   12 0.902    H   11 0.862    H    7 0.062
    11  H   0.900    O   10 0.862
    12  H   0.911    O   10 0.902
    13  O   1.914    H   14 0.913    H   15 0.806    H   22 0.105    N   19 0.051
    14  H   0.917    O   13 0.913
    15  H   0.884    O   13 0.806    O   16 0.077
    16  O   1.882    H   18 0.911    H   17 0.829    H   15 0.077
    17  H   0.891    O   16 0.829    O    5 0.058
    18  H   0.915    O   16 0.911
    19  N   3.516    H   23 0.947    H   20 0.817    H   22 0.808    H   21 0.768    O    2 0.056    O   13 0.051    O    8 0.050
    20  H   0.920    N   19 0.817    O    8 0.097
    21  H   0.915    N   19 0.768    O    2 0.140
    22  H   0.916    N   19 0.808    O   13 0.105
    23  H   0.950    N   19 0.947
 MOs/occ written to file <molden.input>
 
molecular dipole:
                 x           y           z       tot (Debye)
 q only:       -1.622      -1.021       1.930
   full:       -1.216      -0.915       1.552       5.525
molecular quadrupole (traceless):
                xx          xy          yy          xz          yz          zz
 q only:       -7.957       1.505       5.768       6.290      -2.447       2.189
  q+dip:       -9.904       2.087       6.752       9.081      -4.241       3.152
   full:      -10.248       1.997       7.068       9.125      -3.980       3.180

SCC energy    :     -45.6351662
rep           :       0.2592474
ES            :       0.2330729
AES           :      -0.0670791
AXC           :      -0.0084527
disp          :      -0.0163619
XB            :       0.0000000
fix           :       0.0000000
total E       :     -45.3757585
atomizationE  :       4.4588210     2797.95
(atE without considering molecular charge,
 total energy contains solvation terms)
H-L gap (eV)  :          9.2350
optimized geometry written to: xtbopt.xyz


------------------------------------------------------------------------
 * finished run on 2019/09/16 at 12:04:15.940     
------------------------------------------------------------------------
 total:
 * wall-time:     0 d,  0 h,  0 min,  1.967 sec
 *  cpu-time:     0 d,  0 h,  0 min,  1.941 sec
 * ratio c/w:     0.987 speedup
 SCF:
 * wall-time:     0 d,  0 h,  0 min,  0.122 sec
 *  cpu-time:     0 d,  0 h,  0 min,  0.119 sec
 * ratio c/w:     0.974 speedup
 ANC optimizer:
 * wall-time:     0 d,  0 h,  0 min,  1.821 sec
 *  cpu-time:     0 d,  0 h,  0 min,  1.801 sec
 * ratio c/w:     0.989 speedup

