      -----------------------------------------------------------      
     |                   =====================                   |     
     |                           x T B                           |     
     |                   =====================                   |     
     |                         S. Grimme                         |     
     |          Mulliken Center for Theoretical Chemistry        |     
     |                    University of Bonn                     |     
     |                 Version 6.0.1 (SAW181210)                 |     
      -----------------------------------------------------------      

   This program is distributed in the hope that it will be useful,
   but WITHOUT ANY WARRANTY; without even the implied warranty of
   MERCHANTABILITY or FITNESS FOR A PARTICULAR PURPOSE.
   
   FOR NON-COMMERCIAL, ACADEMIA USE ONLY.
   
   Cite this work as:
   S. Grimme, C. Bannwarth, P. Shushkov, J. Comput. Theory Chem., 2017,
   13, 1989-2009.
   C. Bannwarth, S. Ehlert and S. Grimme., ChemRxiv, 2018, preprint.
   http://doi.org/10.26434/chemrxiv.7246238.v1
   
   for sTDA-xTB:
   S. Grimme and C. Bannwarth, J. Chem. Phys., 2016, 145, 054103.
   
   in the mass-spec context:
   V. Asgeirsson, C. Bauer and S. Grimme, Chem. Sci., 2017, 8, 4879.
   
   if GBSA is used:
   P. Shushkov, F. März and S. Grimme, unpublished.
   
   for ANC optimizer:
   S. Grimme, unpublished.
   Rational Function algorithm used in ANCopt:
   F. Eckert, P. Pulay, H.-J. Werner, J. Comput. Chem., 1997, 18, 1473.
   
   with help from (in alphabetical order)
   C. Bannwarth, F. Bohle, G. Brandenburg, E. Caldeweyher, M. Checinski,
   S. Dohm, S. Ehlert, S. Ehrlich, F. März, H. Neugebauer, J. Pisarek,
   P. Pracht, P. Shushkov, and S. Spicher.
   
 * started run on 2019/09/16 at 11:30:55.879     
========================================================================
 # omp threads = 1
========================================================================
number of atoms            : 26
number of electrons        : 80
charge                     : 0
spin                       : .0
first test random number   : .0264

########################################################################
# WARNING! Please study the warnings concerning your input carefully
#  - XTBPATH is not set, using XTBHOME instead
#  - the use of '-opt' is discouraged, please use '--opt' next time
#  - the use of '-chrg' is discouraged, please use '--chrg' next time
#  - the use of '-uhf' is discouraged, please use '--uhf' next time
########################################################################

           ------------------------------------------------- 
          |                 G F N 2 - x T B                 |
          | Geometry, Frequencies, Noncovalent interactions |
          |            JCTC 2018 parametrisation            |
           ------------------------------------------------- 
      method parameters     
 k(s)        :  1.8500
 k(p)        :  2.2300
 k(d)        :  2.2300
 k(f)        :  2.0000
 kEN (H0ij)  : -2.0000
 D4 a1       :  0.5200
 D4 a2       :  5.0000
 D4 s6       :  1.0000
 D4 s8       :  2.7000
 D4 s9       :  5.0000
 alphaj      :  2.0000


            Z     q(EN)     CN     RAES       Cart. coordinates
     1  S   6.0    0.64    4.29    4.22     0.16684     2.34012     1.31492
     2  O   6.0   -0.34    1.26    1.80    -0.44770    -0.02273     2.71757
     3  O   6.0   -0.33    1.21    1.80     2.20116     1.81644    -0.56002
     4  O   6.0   -0.31    1.23    1.80    -2.13157     3.26013    -0.02635
     5  O   6.0   -0.25    2.09    1.84     1.03344     4.27969     3.10365
     6  H   1.0    0.14    1.27    1.48     2.51434     3.68771     3.96829
     7  O   6.0   -0.29    2.05    1.83    -3.96834    -3.16301     0.66996
     8  H   1.0    0.15    0.97    1.43    -3.96721    -4.72547     1.60448
     9  H   1.0    0.17    1.05    1.44    -2.72855    -2.11114     1.48917
    10  O   6.0   -0.29    2.03    1.83     2.37510     0.30055    -5.35505
    11  H   1.0    0.15    0.97    1.43     4.14298     0.31177    -5.78988
    12  H   1.0    0.18    1.05    1.44     2.30185     0.85583    -3.62274
    13  O   6.0   -0.30    2.06    1.83    -2.32949    -0.58083    -6.75685
    14  H   1.0    0.15    0.97    1.43    -2.29465    -1.02221    -8.52280
    15  H   1.0    0.17    1.05    1.44    -0.59311    -0.27557    -6.30254
    16  O   6.0   -0.28    1.94    1.82    -1.12790    -4.50612     5.04789
    17  H   1.0    0.17    1.04    1.43    -0.69007    -2.90929     4.29090
    18  H   1.0    0.14    0.97    1.43    -0.69907    -4.33764     6.80923
    19  O   6.0   -0.22    2.90    2.54    -4.89781     0.26537    -2.68568
    20  H   1.0    0.14    1.05    1.44    -4.90221    -1.25279    -1.59710
    21  H   1.0    0.16    1.07    1.44    -4.13721     1.74025    -1.82763
    22  H   1.0    0.14    1.07    1.44    -4.10223    -0.06539    -4.34374
    23  N   5.0   -0.22    3.00    1.93     5.66188     1.87780     4.26422
    24  H   1.0    0.10    0.99    1.43     5.66162     0.20062     5.21191
    25  H   1.0    0.10    0.99    1.43     7.42683     2.61246     4.50149
    26  H   1.0    0.11    1.00    1.43     5.53108     1.42345     2.39673

  Z AO/shell   Hii/eV     exponent
  1     Wed Apr 25 08:07:45 CEST 2018   EN: 2.200 GM2: 0.406  GM3: 0.0800  RAES: 1.40
     1s    -10.707211    1.230000
  7     Wed Apr 25 08:07:45 CEST 2018   EN: 3.040 GM2: 0.461  GM3:-0.0640  RAES: 1.90
     2s    -16.686243    2.339881
     2p    -12.523956    2.014332
  8     Wed Apr 25 08:07:45 CEST 2018   EN: 3.440 GM2: 0.452  GM3:-0.0517  RAES: 1.80
     2s    -20.229985    2.439742
     2p    -15.503117    2.137023
 16     Tue Apr 24 11:44:34 CEST 2018   EN: 2.580 GM2: 0.340  GM3:-0.0502  RAES: 3.10
     3s    -20.029654    1.981333
     3p    -11.377694    2.025643
     3d     -0.420282    1.702555
 no old-style atom pair restraining (fixing) potential

molecular fragmentation (1/2 indicates fragments):
11111122222222222222222222
# atoms in fragment 1/2:     6    20
 fragment masses (1/2) :       97.07      108.11
CMA distance (Bohr)    :   4.088
constraining FC (au)   :  0.0500
           ------------------------------------------------- 
          |        Self-Consistent Charge Iterations        |
           ------------------------------------------------- 

 Ncao       : 65
 Nao        : 64
 Nshell     : 38
 Nel        : 80
 T(el)      :   300.0
 intcut     :    25.0
 scfconv/Eh :  0.100E-05
   qconv/e  :  0.100E-03
 intneglect :  0.100E-07
 broydamp   :      0.250
 iter      E             dE          RMSdq      gap      omega  full diag
   1    -50.6269733 -0.506270E+02  0.700E+00   10.01       0.0  T
   2    -50.6750217 -0.480484E-01  0.502E+00    9.66       1.0  T
   3    -50.7104611 -0.354394E-01  0.130E+00    8.88       1.0  T
   4    -50.7160519 -0.559085E-02  0.531E-01    8.89       1.0  T
   5    -50.7166746 -0.622626E-03  0.297E-01    8.83       1.0  T
   6    -50.7170777 -0.403091E-03  0.136E-01    8.83       1.0  T
   7    -50.7171802 -0.102570E-03  0.485E-02    8.86       1.0  T
   8    -50.7171900 -0.981080E-05  0.329E-02    8.85       1.0  T
   9    -50.7171974 -0.739061E-05  0.964E-03    8.85       2.0  T
  10    -50.7171980 -0.537113E-06  0.239E-03    8.84       8.2  T
  11    -50.7171980 -0.171982E-07  0.119E-03    8.84      16.5  T
  12    -50.7171980 -0.687267E-08  0.487E-04    8.84      40.2  T
  13    -50.7171980 -0.132808E-08  0.140E-04    8.84     140.5  T
speedup  1.00
cpu  time for SCC    0.01 s
wall time for SCC    0.01 s

   *** convergence criteria satisfied after 13 iterations ***

          eigenvalues
 #    :          28         29         30         31         32         33         34         35
 occ. :        2.000      2.000      2.000      2.000      2.000      2.000      2.000      2.000
 eps  :       -12.805    -12.474    -12.422    -11.739    -11.729    -11.713    -11.399    -11.316
 #    :          36         37         38         39         40         41         42         43
 occ. :        2.000      2.000      2.000      2.000      2.000      0.000      0.000      0.000
 eps  :       -11.215    -11.158    -10.939    -10.839    -10.658     -1.813     -0.506      0.253
 #    :          44         45         46         47         48         49         50         51
 occ. :        0.000      0.000      0.000      0.000      0.000      0.000      0.000      0.000
 eps  :         1.132      1.348      1.495      1.909      3.125      3.892      5.041      5.237


   #   Z            q   n(s)   n(p)   n(d)      C6AA      α(0)
   1  16 S      1.611  1.587  1.830  0.973    90.826    16.040
   2   8 O     -0.778  1.775  5.003  0.000    30.922     7.456
   3   8 O     -0.769  1.778  4.991  0.000    30.655     7.423
   4   8 O     -0.742  1.762  4.980  0.000    29.872     7.328
   5   8 O     -0.558  1.716  4.842  0.000    24.166     6.636
   6   1 H      0.375  0.625  0.000  0.000     0.525     1.134
   7   8 O     -0.633  1.725  4.907  0.000    25.979     6.879
   8   1 H      0.313  0.687  0.000  0.000     0.684     1.299
   9   1 H      0.334  0.666  0.000  0.000     0.628     1.245
  10   8 O     -0.621  1.734  4.887  0.000    25.693     6.841
  11   1 H      0.282  0.718  0.000  0.000     0.777     1.384
  12   1 H      0.335  0.665  0.000  0.000     0.625     1.242
  13   8 O     -0.617  1.725  4.892  0.000    25.601     6.829
  14   1 H      0.293  0.707  0.000  0.000     0.742     1.353
  15   1 H      0.348  0.652  0.000  0.000     0.593     1.210
  16   8 O     -0.608  1.741  4.867  0.000    25.375     6.799
  17   1 H      0.321  0.679  0.000  0.000     0.662     1.278
  18   1 H      0.267  0.733  0.000  0.000     0.830     1.431
  19   8 O     -0.430  1.644  4.786  0.000    21.374     6.244
  20   1 H      0.417  0.583  0.000  0.000     0.455     1.060
  21   1 H      0.416  0.584  0.000  0.000     0.456     1.061
  22   1 H      0.415  0.585  0.000  0.000     0.458     1.063
  23   7 N     -0.455  1.396  4.059  0.000    31.965     8.397
  24   1 H      0.156  0.844  0.000  0.000     1.361     1.828
  25   1 H      0.153  0.847  0.000  0.000     1.379     1.839
  26   1 H      0.175  0.825  0.000  0.000     1.246     1.748

 Mol. C6AA /au·bohr⁶  :       5485.160469
 Mol. C8AA /au·bohr⁸  :     118669.640073
 Mol. α(0) /au        :        107.046709

 
 Wiberg/Mayer (AO) data. WBOs > 0.1 written file <wbo>
 largest (>0.05) Wiberg bond orders for each atom
           total WBO             WBO to atom ...
     1  S   4.901    O    4 1.299    O    3 1.280    O    2 1.256    O    5 1.021
     2  O   1.663    S    1 1.256    O    3 0.109    O    4 0.108    O    5 0.074
     3  O   1.665    S    1 1.280    O    4 0.112    O    2 0.109    O    5 0.076    H   12 0.054
     4  O   1.709    S    1 1.299    O    3 0.112    O    2 0.108    H   21 0.091    O    5 0.055
     5  O   2.044    S    1 1.021    H    6 0.789    O    3 0.076    O    2 0.074    O    4 0.055
     6  H   0.859    O    5 0.789
     7  O   1.850    H    8 0.883    H    9 0.834    H   20 0.076
     8  H   0.902    O    7 0.883
     9  H   0.889    O    7 0.834
    10  O   1.836    H   11 0.908    H   12 0.830    H   15 0.051
    11  H   0.920    O   10 0.908
    12  H   0.888    O   10 0.830    O    3 0.054
    13  O   1.866    H   14 0.902    H   15 0.824    H   22 0.084
    14  H   0.914    O   13 0.902
    15  H   0.879    O   13 0.824    O   10 0.051
    16  O   1.816    H   18 0.926    H   17 0.854
    17  H   0.897    O   16 0.854
    18  H   0.929    O   16 0.926
    19  O   2.317    H   20 0.744    H   22 0.738    H   21 0.729
    20  H   0.826    O   19 0.744    O    7 0.076
    21  H   0.827    O   19 0.729    O    4 0.091
    22  H   0.828    O   19 0.738    O   13 0.084
    23  N   2.980    H   24 0.973    H   25 0.973    H   26 0.960
    24  H   0.976    N   23 0.973
    25  H   0.976    N   23 0.973
    26  H   0.970    N   23 0.960
 MOs/occ written to file <molden.input>
 
molecular dipole:
                 x           y           z       tot (Debye)
 q only:       -0.418      -0.525      -1.227
   full:        0.910      -0.357      -0.643       2.974
molecular quadrupole (traceless):
                xx          xy          yy          xz          yz          zz
 q only:        8.757       3.494     -18.459      12.906       4.255       9.702
  q+dip:        8.548       3.107     -21.283      11.018       3.896      12.734
   full:        8.323       3.675     -21.518      11.498       4.085      13.195

SCC energy    :     -50.7171980
rep           :       0.3028356
ES            :       0.2764856
AES           :      -0.0679029
AXC           :      -0.0077026
disp          :      -0.0163914
XB            :       0.0000000
fix           :       0.0000000
total E       :     -50.4141389
atomizationE  :       4.9444431     3102.68
(atE without considering molecular charge,
 total energy contains solvation terms)
H-L gap (eV)  :          8.8447
           ------------------------------------------------- 
          |                 ===============                 |
          |                   A N C O P T                   |
          |                 ===============                 |
          |          Approximate Normal Coordinate          |
          |           Rational Function Optimizer           |
           ------------------------------------------------- 
dumping coords to <xtbopt.coord> and <xtbopt.log>
 optlevel               2
 Maxcycle             520
 Maxmicro              25
 Econv         1.000000000000000E-007
 Gconv         2.000000000000000E-004
 Maxdispl       1.00000000000000     
 Hlow          5.000000000000000E-003
 S6             20.0000000000000     
 Nvar               72

generating ANC from model Hessian ...
 Shifting diagonal of input Hessian by   6.608722784097638E-003
 Lowest  eigenvalues of input Hessian
    0.005000    0.006300    0.006457    0.006567   -0.000000   -0.000000
   -0.000000    0.000000    0.000000    0.000000    0.006726    0.006820
    0.006898    0.006927    0.006981    0.007148    0.007288    0.007632
 Highest eigenvalues
    1.461603    1.563378    1.567474    3.148032    3.221586    3.321075
 
cpu  time for ANC gen    0.01 s
wall time for ANC gen    0.01 s
................................................................................
.............................. CYCLE    1 ......................................
................................................................................
   1    -50.7171980 -0.507172E+02  0.729E-05    8.84       0.0  T
   2    -50.7171980 -0.101252E-10  0.580E-05    8.84     338.1  T
   3    -50.7171980 -0.116316E-10  0.286E-05    8.84     686.1  T
speedup  0.71
cpu  time for SCC    0.00 s
wall time for SCC    0.00 s
speedup  0.93
cpu  time for grad    0.01 s
wall time for grad    0.01 s
 E :    -50.41413889  G :  0.142471    pred/act E change:  0.000D+00  0.469D-07
Maxdispl :   0.1470   ||displ|| :   0.3589   Lambda : -0.149D-01
Largest |displ|/coords:  0.1470 (  20)  0.1387 (  31)  0.1044 (  35)
................................................................................
.............................. CYCLE    2 ......................................
................................................................................
   1    -50.7205936 -0.507206E+02  0.223E-01    8.92       0.0  T
   2    -50.7206717 -0.781149E-04  0.173E-01    8.95       1.0  T
   3    -50.7207025 -0.308199E-04  0.660E-02    9.01       1.0  T
   4    -50.7207101 -0.759775E-05  0.166E-02    9.00       1.2  T
   5    -50.7207105 -0.397548E-06  0.387E-03    9.00       5.1  T
   6    -50.7207105 -0.219580E-07  0.234E-03    9.00       8.4  T
speedup  1.11
cpu  time for SCC    0.01 s
wall time for SCC    0.01 s
speedup  1.02
cpu  time for grad    0.01 s
wall time for grad    0.01 s
 E :    -50.42651650  G :  0.092018    pred/act E change:  0.000D+00 -0.124D-01
Maxdispl :   0.1970   ||displ|| :   0.3826   Lambda : -0.917D-02
Largest |displ|/coords:  0.1970 (  20)  0.1448 (  21)  0.1348 (  31)
................................................................................
.............................. CYCLE    3 ......................................
................................................................................
   1    -50.7232206 -0.507232E+02  0.216E-01    9.06       0.0  T
   2    -50.7233113 -0.906869E-04  0.167E-01    9.09       1.0  T
   3    -50.7233466 -0.353158E-04  0.674E-02    9.11       1.0  T
   4    -50.7233544 -0.774311E-05  0.181E-02    9.11       1.1  T
   5    -50.7233548 -0.471607E-06  0.404E-03    9.11       4.9  T
   6    -50.7233549 -0.302390E-07  0.248E-03    9.11       7.9  T
speedup  0.94
cpu  time for SCC    0.00 s
wall time for SCC    0.01 s
speedup  1.02
cpu  time for grad    0.01 s
wall time for grad    0.01 s
 E :    -50.43392320  G :  0.053444    pred/act E change: -0.839D-02 -0.741D-02
Maxdispl :   0.2323   ||displ|| :   0.4027   Lambda : -0.487D-02
Largest |displ|/coords:  0.2323 (  20)  0.1675 (  21)  0.1132 (  10)
................................................................................
.............................. CYCLE    4 ......................................
................................................................................
   1    -50.7237707 -0.507238E+02  0.233E-01    9.05       0.0  T
   2    -50.7238487 -0.780086E-04  0.179E-01    9.04       1.0  T
   3    -50.7238768 -0.280887E-04  0.602E-02    9.02       1.0  T
   4    -50.7238859 -0.908487E-05  0.177E-02    9.03       1.1  T
   5    -50.7238864 -0.461669E-06  0.367E-03    9.03       5.3  T
   6    -50.7238864 -0.275970E-07  0.223E-03    9.03       8.8  T
speedup  1.11
cpu  time for SCC    0.01 s
wall time for SCC    0.01 s
speedup  1.01
cpu  time for grad    0.01 s
wall time for grad    0.01 s
 E :    -50.43773599  G :  0.029791    pred/act E change: -0.526D-02 -0.381D-02
Maxdispl :   0.2934   ||displ|| :   0.5127   Lambda : -0.364D-02
Largest |displ|/coords:  0.2934 (  20)  0.1688 (  21)  0.1242 (   2)
................................................................................
.............................. CYCLE    5 ......................................
................................................................................
   1    -50.7234496 -0.507234E+02  0.287E-01    8.89       0.0  T
   2    -50.7235403 -0.906867E-04  0.219E-01    8.86       1.0  T
   3    -50.7235697 -0.293540E-04  0.630E-02    8.80       1.0  T
   4    -50.7235824 -0.127881E-04  0.210E-02    8.82       1.0  T
   5    -50.7235829 -0.471937E-06  0.400E-03    8.82       4.9  T
   6    -50.7235830 -0.349618E-07  0.250E-03    8.82       7.8  T
speedup  0.93
cpu  time for SCC    0.00 s
wall time for SCC    0.01 s
speedup  0.95
cpu  time for grad    0.01 s
wall time for grad    0.01 s
 E :    -50.43991037  G :  0.016032    pred/act E change: -0.283D-02 -0.217D-02
Maxdispl :   0.3092   ||displ|| :   0.4939   Lambda : -0.196D-02
Largest |displ|/coords:  0.3092 (  10)  0.1718 (   6)  0.1481 (   7)
................................................................................
.............................. CYCLE    6 ......................................
................................................................................
   1    -50.7070479 -0.507070E+02  0.611E-01    8.72       0.0  T
   2    -50.7072366 -0.188734E-03  0.460E-01    8.69       1.0  T
   3    -50.7073343 -0.976978E-04  0.818E-02    8.63       1.0  T
   4    -50.7073643 -0.300133E-04  0.207E-02    8.65       1.0  T
   5    -50.7073653 -0.975184E-06  0.547E-03    8.65       3.6  T
   6    -50.7073654 -0.595402E-07  0.335E-03    8.65       5.8  T
   7    -50.7073654 -0.280353E-07  0.108E-03    8.65      18.2  T
   8    -50.7073654 -0.396147E-08  0.413E-04    8.65      47.4  T
speedup  1.01
cpu  time for SCC    0.01 s
wall time for SCC    0.01 s
speedup  0.97
cpu  time for grad    0.01 s
wall time for grad    0.01 s
 E :    -50.43660573  G :  0.070768    pred/act E change: -0.230D-02  0.330D-02
Maxdispl :   0.2413   ||displ|| :   0.5454   Lambda : -0.195D-01
Largest |displ|/coords:  0.2413 (   7)  0.2304 (  10)  0.1894 (   6)
................................................................................
.............................. CYCLE    7 ......................................
................................................................................
   1    -50.7318137 -0.507318E+02  0.824E-01    8.74       0.0  T
   2    -50.7322537 -0.440030E-03  0.621E-01    8.75       1.0  T
   3    -50.7325413 -0.287622E-03  0.120E-01    8.78       1.0  T
   4    -50.7326027 -0.613472E-04  0.244E-02    8.77       1.0  T
   5    -50.7326039 -0.126602E-05  0.115E-02    8.77       1.7  T
   6    -50.7326040 -0.917586E-07  0.538E-03    8.77       3.6  T
   7    -50.7326041 -0.571099E-07  0.994E-04    8.77      19.7  T
speedup  0.97
cpu  time for SCC    0.01 s
wall time for SCC    0.01 s
speedup  0.94
cpu  time for grad    0.01 s
wall time for grad    0.01 s
 E :    -50.43824770  G :  0.057669    pred/act E change: -0.122D-02 -0.164D-02
Maxdispl :   0.0972   ||displ|| :   0.2419   Lambda : -0.402D-02
Largest |displ|/coords:  0.0972 (  16)  0.0922 (  11)  0.0907 (   1)
................................................................................
.............................. CYCLE    8 ......................................
................................................................................
   1    -50.7297778 -0.507298E+02  0.279E-01    8.84       0.0  T
   2    -50.7298146 -0.368152E-04  0.212E-01    8.85       1.0  T
   3    -50.7298416 -0.269344E-04  0.323E-02    8.87       1.0  T
   4    -50.7298465 -0.494645E-05  0.935E-03    8.87       2.1  T
   5    -50.7298467 -0.132093E-06  0.297E-03    8.87       6.6  T
   6    -50.7298467 -0.816686E-08  0.166E-03    8.87      11.8  T
speedup  0.94
cpu  time for SCC    0.00 s
wall time for SCC    0.01 s
speedup  1.01
cpu  time for grad    0.01 s
wall time for grad    0.01 s
 E :    -50.44035122  G :  0.014116    pred/act E change: -0.126D-01 -0.210D-02
Maxdispl :   0.1240   ||displ|| :   0.2781   Lambda : -0.135D-02
Largest |displ|/coords:  0.1240 (   6)  0.1095 (   4)  0.0996 (   1)
................................................................................
.............................. CYCLE    9 ......................................
................................................................................
   1    -50.7189498 -0.507189E+02  0.361E-01    8.85       0.0  T
   2    -50.7189942 -0.443825E-04  0.274E-01    8.84       1.0  T
   3    -50.7190298 -0.356260E-04  0.346E-02    8.83       1.0  T
   4    -50.7190356 -0.577584E-05  0.745E-03    8.84       2.6  T
   5    -50.7190356 -0.857511E-07  0.333E-03    8.84       5.9  T
   6    -50.7190357 -0.759959E-08  0.159E-03    8.84      12.3  T
   7    -50.7190357 -0.472710E-08  0.346E-04    8.84      56.6  T
speedup  0.98
cpu  time for SCC    0.01 s
wall time for SCC    0.01 s
speedup  1.01
cpu  time for grad    0.01 s
wall time for grad    0.01 s
 E :    -50.44051826  G :  0.031260    pred/act E change: -0.213D-02 -0.167D-03
Maxdispl :   0.0714   ||displ|| :   0.1818   Lambda : -0.122D-02
Largest |displ|/coords:  0.0714 (   4)  0.0711 (  15)  0.0640 (   1)
................................................................................
.............................. CYCLE   10 ......................................
................................................................................
   1    -50.7242875 -0.507243E+02  0.210E-01    8.82       0.0  T
   2    -50.7243029 -0.154677E-04  0.160E-01    8.82       1.0  T
   3    -50.7243153 -0.123576E-04  0.213E-02    8.81       1.0  T
   4    -50.7243173 -0.203757E-05  0.439E-03    8.82       4.5  T
   5    -50.7243174 -0.283900E-07  0.225E-03    8.82       8.7  T
speedup  1.11
cpu  time for SCC    0.00 s
wall time for SCC    0.00 s
speedup  1.07
cpu  time for grad    0.01 s
wall time for grad    0.01 s
 E :    -50.44100493  G :  0.016885    pred/act E change: -0.726D-03 -0.487D-03
Maxdispl :   0.0885   ||displ|| :   0.2142   Lambda : -0.910D-03
Largest |displ|/coords:  0.0885 (  14)  0.0752 (  15)  0.0740 (   8)
................................................................................
.............................. CYCLE   11 ......................................
................................................................................
   1    -50.7293273 -0.507293E+02  0.215E-01    8.83       0.0  T
   2    -50.7293420 -0.147246E-04  0.163E-01    8.84       1.0  T
   3    -50.7293534 -0.114436E-04  0.206E-02    8.85       1.0  T
   4    -50.7293554 -0.197035E-05  0.487E-03    8.85       4.0  T
   5    -50.7293555 -0.391623E-07  0.227E-03    8.85       8.6  T
   6    -50.7293555 -0.204980E-08  0.112E-03    8.85      17.5  T
speedup  1.09
cpu  time for SCC    0.01 s
wall time for SCC    0.01 s
speedup  0.99
cpu  time for grad    0.01 s
wall time for grad    0.01 s
 E :    -50.44111971  G :  0.018998    pred/act E change: -0.628D-03 -0.115D-03
Maxdispl :   0.0976   ||displ|| :   0.1979   Lambda : -0.809D-03
Largest |displ|/coords:  0.0976 (   4)  0.0709 (   6)  0.0696 (   9)
................................................................................
.............................. CYCLE   12 ......................................
................................................................................
   1    -50.7260005 -0.507260E+02  0.187E-01    8.86       0.0  T
   2    -50.7260105 -0.100126E-04  0.141E-01    8.86       1.0  T
   3    -50.7260187 -0.815062E-05  0.170E-02    8.87       1.2  T
   4    -50.7260199 -0.126284E-05  0.407E-03    8.87       4.8  T
   5    -50.7260199 -0.133117E-07  0.200E-03    8.87       9.8  T
   6    -50.7260199 -0.313713E-08  0.854E-04    8.87      23.0  T
speedup  0.93
cpu  time for SCC    0.01 s
wall time for SCC    0.01 s
speedup  1.00
cpu  time for grad    0.01 s
wall time for grad    0.01 s
 E :    -50.44168287  G :  0.016675    pred/act E change: -0.476D-03 -0.563D-03
Maxdispl :   0.1970   ||displ|| :   0.3699   Lambda : -0.107D-02
Largest |displ|/coords:  0.1970 (   4)  0.1257 (  22)  0.1157 (   9)
................................................................................
.............................. CYCLE   13 ......................................
................................................................................
   1    -50.7209310 -0.507209E+02  0.309E-01    8.88       0.0  T
   2    -50.7209641 -0.330947E-04  0.233E-01    8.89       1.0  T
   3    -50.7209895 -0.253643E-04  0.319E-02    8.90       1.0  T
   4    -50.7209937 -0.426039E-05  0.945E-03    8.90       2.1  T
   5    -50.7209939 -0.167547E-06  0.355E-03    8.90       5.5  T
   6    -50.7209939 -0.823861E-08  0.195E-03    8.90      10.1  T
   7    -50.7209939 -0.770531E-08  0.364E-04    8.90      53.8  T
speedup  1.13
cpu  time for SCC    0.01 s
wall time for SCC    0.01 s
speedup  1.01
cpu  time for grad    0.01 s
wall time for grad    0.01 s
 E :    -50.44175876  G :  0.031100    pred/act E change: -0.420D-03 -0.759D-04
Maxdispl :   0.0948   ||displ|| :   0.2316   Lambda : -0.138D-02
Largest |displ|/coords:  0.0948 (  12)  0.0856 (  14)  0.0835 (   4)
................................................................................
.............................. CYCLE   14 ......................................
................................................................................
   1    -50.7213801 -0.507214E+02  0.256E-01    8.92       0.0  T
   2    -50.7214084 -0.283125E-04  0.193E-01    8.92       1.0  T
   3    -50.7214286 -0.201509E-04  0.295E-02    8.94       1.0  T
   4    -50.7214325 -0.399094E-05  0.666E-03    8.93       2.9  T
   5    -50.7214326 -0.786811E-07  0.298E-03    8.93       6.6  T
   6    -50.7214326 -0.468825E-08  0.152E-03    8.93      12.9  T
speedup  0.94
cpu  time for SCC    0.00 s
wall time for SCC    0.01 s
speedup  1.01
cpu  time for grad    0.01 s
wall time for grad    0.01 s
 E :    -50.44228461  G :  0.024200    pred/act E change: -0.607D-03 -0.526D-03
Maxdispl :   0.1105   ||displ|| :   0.2492   Lambda : -0.155D-02
Largest |displ|/coords:  0.1105 (   8)  0.1069 (   6)  0.0888 (   5)
................................................................................
.............................. CYCLE   15 ......................................
................................................................................
   1    -50.7314241 -0.507314E+02  0.271E-01    8.99       0.0  T
   2    -50.7314611 -0.369567E-04  0.203E-01    8.99       1.0  T
   3    -50.7314851 -0.240392E-04  0.343E-02    9.00       1.0  T
   4    -50.7314902 -0.510692E-05  0.861E-03    9.00       2.3  T
   5    -50.7314904 -0.125074E-06  0.358E-03    9.00       5.5  T
   6    -50.7314904 -0.656429E-08  0.185E-03    9.00      10.6  T
speedup  0.93
cpu  time for SCC    0.01 s
wall time for SCC    0.01 s
speedup  1.00
cpu  time for grad    0.01 s
wall time for grad    0.01 s
 E :    -50.44221904  G :  0.021988    pred/act E change: -0.725D-03  0.656D-04
Maxdispl :   0.1127   ||displ|| :   0.2434   Lambda : -0.116D-02
Largest |displ|/coords:  0.1127 (   4)  0.1097 (   6)  0.0806 (   3)
................................................................................
.............................. CYCLE   16 ......................................
................................................................................
   1    -50.7256735 -0.507257E+02  0.205E-01    8.98       0.0  T
   2    -50.7256881 -0.145618E-04  0.154E-01    8.98       1.0  T
   3    -50.7256980 -0.998210E-05  0.212E-02    8.98       1.0  T
   4    -50.7257001 -0.210253E-05  0.557E-03    8.98       3.5  T
   5    -50.7257002 -0.524230E-07  0.226E-03    8.98       8.7  T
speedup  1.09
cpu  time for SCC    0.00 s
wall time for SCC    0.00 s
speedup  1.07
cpu  time for grad    0.01 s
wall time for grad    0.01 s
 E :    -50.44297800  G :  0.014112    pred/act E change: -0.823D-03 -0.759D-03
Maxdispl :   0.1386   ||displ|| :   0.3348   Lambda : -0.946D-03
Largest |displ|/coords:  0.1386 (   4)  0.1278 (   3)  0.1241 (   6)
................................................................................
.............................. CYCLE   17 ......................................
................................................................................
   1    -50.7231704 -0.507232E+02  0.253E-01    8.99       0.0  T
   2    -50.7232009 -0.305168E-04  0.191E-01    9.00       1.0  T
   3    -50.7232272 -0.262987E-04  0.303E-02    9.01       1.0  T
   4    -50.7232310 -0.381220E-05  0.817E-03    9.01       2.4  T
   5    -50.7232311 -0.661319E-07  0.389E-03    9.01       5.0  T
   6    -50.7232311 -0.193105E-07  0.159E-03    9.01      12.4  T
   7    -50.7232311 -0.561703E-08  0.361E-04    9.01      54.4  T
speedup  0.95
cpu  time for SCC    0.01 s
wall time for SCC    0.01 s
speedup  0.99
cpu  time for grad    0.01 s
wall time for grad    0.01 s
 E :    -50.44276776  G :  0.032796    pred/act E change: -0.612D-03  0.210D-03
Maxdispl :   0.1193   ||displ|| :   0.2298   Lambda : -0.153D-02
Largest |displ|/coords:  0.1193 (   8)  0.1010 (   5)  0.0866 (   4)
................................................................................
.............................. CYCLE   18 ......................................
................................................................................
   1    -50.7213136 -0.507213E+02  0.198E-01    9.01       0.0  T
   2    -50.7213391 -0.255268E-04  0.148E-01    9.01       1.0  T
   3    -50.7213564 -0.172678E-04  0.282E-02    9.02       1.0  T
   4    -50.7213599 -0.349566E-05  0.625E-03    9.02       3.1  T
   5    -50.7213599 -0.381969E-07  0.334E-03    9.02       5.9  T
   6    -50.7213599 -0.144298E-07  0.110E-03    9.02      17.8  T
speedup  0.89
cpu  time for SCC    0.00 s
wall time for SCC    0.01 s
speedup  0.98
cpu  time for grad    0.01 s
wall time for grad    0.01 s
 E :    -50.44344090  G :  0.020766    pred/act E change: -0.526D-03 -0.673D-03
Maxdispl :   0.0655   ||displ|| :   0.1720   Lambda : -0.897D-03
Largest |displ|/coords:  0.0655 (  19)  0.0601 (   7)  0.0569 (   1)
................................................................................
.............................. CYCLE   19 ......................................
................................................................................
   1    -50.7270261 -0.507270E+02  0.187E-01    9.04       0.0  T
   2    -50.7270454 -0.193429E-04  0.139E-01    9.03       1.0  T
   3    -50.7270559 -0.104642E-04  0.254E-02    9.02       1.0  T
   4    -50.7270585 -0.263364E-05  0.542E-03    9.02       3.6  T
   5    -50.7270586 -0.643530E-07  0.205E-03    9.02       9.6  T
speedup  0.87
cpu  time for SCC    0.00 s
wall time for SCC    0.00 s
speedup  0.98
cpu  time for grad    0.01 s
wall time for grad    0.01 s
 E :    -50.44353056  G :  0.012627    pred/act E change: -0.808D-03 -0.897D-04
Maxdispl :   0.1220   ||displ|| :   0.2534   Lambda : -0.668D-03
Largest |displ|/coords:  0.1220 (   3)  0.1163 (   4)  0.0750 (  22)
................................................................................
.............................. CYCLE   20 ......................................
................................................................................
   1    -50.7255697 -0.507256E+02  0.146E-01    9.02       0.0  T
   2    -50.7255766 -0.687702E-05  0.110E-01    9.03       1.0  T
   3    -50.7255823 -0.574814E-05  0.145E-02    9.04       1.4  T
   4    -50.7255832 -0.844735E-06  0.416E-03    9.03       4.7  T
   5    -50.7255832 -0.247040E-07  0.163E-03    9.03      12.1  T
   6    -50.7255832 -0.246213E-08  0.858E-04    9.03      22.8  T
speedup  0.93
cpu  time for SCC    0.00 s
wall time for SCC    0.01 s
speedup  0.99
cpu  time for grad    0.01 s
wall time for grad    0.01 s
 E :    -50.44402526  G :  0.008362    pred/act E change: -0.462D-03 -0.495D-03
Maxdispl :   0.1847   ||displ|| :   0.5115   Lambda : -0.817D-03
Largest |displ|/coords:  0.1847 (   3)  0.1792 (   4)  0.1598 (   6)
................................................................................
.............................. CYCLE   21 ......................................
................................................................................
   1    -50.7186272 -0.507186E+02  0.308E-01    9.03       0.0  T
   2    -50.7186645 -0.373232E-04  0.233E-01    9.04       1.0  T
   3    -50.7186926 -0.281032E-04  0.334E-02    9.05       1.0  T
   4    -50.7186980 -0.540744E-05  0.843E-03    9.05       2.3  T
   5    -50.7186981 -0.785642E-07  0.421E-03    9.05       4.7  T
   6    -50.7186981 -0.200464E-07  0.195E-03    9.05      10.0  T
   7    -50.7186981 -0.774745E-08  0.341E-04    9.05      57.6  T
speedup  1.11
cpu  time for SCC    0.01 s
wall time for SCC    0.01 s
speedup  1.01
cpu  time for grad    0.01 s
wall time for grad    0.01 s
 E :    -50.44405328  G :  0.026974    pred/act E change: -0.356D-03 -0.280D-04
Maxdispl :   0.1408   ||displ|| :   0.2221   Lambda : -0.118D-02
Largest |displ|/coords:  0.1408 (   3)  0.0721 (   8)  0.0610 (   2)
................................................................................
.............................. CYCLE   22 ......................................
................................................................................
   1    -50.7235906 -0.507236E+02  0.112E-01    9.06       0.0  T
   2    -50.7235973 -0.673099E-05  0.836E-02    9.06       1.0  T
   3    -50.7236023 -0.502144E-05  0.143E-02    9.05       1.4  T
   4    -50.7236031 -0.794443E-06  0.475E-03    9.06       4.1  T
   5    -50.7236031 -0.321148E-07  0.179E-03    9.06      11.0  T
speedup  0.87
cpu  time for SCC    0.00 s
wall time for SCC    0.00 s
speedup  0.98
cpu  time for grad    0.01 s
wall time for grad    0.01 s
 E :    -50.44468487  G :  0.014737    pred/act E change: -0.515D-03 -0.632D-03
Maxdispl :   0.1133   ||displ|| :   0.2229   Lambda : -0.494D-03
Largest |displ|/coords:  0.1133 (   3)  0.0862 (   2)  0.0662 (   1)
................................................................................
.............................. CYCLE   23 ......................................
................................................................................
   1    -50.7262685 -0.507263E+02  0.934E-02    9.05       0.0  T
   2    -50.7262730 -0.454033E-05  0.695E-02    9.05       1.0  T
   3    -50.7262756 -0.263994E-05  0.124E-02    9.06       1.6  T
   4    -50.7262762 -0.591754E-06  0.322E-03    9.05       6.1  T
   5    -50.7262763 -0.272388E-07  0.110E-03    9.05      17.9  T
   6    -50.7262763 -0.580805E-09  0.649E-04    9.05      30.2  T
speedup  0.93
cpu  time for SCC    0.00 s
wall time for SCC    0.01 s
speedup  0.98
cpu  time for grad    0.01 s
wall time for grad    0.01 s
 E :    -50.44504202  G :  0.008034    pred/act E change: -0.618D-03 -0.357D-03
Maxdispl :   0.3152   ||displ|| :   0.6676   Lambda : -0.966D-03
Largest |displ|/coords:  0.3152 (   3)  0.2163 (   2)  0.1734 (   8)
................................................................................
.............................. CYCLE   24 ......................................
................................................................................
   1    -50.7234366 -0.507234E+02  0.308E-01    9.05       0.0  T
   2    -50.7234566 -0.200097E-04  0.232E-01    9.05       1.0  T
   3    -50.7234721 -0.155255E-04  0.237E-02    9.03       1.0  T
   4    -50.7234749 -0.277807E-05  0.908E-03    9.03       2.2  T
   5    -50.7234750 -0.120118E-06  0.345E-03    9.04       5.7  T
   6    -50.7234750 -0.101372E-07  0.179E-03    9.04      10.9  T
   7    -50.7234750 -0.736178E-08  0.383E-04    9.04      51.2  T
speedup  1.06
cpu  time for SCC    0.01 s
wall time for SCC    0.01 s
speedup  1.06
cpu  time for grad    0.01 s
wall time for grad    0.01 s
 E :    -50.44547200  G :  0.022444    pred/act E change: -0.259D-03 -0.430D-03
Maxdispl :   0.2283   ||displ|| :   0.4452   Lambda : -0.106D-02
Largest |displ|/coords:  0.2283 (   2)  0.1854 (   3)  0.1464 (   5)
................................................................................
.............................. CYCLE   25 ......................................
................................................................................
   1    -50.7278812 -0.507279E+02  0.202E-01    9.03       0.0  T
   2    -50.7278936 -0.124559E-04  0.152E-01    9.02       1.0  T
   3    -50.7279045 -0.108673E-04  0.193E-02    9.01       1.0  T
   4    -50.7279059 -0.137472E-05  0.613E-03    9.01       3.2  T
   5    -50.7279059 -0.431316E-07  0.262E-03    9.01       7.5  T
   6    -50.7279059 -0.718844E-08  0.121E-03    9.01      16.3  T
speedup  1.11
cpu  time for SCC    0.01 s
wall time for SCC    0.01 s
speedup  0.99
cpu  time for grad    0.01 s
wall time for grad    0.01 s
 E :    -50.44605227  G :  0.018658    pred/act E change: -0.698D-03 -0.580D-03
Maxdispl :   0.2282   ||displ|| :   0.4942   Lambda : -0.962D-03
Largest |displ|/coords:  0.2282 (   3)  0.1780 (  13)  0.1768 (   2)

generating ANC from model Hessian ...
 Shifting diagonal of input Hessian by   5.125815273597624E-003
 Lowest  eigenvalues of input Hessian
    0.005000    0.005071   -0.000000   -0.000000   -0.000000    0.000000
    0.000000    0.000000    0.005249    0.005332    0.005590    0.005687
    0.005990    0.006494    0.006978    0.007749    0.008711    0.008824
 Highest eigenvalues
    1.394813    1.399634    1.416185    2.782784    3.421995    3.540788
 
cpu  time for ANC gen    0.01 s
wall time for ANC gen    0.01 s
................................................................................
.............................. CYCLE   26 ......................................
................................................................................
   1    -50.7222090 -0.507222E+02  0.209E-01    8.95       0.0  T
   2    -50.7222257 -0.167211E-04  0.156E-01    8.97       1.0  T
   3    -50.7222339 -0.815683E-05  0.245E-02    9.00       1.0  T
   4    -50.7222367 -0.278865E-05  0.609E-03    8.98       3.2  T
   5    -50.7222367 -0.425902E-07  0.254E-03    8.98       7.7  T
   6    -50.7222367 -0.626799E-08  0.103E-03    8.98      19.0  T
   7    -50.7222367 -0.277012E-08  0.266E-04    8.98      73.6  T
   8    -50.7222367 -0.208452E-09  0.907E-05    8.98     216.3  T
speedup  0.97
cpu  time for SCC    0.01 s
wall time for SCC    0.01 s
speedup  1.03
cpu  time for grad    0.02 s
wall time for grad    0.02 s
 E :    -50.44636732  G :  0.020415    pred/act E change:  0.000D+00 -0.315D-03
Maxdispl :   0.1897   ||displ|| :   0.2877   Lambda : -0.121D-02
Largest |displ|/coords:  0.1897 (   1)  0.1104 (   3)  0.0906 (   7)
................................................................................
.............................. CYCLE   27 ......................................
................................................................................
   1    -50.7238493 -0.507238E+02  0.350E-01    9.03       0.0  T
   2    -50.7238649 -0.156210E-04  0.267E-01    9.02       1.0  T
   3    -50.7238832 -0.183430E-04  0.159E-02    9.01       1.2  T
   4    -50.7238842 -0.102195E-05  0.571E-03    9.02       3.4  T
   5    -50.7238843 -0.135242E-07  0.280E-03    9.02       7.0  T
speedup  1.09
cpu  time for SCC    0.00 s
wall time for SCC    0.00 s
speedup  1.06
cpu  time for grad    0.01 s
wall time for grad    0.01 s
 E :    -50.44691799  G :  0.014467    pred/act E change:  0.000D+00 -0.551D-03
Maxdispl :   0.1803   ||displ|| :   0.4117   Lambda : -0.174D-02
Largest |displ|/coords:  0.1803 (   9)  0.1755 (   2)  0.1382 (   5)
................................................................................
.............................. CYCLE   28 ......................................
................................................................................
   1    -50.7296445 -0.507296E+02  0.427E-01    9.05       0.0  T
   2    -50.7296810 -0.365488E-04  0.324E-01    9.03       1.0  T
   3    -50.7297106 -0.295316E-04  0.317E-02    9.01       1.0  T
   4    -50.7297159 -0.530428E-05  0.940E-03    9.02       2.1  T
   5    -50.7297160 -0.159860E-06  0.394E-03    9.02       5.0  T
   6    -50.7297160 -0.342731E-08  0.187E-03    9.02      10.5  T
   7    -50.7297160 -0.656654E-08  0.351E-04    9.02      55.8  T
speedup  1.13
cpu  time for SCC    0.01 s
wall time for SCC    0.01 s
speedup  1.00
cpu  time for grad    0.01 s
wall time for grad    0.01 s
 E :    -50.44685105  G :  0.023023    pred/act E change: -0.657D-03  0.669D-04
Maxdispl :   0.0799   ||displ|| :   0.1845   Lambda : -0.126D-02
Largest |displ|/coords:  0.0799 (   6)  0.0752 (  11)  0.0670 (  12)
................................................................................
.............................. CYCLE   29 ......................................
................................................................................
   1    -50.7294198 -0.507294E+02  0.171E-01    9.00       0.0  T
   2    -50.7294258 -0.606144E-05  0.130E-01    9.01       1.0  T
   3    -50.7294319 -0.608514E-05  0.119E-02    9.02       1.6  T
   4    -50.7294326 -0.670779E-06  0.412E-03    9.01       4.8  T
   5    -50.7294326 -0.165749E-07  0.162E-03    9.01      12.1  T
speedup  1.09
cpu  time for SCC    0.00 s
wall time for SCC    0.00 s
speedup  0.98
cpu  time for grad    0.01 s
wall time for grad    0.01 s
 E :    -50.44761372  G :  0.007535    pred/act E change: -0.102D-02 -0.763D-03
Maxdispl :   0.2213   ||displ|| :   0.2891   Lambda : -0.540D-03
Largest |displ|/coords:  0.2213 (   1)  0.0959 (   4)  0.0864 (   9)
................................................................................
.............................. CYCLE   30 ......................................
................................................................................
   1    -50.7256024 -0.507256E+02  0.223E-01    8.98       0.0  T
   2    -50.7256090 -0.658590E-05  0.170E-01    8.98       1.0  T
   3    -50.7256169 -0.788965E-05  0.107E-02    8.98       1.8  T
   4    -50.7256173 -0.381883E-06  0.354E-03    8.98       5.5  T
   5    -50.7256173 -0.778331E-08  0.169E-03    8.98      11.6  T
   6    -50.7256173 -0.376119E-08  0.567E-04    8.98      34.6  T
speedup  1.13
cpu  time for SCC    0.01 s
wall time for SCC    0.01 s
speedup  1.07
cpu  time for grad    0.01 s
wall time for grad    0.01 s
 E :    -50.44795560  G :  0.009235    pred/act E change: -0.654D-03 -0.342D-03
Maxdispl :   0.2853   ||displ|| :   0.3924   Lambda : -0.446D-03
Largest |displ|/coords:  0.2853 (   1)  0.1465 (   9)  0.1061 (   4)
................................................................................
.............................. CYCLE   31 ......................................
................................................................................
   1    -50.7248203 -0.507248E+02  0.175E-01    8.96       0.0  T
   2    -50.7248241 -0.376405E-05  0.132E-01    8.96       1.0  T
   3    -50.7248285 -0.449404E-05  0.877E-03    8.96       2.2  T
   4    -50.7248288 -0.217482E-06  0.320E-03    8.96       6.1  T
   5    -50.7248288 -0.914329E-08  0.131E-03    8.96      15.0  T
   6    -50.7248288 -0.181502E-08  0.502E-04    8.96      39.1  T
speedup  1.09
cpu  time for SCC    0.01 s
wall time for SCC    0.01 s
speedup  1.06
cpu  time for grad    0.01 s
wall time for grad    0.01 s
 E :    -50.44832677  G :  0.011073    pred/act E change: -0.292D-03 -0.371D-03
Maxdispl :   0.4248   ||displ|| :   0.6137   Lambda : -0.747D-03
Largest |displ|/coords:  0.4248 (   1)  0.2332 (   9)  0.1767 (   3)
................................................................................
.............................. CYCLE   32 ......................................
................................................................................
   1    -50.7263119 -0.507263E+02  0.223E-01    8.94       0.0  T
   2    -50.7263192 -0.733111E-05  0.168E-01    8.94       1.0  T
   3    -50.7263263 -0.711646E-05  0.137E-02    8.94       1.4  T
   4    -50.7263271 -0.735047E-06  0.460E-03    8.94       4.3  T
   5    -50.7263271 -0.277550E-07  0.196E-03    8.94      10.0  T
   6    -50.7263271 -0.310934E-08  0.870E-04    8.94      22.6  T
speedup  1.11
cpu  time for SCC    0.01 s
wall time for SCC    0.01 s
speedup  1.06
cpu  time for grad    0.01 s
wall time for grad    0.01 s
 E :    -50.44883058  G :  0.008583    pred/act E change: -0.257D-03 -0.504D-03
Maxdispl :   0.4203   ||displ|| :   0.5244   Lambda : -0.462D-03
Largest |displ|/coords:  0.4203 (   1)  0.1531 (   9)  0.1080 (   3)
................................................................................
.............................. CYCLE   33 ......................................
................................................................................
   1    -50.7262684 -0.507263E+02  0.208E-01    8.96       0.0  T
   2    -50.7262732 -0.479689E-05  0.158E-01    8.96       1.0  T
   3    -50.7262795 -0.625646E-05  0.937E-03    8.96       2.1  T
   4    -50.7262797 -0.171085E-06  0.413E-03    8.96       4.7  T
   5    -50.7262797 -0.127807E-07  0.145E-03    8.96      13.5  T
   6    -50.7262797 -0.252182E-08  0.540E-04    8.96      36.3  T
speedup  1.13
cpu  time for SCC    0.01 s
wall time for SCC    0.01 s
speedup  1.07
cpu  time for grad    0.01 s
wall time for grad    0.01 s
 E :    -50.44914475  G :  0.011235    pred/act E change: -0.514D-03 -0.314D-03
Maxdispl :   0.3917   ||displ|| :   0.5122   Lambda : -0.651D-03
Largest |displ|/coords:  0.3917 (   1)  0.1569 (   9)  0.1297 (  12)
................................................................................
.............................. CYCLE   34 ......................................
................................................................................
   1    -50.7310455 -0.507310E+02  0.178E-01    9.06       0.0  T
   2    -50.7310572 -0.116991E-04  0.134E-01    9.06       1.0  T
   3    -50.7310673 -0.101104E-04  0.192E-02    9.08       1.0  T
   4    -50.7310687 -0.138549E-05  0.613E-03    9.07       3.2  T
   5    -50.7310687 -0.586717E-07  0.234E-03    9.07       8.4  T
   6    -50.7310687 -0.395871E-08  0.114E-03    9.07      17.1  T
speedup  1.11
cpu  time for SCC    0.01 s
wall time for SCC    0.01 s
speedup  1.06
cpu  time for grad    0.01 s
wall time for grad    0.01 s
 E :    -50.44926424  G :  0.020258    pred/act E change: -0.295D-03 -0.119D-03
Maxdispl :   0.1786   ||displ|| :   0.2705   Lambda : -0.661D-03
Largest |displ|/coords:  0.1786 (   1)  0.0899 (   3)  0.0706 (   5)
................................................................................
.............................. CYCLE   35 ......................................
................................................................................
   1    -50.7306440 -0.507306E+02  0.162E-01    9.12       0.0  T
   2    -50.7306531 -0.915647E-05  0.122E-01    9.12       1.0  T
   3    -50.7306596 -0.647581E-05  0.172E-02    9.12       1.1  T
   4    -50.7306609 -0.127509E-05  0.449E-03    9.12       4.4  T
   5    -50.7306609 -0.305718E-07  0.213E-03    9.12       9.2  T
speedup  1.06
cpu  time for SCC    0.00 s
wall time for SCC    0.00 s
speedup  1.02
cpu  time for grad    0.01 s
wall time for grad    0.01 s
 E :    -50.44960944  G :  0.008110    pred/act E change: -0.411D-03 -0.345D-03
Maxdispl :   0.3251   ||displ|| :   0.4370   Lambda : -0.249D-03
Largest |displ|/coords:  0.3251 (   1)  0.1367 (   9)  0.1268 (   3)
................................................................................
.............................. CYCLE   36 ......................................
................................................................................
   1    -50.7251204 -0.507251E+02  0.186E-01    9.03       0.0  T
   2    -50.7251272 -0.683598E-05  0.140E-01    9.03       1.0  T
   3    -50.7251340 -0.679427E-05  0.144E-02    9.03       1.4  T
   4    -50.7251347 -0.693762E-06  0.510E-03    9.03       3.8  T
   5    -50.7251347 -0.399434E-07  0.191E-03    9.03      10.3  T
   6    -50.7251347 -0.375375E-08  0.964E-04    9.03      20.3  T
speedup  0.93
cpu  time for SCC    0.01 s
wall time for SCC    0.01 s
speedup  0.97
cpu  time for grad    0.01 s
wall time for grad    0.01 s
 E :    -50.44967320  G :  0.014710    pred/act E change: -0.355D-03 -0.638D-04
Maxdispl :   0.0899   ||displ|| :   0.1628   Lambda : -0.308D-03
Largest |displ|/coords:  0.0899 (   3)  0.0642 (   1)  0.0521 (   2)
................................................................................
.............................. CYCLE   37 ......................................
................................................................................
   1    -50.7288858 -0.507289E+02  0.514E-02    9.05       0.0  T
   2    -50.7288876 -0.181899E-05  0.379E-02    9.05       1.0  T
   3    -50.7288888 -0.123954E-05  0.805E-03    9.05       2.4  T
   4    -50.7288890 -0.189524E-06  0.201E-03    9.05       9.8  T
   5    -50.7288890 -0.637088E-08  0.724E-04    9.05      27.1  T
speedup  0.87
cpu  time for SCC    0.00 s
wall time for SCC    0.00 s
speedup  0.96
cpu  time for grad    0.01 s
wall time for grad    0.01 s
 E :    -50.44983878  G :  0.006937    pred/act E change: -0.148D-03 -0.166D-03
Maxdispl :   0.1425   ||displ|| :   0.2424   Lambda : -0.233D-03
Largest |displ|/coords:  0.1425 (   1)  0.0899 (  12)  0.0694 (  14)
................................................................................
.............................. CYCLE   38 ......................................
................................................................................
   1    -50.7304105 -0.507304E+02  0.920E-02    9.11       0.0  T
   2    -50.7304124 -0.188922E-05  0.687E-02    9.10       1.0  T
   3    -50.7304141 -0.171684E-05  0.818E-03    9.10       2.4  T
   4    -50.7304143 -0.189877E-06  0.333E-03    9.11       5.9  T
   5    -50.7304143 -0.126528E-07  0.978E-04    9.11      20.1  T
   6    -50.7304143 -0.101344E-08  0.575E-04    9.11      34.1  T
speedup  0.91
cpu  time for SCC    0.00 s
wall time for SCC    0.01 s
speedup  0.97
cpu  time for grad    0.01 s
wall time for grad    0.01 s
 E :    -50.44996602  G :  0.005195    pred/act E change: -0.158D-03 -0.127D-03
Maxdispl :   0.2812   ||displ|| :   0.4135   Lambda : -0.191D-03
Largest |displ|/coords:  0.2812 (   1)  0.1664 (   3)  0.1424 (  12)
................................................................................
.............................. CYCLE   39 ......................................
................................................................................
   1    -50.7293287 -0.507293E+02  0.154E-01    9.09       0.0  T
   2    -50.7293319 -0.322410E-05  0.116E-01    9.09       1.0  T
   3    -50.7293356 -0.368702E-05  0.107E-02    9.09       1.8  T
   4    -50.7293358 -0.211916E-06  0.426E-03    9.09       4.6  T
   5    -50.7293358 -0.174925E-07  0.139E-03    9.09      14.1  T
   6    -50.7293358 -0.203811E-08  0.774E-04    9.09      25.3  T
speedup  1.11
cpu  time for SCC    0.01 s
wall time for SCC    0.01 s
speedup  0.98
cpu  time for grad    0.01 s
wall time for grad    0.01 s
 E :    -50.45007773  G :  0.005363    pred/act E change: -0.123D-03 -0.112D-03
Maxdispl :   0.1688   ||displ|| :   0.3066   Lambda : -0.139D-03
Largest |displ|/coords:  0.1688 (   1)  0.1372 (  12)  0.1070 (   3)
................................................................................
.............................. CYCLE   40 ......................................
................................................................................
   1    -50.7279091 -0.507279E+02  0.132E-01    9.05       0.0  T
   2    -50.7279123 -0.317132E-05  0.990E-02    9.04       1.0  T
   3    -50.7279152 -0.292391E-05  0.118E-02    9.03       1.7  T
   4    -50.7279156 -0.338925E-06  0.355E-03    9.04       5.5  T
   5    -50.7279156 -0.168748E-07  0.130E-03    9.04      15.1  T
   6    -50.7279156 -0.194000E-08  0.712E-04    9.04      27.6  T
speedup  1.13
cpu  time for SCC    0.01 s
wall time for SCC    0.01 s
speedup  0.98
cpu  time for grad    0.01 s
wall time for grad    0.01 s
 E :    -50.45014458  G :  0.006788    pred/act E change: -0.112D-03 -0.669D-04
Maxdispl :   0.0480   ||displ|| :   0.1060   Lambda : -0.109D-03
Largest |displ|/coords:  0.0480 (  12)  0.0422 (   1)  0.0407 (   7)
................................................................................
.............................. CYCLE   41 ......................................
................................................................................
   1    -50.7294468 -0.507294E+02  0.724E-02    9.04       0.0  T
   2    -50.7294482 -0.138439E-05  0.541E-02    9.04       1.0  T
   3    -50.7294493 -0.105955E-05  0.754E-03    9.03       2.6  T
   4    -50.7294495 -0.165553E-06  0.193E-03    9.03      10.2  T
   5    -50.7294495 -0.529539E-08  0.829E-04    9.03      23.7  T
speedup  1.09
cpu  time for SCC    0.01 s
wall time for SCC    0.00 s
speedup  1.02
cpu  time for grad    0.01 s
wall time for grad    0.01 s
 E :    -50.45021300  G :  0.005655    pred/act E change: -0.762D-04 -0.684D-04
Maxdispl :   0.0870   ||displ|| :   0.2145   Lambda : -0.114D-03
Largest |displ|/coords:  0.0870 (  12)  0.0762 (   5)  0.0706 (   3)
................................................................................
.............................. CYCLE   42 ......................................
................................................................................
   1    -50.7304826 -0.507305E+02  0.139E-01    9.05       0.0  T
   2    -50.7304855 -0.293110E-05  0.105E-01    9.05       1.0  T
   3    -50.7304878 -0.231816E-05  0.103E-02    9.04       1.9  T
   4    -50.7304882 -0.410399E-06  0.391E-03    9.04       5.0  T
   5    -50.7304882 -0.179508E-07  0.130E-03    9.04      15.1  T
   6    -50.7304882 -0.202743E-08  0.754E-04    9.04      26.0  T
speedup  0.93
cpu  time for SCC    0.00 s
wall time for SCC    0.01 s
speedup  0.98
cpu  time for grad    0.01 s
wall time for grad    0.01 s
 E :    -50.45027077  G :  0.007231    pred/act E change: -0.550D-04 -0.578D-04
Maxdispl :   0.0954   ||displ|| :   0.1921   Lambda : -0.154D-03
Largest |displ|/coords:  0.0954 (  12)  0.0918 (   4)  0.0517 (  18)
................................................................................
.............................. CYCLE   43 ......................................
................................................................................
   1    -50.7314746 -0.507315E+02  0.104E-01    9.05       0.0  T
   2    -50.7314777 -0.311617E-05  0.782E-02    9.05       1.0  T
   3    -50.7314797 -0.192901E-05  0.117E-02    9.05       1.7  T
   4    -50.7314802 -0.479483E-06  0.366E-03    9.05       5.4  T
   5    -50.7314802 -0.207123E-07  0.108E-03    9.05      18.1  T
   6    -50.7314802 -0.128952E-08  0.624E-04    9.05      31.4  T
speedup  0.89
cpu  time for SCC    0.00 s
wall time for SCC    0.01 s
speedup  0.97
cpu  time for grad    0.01 s
wall time for grad    0.01 s
 E :    -50.45034755  G :  0.006578    pred/act E change: -0.596D-04 -0.768D-04
Maxdispl :   0.1331   ||displ|| :   0.2892   Lambda : -0.197D-03
Largest |displ|/coords:  0.1331 (  12)  0.1288 (   4)  0.1056 (   5)
................................................................................
.............................. CYCLE   44 ......................................
................................................................................
   1    -50.7275310 -0.507275E+02  0.209E-01    8.97       0.0  T
   2    -50.7275368 -0.578717E-05  0.157E-01    8.97       1.0  T
   3    -50.7275423 -0.555523E-05  0.136E-02    8.98       1.4  T
   4    -50.7275429 -0.574836E-06  0.564E-03    8.97       3.5  T
   5    -50.7275429 -0.309359E-07  0.168E-03    8.97      11.7  T
   6    -50.7275429 -0.283745E-08  0.883E-04    8.97      22.2  T
speedup  0.89
cpu  time for SCC    0.00 s
wall time for SCC    0.01 s
speedup  0.96
cpu  time for grad    0.01 s
wall time for grad    0.01 s
 E :    -50.45037586  G :  0.014783    pred/act E change: -0.801D-04 -0.283D-04
Maxdispl :   0.0925   ||displ|| :   0.1651   Lambda : -0.310D-03
Largest |displ|/coords:  0.0925 (   3)  0.0789 (   1)  0.0493 (  12)
................................................................................
.............................. CYCLE   45 ......................................
................................................................................
   1    -50.7303556 -0.507304E+02  0.967E-02    9.03       0.0  T
   2    -50.7303598 -0.421641E-05  0.711E-02    9.04       1.0  T
   3    -50.7303629 -0.315862E-05  0.121E-02    9.04       1.6  T
   4    -50.7303633 -0.385467E-06  0.363E-03    9.04       5.4  T
   5    -50.7303634 -0.163854E-07  0.137E-03    9.04      14.3  T
   6    -50.7303634 -0.254299E-08  0.686E-04    9.04      28.6  T
speedup  0.91
cpu  time for SCC    0.00 s
wall time for SCC    0.01 s
speedup  0.97
cpu  time for grad    0.01 s
wall time for grad    0.01 s
 E :    -50.45044813  G :  0.009820    pred/act E change: -0.107D-03 -0.723D-04
Maxdispl :   0.0750   ||displ|| :   0.1544   Lambda : -0.235D-03
Largest |displ|/coords:  0.0750 (   1)  0.0628 (   3)  0.0463 (   2)
................................................................................
.............................. CYCLE   46 ......................................
................................................................................
   1    -50.7309974 -0.507310E+02  0.798E-02    9.07       0.0  T
   2    -50.7309992 -0.180447E-05  0.598E-02    9.07       1.0  T
   3    -50.7310009 -0.169371E-05  0.802E-03    9.07       2.4  T
   4    -50.7310011 -0.184607E-06  0.299E-03    9.07       6.6  T
   5    -50.7310011 -0.102774E-07  0.891E-04    9.07      22.0  T
speedup  1.09
cpu  time for SCC    0.00 s
wall time for SCC    0.00 s
speedup  1.04
cpu  time for grad    0.01 s
wall time for grad    0.01 s
 E :    -50.45054780  G :  0.006510    pred/act E change: -0.159D-03 -0.997D-04
Maxdispl :   0.1030   ||displ|| :   0.2059   Lambda : -0.145D-03
Largest |displ|/coords:  0.1030 (  12)  0.1003 (   4)  0.0611 (  11)
................................................................................
.............................. CYCLE   47 ......................................
................................................................................
   1    -50.7296415 -0.507296E+02  0.126E-01    9.02       0.0  T
   2    -50.7296434 -0.195404E-05  0.947E-02    9.02       1.0  T
   3    -50.7296454 -0.199462E-05  0.760E-03    9.02       2.6  T
   4    -50.7296456 -0.161321E-06  0.317E-03    9.02       6.2  T
   5    -50.7296456 -0.894174E-08  0.974E-04    9.02      20.1  T
   6    -50.7296456 -0.844501E-09  0.503E-04    9.02      39.0  T
speedup  1.09
cpu  time for SCC    0.01 s
wall time for SCC    0.01 s
speedup  1.04
cpu  time for grad    0.01 s
wall time for grad    0.01 s
 E :    -50.45064431  G :  0.007799    pred/act E change: -0.120D-03 -0.965D-04
Maxdispl :   0.1195   ||displ|| :   0.2417   Lambda : -0.144D-03
Largest |displ|/coords:  0.1195 (  12)  0.1132 (   4)  0.0671 (  11)
................................................................................
.............................. CYCLE   48 ......................................
................................................................................
   1    -50.7288315 -0.507288E+02  0.149E-01    9.01       0.0  T
   2    -50.7288346 -0.313591E-05  0.112E-01    9.01       1.0  T
   3    -50.7288375 -0.284492E-05  0.991E-03    9.01       2.0  T
   4    -50.7288378 -0.366205E-06  0.422E-03    9.01       4.6  T
   5    -50.7288378 -0.134200E-07  0.117E-03    9.01      16.7  T
   6    -50.7288378 -0.106519E-08  0.604E-04    9.01      32.4  T
speedup  0.73
cpu  time for SCC    0.00 s
wall time for SCC    0.01 s
speedup  0.90
cpu  time for grad    0.01 s
wall time for grad    0.01 s
 E :    -50.45072584  G :  0.013125    pred/act E change: -0.755D-04 -0.815D-04
Maxdispl :   0.1402   ||displ|| :   0.2718   Lambda : -0.286D-03
Largest |displ|/coords:  0.1402 (  12)  0.0945 (  10)  0.0801 (   4)
................................................................................
.............................. CYCLE   49 ......................................
................................................................................
   1    -50.7279384 -0.507279E+02  0.152E-01    8.98       0.0  T
   2    -50.7279459 -0.753665E-05  0.112E-01    8.99       1.0  T
   3    -50.7279508 -0.483018E-05  0.174E-02    9.01       1.1  T
   4    -50.7279517 -0.913391E-06  0.563E-03    9.01       3.5  T
   5    -50.7279517 -0.352217E-07  0.167E-03    9.00      11.8  T
   6    -50.7279517 -0.300165E-08  0.883E-04    9.00      22.2  T
speedup  0.93
cpu  time for SCC    0.00 s
wall time for SCC    0.01 s
speedup  0.98
cpu  time for grad    0.01 s
wall time for grad    0.01 s
 E :    -50.45079084  G :  0.013846    pred/act E change: -0.764D-04 -0.650D-04
Maxdispl :   0.1061   ||displ|| :   0.1964   Lambda : -0.306D-03
Largest |displ|/coords:  0.1061 (  12)  0.0752 (  11)  0.0546 (   4)
................................................................................
.............................. CYCLE   50 ......................................
................................................................................
   1    -50.7296224 -0.507296E+02  0.121E-01    9.03       0.0  T
   2    -50.7296257 -0.333225E-05  0.910E-02    9.02       1.0  T
   3    -50.7296279 -0.217341E-05  0.115E-02    9.01       1.7  T
   4    -50.7296284 -0.539410E-06  0.380E-03    9.01       5.2  T
   5    -50.7296285 -0.160723E-07  0.125E-03    9.01      15.6  T
   6    -50.7296285 -0.173947E-08  0.670E-04    9.01      29.3  T
speedup  0.91
cpu  time for SCC    0.00 s
wall time for SCC    0.01 s
speedup  0.97
cpu  time for grad    0.01 s
wall time for grad    0.01 s
 E :    -50.45097996  G :  0.010300    pred/act E change: -0.154D-03 -0.189D-03
Maxdispl :   0.1274   ||displ|| :   0.2753   Lambda : -0.237D-03
Largest |displ|/coords:  0.1274 (  12)  0.0893 (   4)  0.0887 (  11)
................................................................................
.............................. CYCLE   51 ......................................
................................................................................
   1    -50.7296592 -0.507297E+02  0.182E-01    9.08       0.0  T
   2    -50.7296659 -0.670382E-05  0.137E-01    9.08       1.0  T
   3    -50.7296711 -0.516950E-05  0.162E-02    9.08       1.2  T
   4    -50.7296720 -0.921399E-06  0.607E-03    9.08       3.2  T
   5    -50.7296720 -0.337807E-07  0.183E-03    9.08      10.7  T
   6    -50.7296720 -0.317918E-08  0.895E-04    9.08      21.9  T
speedup  0.91
cpu  time for SCC    0.00 s
wall time for SCC    0.01 s
speedup  0.97
cpu  time for grad    0.01 s
wall time for grad    0.01 s
 E :    -50.45108627  G :  0.015415    pred/act E change: -0.159D-03 -0.106D-03
Maxdispl :   0.0959   ||displ|| :   0.1716   Lambda : -0.322D-03
Largest |displ|/coords:  0.0959 (  12)  0.0656 (  18)  0.0543 (  11)
................................................................................
.............................. CYCLE   52 ......................................
................................................................................
   1    -50.7346686 -0.507347E+02  0.876E-02    9.11       0.0  T
   2    -50.7346728 -0.419778E-05  0.649E-02    9.11       1.0  T
   3    -50.7346750 -0.219530E-05  0.140E-02    9.11       1.4  T
   4    -50.7346755 -0.521469E-06  0.424E-03    9.11       4.6  T
   5    -50.7346755 -0.317332E-07  0.104E-03    9.11      18.9  T
   6    -50.7346755 -0.902247E-09  0.602E-04    9.11      32.6  T
speedup  0.91
cpu  time for SCC    0.00 s
wall time for SCC    0.01 s
speedup  0.96
cpu  time for grad    0.01 s
wall time for grad    0.01 s
 E :    -50.45118430  G :  0.013096    pred/act E change: -0.128D-03 -0.980D-04
Maxdispl :   0.3073   ||displ|| :   0.5225   Lambda : -0.517D-03
Largest |displ|/coords:  0.3073 (  12)  0.1804 (  11)  0.1512 (  18)

generating ANC from model Hessian ...
 Shifting diagonal of input Hessian by   5.022506198319404E-003
 Lowest  eigenvalues of input Hessian
    0.005000   -0.000000   -0.000000    0.000000    0.000000    0.000000
    0.000000    0.005281    0.005364    0.005553    0.006047    0.006356
    0.006593    0.006678    0.006944    0.007298    0.007532    0.008347
 Highest eigenvalues
    1.388354    1.402566    1.405615    2.697551    3.377140    3.506726
 
cpu  time for ANC gen    0.01 s
wall time for ANC gen    0.01 s
................................................................................
.............................. CYCLE   53 ......................................
................................................................................
   1    -50.7285574 -0.507286E+02  0.286E-01    8.89       0.0  T
   2    -50.7285719 -0.145599E-04  0.213E-01    8.89       1.0  T
   3    -50.7285841 -0.121812E-04  0.262E-02    8.89       1.0  T
   4    -50.7285857 -0.161175E-05  0.968E-03    8.89       2.0  T
   5    -50.7285858 -0.105510E-06  0.265E-03    8.89       7.4  T
   6    -50.7285858 -0.852232E-08  0.154E-03    8.89      12.7  T
   7    -50.7285858 -0.658549E-08  0.501E-04    8.89      39.1  T
   8    -50.7285858 -0.127421E-08  0.260E-04    8.89      75.4  T
speedup  1.13
cpu  time for SCC    0.01 s
wall time for SCC    0.01 s
speedup  1.02
cpu  time for grad    0.02 s
wall time for grad    0.02 s
 E :    -50.45145436  G :  0.014744    pred/act E change:  0.000D+00 -0.270D-03
Maxdispl :   0.1538   ||displ|| :   0.2583   Lambda : -0.679D-03
Largest |displ|/coords:  0.1538 (   7)  0.1117 (   5)  0.0992 (   6)
................................................................................
.............................. CYCLE   54 ......................................
................................................................................
   1    -50.7280574 -0.507281E+02  0.407E-01    8.93       0.0  T
   2    -50.7280791 -0.217643E-04  0.310E-01    8.93       1.0  T
   3    -50.7281023 -0.231778E-04  0.236E-02    8.93       1.0  T
   4    -50.7281041 -0.178286E-05  0.801E-03    8.93       2.4  T
   5    -50.7281042 -0.471974E-07  0.297E-03    8.93       6.6  T
   6    -50.7281042  0.117032E-08  0.981E-04    8.93      20.0  T
speedup  0.93
cpu  time for SCC    0.00 s
wall time for SCC    0.01 s
speedup  0.96
cpu  time for grad    0.01 s
wall time for grad    0.01 s
 E :    -50.45159785  G :  0.022163    pred/act E change:  0.000D+00 -0.143D-03
Maxdispl :   0.1059   ||displ|| :   0.2094   Lambda : -0.103D-02
Largest |displ|/coords:  0.1059 (   8)  0.1030 (  11)  0.0762 (  12)
................................................................................
.............................. CYCLE   55 ......................................
................................................................................
   1    -50.7328114 -0.507328E+02  0.245E-01    9.05       0.0  T
   2    -50.7328245 -0.130915E-04  0.185E-01    9.06       1.0  T
   3    -50.7328347 -0.102086E-04  0.212E-02    9.07       1.0  T
   4    -50.7328364 -0.171123E-05  0.599E-03    9.07       3.3  T
   5    -50.7328365 -0.503456E-07  0.235E-03    9.07       8.3  T
speedup  0.89
cpu  time for SCC    0.00 s
wall time for SCC    0.00 s
speedup  0.95
cpu  time for grad    0.01 s
wall time for grad    0.01 s
 E :    -50.45203020  G :  0.006149    pred/act E change: -0.362D-03 -0.432D-03
Maxdispl :   0.1064   ||displ|| :   0.1775   Lambda : -0.298D-03
Largest |displ|/coords:  0.1064 (   6)  0.0644 (   3)  0.0641 (   7)
................................................................................
.............................. CYCLE   56 ......................................
................................................................................
   1    -50.7334315 -0.507334E+02  0.137E-01    9.10       0.0  T
   2    -50.7334339 -0.246637E-05  0.104E-01    9.10       1.0  T
   3    -50.7334367 -0.275613E-05  0.867E-03    9.11       2.3  T
   4    -50.7334369 -0.172918E-06  0.333E-03    9.10       5.9  T
   5    -50.7334369 -0.859263E-08  0.994E-04    9.10      19.7  T
   6    -50.7334369 -0.720775E-09  0.475E-04    9.10      41.3  T
speedup  0.94
cpu  time for SCC    0.00 s
wall time for SCC    0.01 s
speedup  0.98
cpu  time for grad    0.01 s
wall time for grad    0.01 s
 E :    -50.45223208  G :  0.006117    pred/act E change: -0.540D-03 -0.202D-03
Maxdispl :   0.2337   ||displ|| :   0.4090   Lambda : -0.495D-03
Largest |displ|/coords:  0.2337 (   6)  0.1612 (   7)  0.1440 (   3)
................................................................................
.............................. CYCLE   57 ......................................
................................................................................
   1    -50.7312329 -0.507312E+02  0.327E-01    9.12       0.0  T
   2    -50.7312457 -0.128371E-04  0.247E-01    9.12       1.0  T
   3    -50.7312612 -0.154954E-04  0.188E-02    9.12       1.0  T
   4    -50.7312619 -0.670946E-06  0.774E-03    9.12       2.5  T
   5    -50.7312619 -0.425661E-07  0.254E-03    9.12       7.7  T
   6    -50.7312619 -0.543623E-08  0.116E-03    9.12      16.9  T
speedup  0.93
cpu  time for SCC    0.00 s
wall time for SCC    0.01 s
speedup  0.98
cpu  time for grad    0.01 s
wall time for grad    0.01 s
 E :    -50.45247941  G :  0.015875    pred/act E change: -0.153D-03 -0.247D-03
Maxdispl :   0.1329   ||displ|| :   0.2653   Lambda : -0.461D-03
Largest |displ|/coords:  0.1329 (  12)  0.1080 (   6)  0.0882 (  11)
................................................................................
.............................. CYCLE   58 ......................................
................................................................................
   1    -50.7327664 -0.507328E+02  0.174E-01    9.07       0.0  T
   2    -50.7327741 -0.772481E-05  0.130E-01    9.07       1.0  T
   3    -50.7327805 -0.646544E-05  0.170E-02    9.07       1.2  T
   4    -50.7327814 -0.812962E-06  0.626E-03    9.07       3.1  T
   5    -50.7327814 -0.669919E-07  0.195E-03    9.07      10.1  T
   6    -50.7327814 -0.401649E-08  0.110E-03    9.07      17.8  T
speedup  0.94
cpu  time for SCC    0.00 s
wall time for SCC    0.01 s
speedup  0.98
cpu  time for grad    0.01 s
wall time for grad    0.01 s
 E :    -50.45260654  G :  0.011899    pred/act E change: -0.289D-03 -0.127D-03
Maxdispl :   0.1597   ||displ|| :   0.2923   Lambda : -0.590D-03
Largest |displ|/coords:  0.1597 (   6)  0.1235 (  11)  0.0978 (   3)
................................................................................
.............................. CYCLE   59 ......................................
................................................................................
   1    -50.7314109 -0.507314E+02  0.238E-01    9.01       0.0  T
   2    -50.7314191 -0.820529E-05  0.178E-01    9.01       1.0  T
   3    -50.7314267 -0.758498E-05  0.173E-02    9.02       1.1  T
   4    -50.7314274 -0.762531E-06  0.700E-03    9.02       2.8  T
   5    -50.7314275 -0.566152E-07  0.217E-03    9.02       9.0  T
   6    -50.7314275 -0.458433E-08  0.116E-03    9.02      16.9  T
speedup  0.93
cpu  time for SCC    0.00 s
wall time for SCC    0.01 s
speedup  0.97
cpu  time for grad    0.01 s
wall time for grad    0.01 s
 E :    -50.45279325  G :  0.013622    pred/act E change: -0.247D-03 -0.187D-03
Maxdispl :   0.0539   ||displ|| :   0.1108   Lambda : -0.321D-03
Largest |displ|/coords:  0.0539 (   9)  0.0405 (  15)  0.0359 (   6)
................................................................................
.............................. CYCLE   60 ......................................
................................................................................
   1    -50.7342937 -0.507343E+02  0.941E-02    9.07       0.0  T
   2    -50.7342959 -0.214201E-05  0.706E-02    9.07       1.0  T
   3    -50.7342977 -0.180631E-05  0.841E-03    9.06       2.3  T
   4    -50.7342979 -0.231934E-06  0.263E-03    9.07       7.5  T
   5    -50.7342979 -0.692918E-08  0.934E-04    9.07      21.0  T
speedup  1.09
cpu  time for SCC    0.00 s
wall time for SCC    0.00 s
speedup  1.03
cpu  time for grad    0.01 s
wall time for grad    0.01 s
 E :    -50.45293410  G :  0.004698    pred/act E change: -0.320D-03 -0.141D-03
Maxdispl :   0.1065   ||displ|| :   0.2304   Lambda : -0.165D-03
Largest |displ|/coords:  0.1065 (   6)  0.0968 (   3)  0.0868 (   2)
................................................................................
.............................. CYCLE   61 ......................................
................................................................................
   1    -50.7316905 -0.507317E+02  0.172E-01    9.03       0.0  T
   2    -50.7316948 -0.432144E-05  0.130E-01    9.04       1.0  T
   3    -50.7316995 -0.469200E-05  0.111E-02    9.04       1.8  T
   4    -50.7316998 -0.309178E-06  0.495E-03    9.03       4.0  T
   5    -50.7316999 -0.183347E-07  0.135E-03    9.03      14.5  T
   6    -50.7316999 -0.185465E-08  0.699E-04    9.03      28.1  T
speedup  0.91
cpu  time for SCC    0.00 s
wall time for SCC    0.01 s
speedup  0.96
cpu  time for grad    0.01 s
wall time for grad    0.01 s
 E :    -50.45300635  G :  0.010234    pred/act E change: -0.162D-03 -0.723D-04
Maxdispl :   0.0669   ||displ|| :   0.1331   Lambda : -0.186D-03
Largest |displ|/coords:  0.0669 (   2)  0.0661 (   3)  0.0463 (   5)
................................................................................
.............................. CYCLE   62 ......................................
................................................................................
   1    -50.7341462 -0.507341E+02  0.900E-02    9.06       0.0  T
   2    -50.7341484 -0.219739E-05  0.668E-02    9.07       1.0  T
   3    -50.7341503 -0.191139E-05  0.988E-03    9.07       2.0  T
   4    -50.7341505 -0.189388E-06  0.240E-03    9.07       8.2  T
   5    -50.7341505 -0.608575E-08  0.988E-04    9.07      19.8  T
speedup  1.04
cpu  time for SCC    0.00 s
wall time for SCC    0.00 s
speedup  1.02
cpu  time for grad    0.01 s
wall time for grad    0.01 s
 E :    -50.45310717  G :  0.004562    pred/act E change: -0.868D-04 -0.101D-03
Maxdispl :   0.1321   ||displ|| :   0.2463   Lambda : -0.174D-03
Largest |displ|/coords:  0.1321 (   3)  0.1103 (   2)  0.0906 (   5)
................................................................................
.............................. CYCLE   63 ......................................
................................................................................
   1    -50.7346294 -0.507346E+02  0.163E-01    9.07       0.0  T
   2    -50.7346324 -0.304232E-05  0.122E-01    9.06       1.0  T
   3    -50.7346354 -0.301126E-05  0.115E-02    9.06       1.7  T
   4    -50.7346357 -0.271173E-06  0.485E-03    9.06       4.0  T
   5    -50.7346357 -0.183793E-07  0.123E-03    9.06      15.9  T
   6    -50.7346357 -0.156803E-08  0.755E-04    9.06      26.0  T
speedup  1.09
cpu  time for SCC    0.01 s
wall time for SCC    0.01 s
speedup  1.04
cpu  time for grad    0.01 s
wall time for grad    0.01 s
 E :    -50.45320674  G :  0.008003    pred/act E change: -0.947D-04 -0.996D-04
Maxdispl :   0.1826   ||displ|| :   0.3003   Lambda : -0.161D-03
Largest |displ|/coords:  0.1826 (   3)  0.1286 (   2)  0.1076 (   6)
................................................................................
.............................. CYCLE   64 ......................................
................................................................................
   1    -50.7334255 -0.507334E+02  0.180E-01    9.04       0.0  T
   2    -50.7334296 -0.412158E-05  0.135E-01    9.04       1.0  T
   3    -50.7334338 -0.419850E-05  0.129E-02    9.03       1.5  T
   4    -50.7334341 -0.316073E-06  0.488E-03    9.03       4.0  T
   5    -50.7334342 -0.231009E-07  0.144E-03    9.03      13.7  T
   6    -50.7334342 -0.194810E-08  0.836E-04    9.03      23.5  T
speedup  0.91
cpu  time for SCC    0.00 s
wall time for SCC    0.01 s
speedup  0.96
cpu  time for grad    0.01 s
wall time for grad    0.01 s
 E :    -50.45326589  G :  0.006363    pred/act E change: -0.921D-04 -0.592D-04
Maxdispl :   0.1086   ||displ|| :   0.1505   Lambda : -0.141D-03
Largest |displ|/coords:  0.1086 (   2)  0.0714 (   3)  0.0400 (   1)
................................................................................
.............................. CYCLE   65 ......................................
................................................................................
   1    -50.7351036 -0.507351E+02  0.818E-02    9.08       0.0  T
   2    -50.7351053 -0.167120E-05  0.613E-02    9.08       1.0  T
   3    -50.7351069 -0.161425E-05  0.941E-03    9.08       2.1  T
   4    -50.7351071 -0.165846E-06  0.297E-03    9.08       6.6  T
   5    -50.7351071 -0.107761E-07  0.874E-04    9.08      22.4  T
speedup  1.06
cpu  time for SCC    0.00 s
wall time for SCC    0.00 s
speedup  1.02
cpu  time for grad    0.01 s
wall time for grad    0.01 s
 E :    -50.45332750  G :  0.007839    pred/act E change: -0.876D-04 -0.616D-04
Maxdispl :   0.1390   ||displ|| :   0.2264   Lambda : -0.144D-03
Largest |displ|/coords:  0.1390 (   2)  0.1120 (   3)  0.0770 (   5)
................................................................................
.............................. CYCLE   66 ......................................
[...]
Largest |displ|/coords:  0.0728 (   2)  0.0362 (   1)  0.0097 (  36)
................................................................................
.............................. CYCLE  157 ......................................
................................................................................
   1    -50.7337018 -0.507337E+02  0.335E-02    9.05       0.0  T
   2    -50.7337020 -0.202817E-06  0.248E-02    9.05       1.0  T
   3    -50.7337022 -0.198672E-06  0.237E-03    9.05       8.3  T
   4    -50.7337022 -0.153165E-07  0.113E-03    9.05      17.4  T
   5    -50.7337022 -0.123588E-08  0.271E-04    9.05      72.5  T
   6    -50.7337022 -0.112856E-09  0.160E-04    9.05     122.8  T
speedup  0.91
cpu  time for SCC    0.00 s
wall time for SCC    0.01 s
speedup  0.99
cpu  time for grad    0.01 s
wall time for grad    0.01 s
 E :    -50.45725807  G :  0.000528    pred/act E change: -0.238D-05 -0.243D-05
Maxdispl :   0.0970   ||displ|| :   0.1161   Lambda : -0.310D-05
Largest |displ|/coords:  0.0970 (   2)  0.0474 (   1)  0.0236 (   8)
................................................................................
.............................. CYCLE  158 ......................................
................................................................................
   1    -50.7334334 -0.507334E+02  0.486E-02    9.05       0.0  T
   2    -50.7334338 -0.323038E-06  0.361E-02    9.05       1.0  T
   3    -50.7334341 -0.331615E-06  0.305E-03    9.04       6.4  T
   4    -50.7334341 -0.232358E-07  0.145E-03    9.04      13.6  T
   5    -50.7334341 -0.208931E-08  0.340E-04    9.04      57.8  T
   6    -50.7334341 -0.153172E-09  0.194E-04    9.04     100.9  T
speedup  0.91
cpu  time for SCC    0.00 s
wall time for SCC    0.01 s
speedup  0.99
cpu  time for grad    0.01 s
wall time for grad    0.01 s
 E :    -50.45725868  G :  0.001151    pred/act E change: -0.180D-05 -0.603D-06
Maxdispl :   0.0166   ||displ|| :   0.0312   Lambda : -0.446D-05
Largest |displ|/coords:  0.0166 (   1)  0.0145 (   2)  0.0094 (  17)
................................................................................
.............................. CYCLE  159 ......................................
................................................................................
   1    -50.7339516 -0.507340E+02  0.187E-02    9.05       0.0  T
   2    -50.7339517 -0.833533E-07  0.138E-02    9.05       1.4  T
   3    -50.7339517 -0.532150E-07  0.183E-03    9.05      10.7  T
   4    -50.7339518 -0.106428E-07  0.558E-04    9.05      35.1  T
   5    -50.7339518 -0.304006E-09  0.165E-04    9.05     118.7  T
speedup  1.11
cpu  time for SCC    0.00 s
wall time for SCC    0.00 s
speedup  1.04
cpu  time for grad    0.01 s
wall time for grad    0.01 s
 E :    -50.45726061  G :  0.000730    pred/act E change: -0.157D-05 -0.194D-05
Maxdispl :   0.0038   ||displ|| :   0.0069   Lambda : -0.953D-06
Largest |displ|/coords:  0.0038 (   8)  0.0030 (   3)  0.0026 (   1)
................................................................................
.............................. CYCLE  160 ......................................
................................................................................
   1    -50.7338674 -0.507339E+02  0.483E-03    9.05       0.0  T
   2    -50.7338674 -0.360831E-08  0.360E-03    9.05       5.4  T
   3    -50.7338675 -0.302959E-08  0.377E-04    9.05      52.0  T
   4    -50.7338675 -0.395715E-09  0.167E-04    9.05     117.4  T
speedup  1.08
cpu  time for SCC    0.00 s
wall time for SCC    0.00 s
speedup  1.06
cpu  time for grad    0.01 s
wall time for grad    0.01 s
 E :    -50.45726134  G :  0.000457    pred/act E change: -0.223D-05 -0.722D-06
Maxdispl :   0.0135   ||displ|| :   0.0218   Lambda : -0.131D-05
Largest |displ|/coords:  0.0135 (   2)  0.0091 (   8)  0.0078 (   3)
................................................................................
.............................. CYCLE  161 ......................................
................................................................................
   1    -50.7337150 -0.507337E+02  0.111E-02    9.04       0.0  T
   2    -50.7337150 -0.189665E-07  0.833E-03    9.04       2.4  T
   3    -50.7337150 -0.167367E-07  0.743E-04    9.04      26.4  T
   4    -50.7337150 -0.250915E-08  0.375E-04    9.04      52.4  T
speedup  0.79
cpu  time for SCC    0.00 s
wall time for SCC    0.00 s
speedup  0.97
cpu  time for grad    0.01 s
wall time for grad    0.01 s
 E :    -50.45726213  G :  0.000355    pred/act E change: -0.477D-06 -0.797D-06
Maxdispl :   0.0059   ||displ|| :   0.0100   Lambda : -0.343D-06
Largest |displ|/coords:  0.0059 (   1)  0.0045 (   3)  0.0026 (   8)
................................................................................
.............................. CYCLE  162 ......................................
................................................................................
   1    -50.7337065 -0.507337E+02  0.675E-03    9.04       0.0  T
   2    -50.7337066 -0.647523E-08  0.507E-03    9.04       3.9  T
   3    -50.7337066 -0.767724E-08  0.440E-04    9.04      44.6  T
   4    -50.7337066 -0.467693E-09  0.218E-04    9.04      90.1  T
speedup  1.08
cpu  time for SCC    0.00 s
wall time for SCC    0.00 s
speedup  1.06
cpu  time for grad    0.01 s
wall time for grad    0.01 s
 E :    -50.45726242  G :  0.000308    pred/act E change: -0.657D-06 -0.286D-06
Maxdispl :   0.0184   ||displ|| :   0.0241   Lambda : -0.568D-06
Largest |displ|/coords:  0.0184 (   2)  0.0096 (   3)  0.0048 (   8)
................................................................................
.............................. CYCLE  163 ......................................
................................................................................
   1    -50.7337002 -0.507337E+02  0.121E-02    9.04       0.0  T
   2    -50.7337003 -0.246777E-07  0.909E-03    9.04       2.2  T
   3    -50.7337003 -0.284014E-07  0.777E-04    9.04      25.2  T
   4    -50.7337003 -0.205321E-08  0.425E-04    9.04      46.2  T
speedup  0.79
cpu  time for SCC    0.00 s
wall time for SCC    0.00 s
speedup  0.96
cpu  time for grad    0.01 s
wall time for grad    0.01 s
 E :    -50.45726278  G :  0.000272    pred/act E change: -0.172D-06 -0.366D-06
Maxdispl :   0.0045   ||displ|| :   0.0062   Lambda : -0.180D-06
Largest |displ|/coords:  0.0045 (   2)  0.0024 (   3)  0.0016 (  16)
................................................................................
.............................. CYCLE  164 ......................................
................................................................................
   1    -50.7337211 -0.507337E+02  0.417E-03    9.04       0.0  T
   2    -50.7337211 -0.393949E-08  0.311E-03    9.04       6.3  T
   3    -50.7337211 -0.364682E-08  0.337E-04    9.04      58.2  T
   4    -50.7337211 -0.378400E-09  0.106E-04    9.04     184.6  T
speedup  1.03
cpu  time for SCC    0.00 s
wall time for SCC    0.00 s
speedup  1.04
cpu  time for grad    0.01 s
wall time for grad    0.01 s
 E :    -50.45726294  G :  0.000196    pred/act E change: -0.284D-06 -0.152D-06
Maxdispl :   0.0184   ||displ|| :   0.0207   Lambda : -0.273D-06
Largest |displ|/coords:  0.0184 (   2)  0.0050 (   3)  0.0040 (  16)
................................................................................
.............................. CYCLE  165 ......................................
................................................................................
   1    -50.7337469 -0.507337E+02  0.109E-02    9.04       0.0  T
   2    -50.7337470 -0.223452E-07  0.806E-03    9.04       2.4  T
   3    -50.7337470 -0.236047E-07  0.725E-04    9.04      27.0  T
   4    -50.7337470 -0.122288E-08  0.263E-04    9.04      74.5  T
speedup  1.08
cpu  time for SCC    0.00 s
wall time for SCC    0.00 s
speedup  0.96
cpu  time for grad    0.01 s
wall time for grad    0.01 s
 E :    -50.45726309  G :  0.000148    pred/act E change: -0.902D-07 -0.152D-06
Maxdispl :   0.0036   ||displ|| :   0.0049   Lambda : -0.571D-07
Largest |displ|/coords:  0.0036 (   2)  0.0022 (   1)  0.0008 (  19)
................................................................................
.............................. CYCLE  166 ......................................
................................................................................
   1    -50.7337564 -0.507338E+02  0.270E-03    9.04       0.0  T
   2    -50.7337564 -0.137399E-08  0.198E-03    9.04       9.9  T
   3    -50.7337564 -0.120377E-08  0.197E-04    9.04      99.8  T
   4    -50.7337564 -0.987868E-10  0.602E-05    9.04     325.8  T
speedup  1.05
cpu  time for SCC    0.00 s
wall time for SCC    0.00 s
speedup  1.04
cpu  time for grad    0.01 s
wall time for grad    0.01 s
 E :    -50.45726314  G :  0.000123    pred/act E change: -0.137D-06 -0.500D-07
Maxdispl :   0.0045   ||displ|| :   0.0065   Lambda : -0.883D-07
Largest |displ|/coords:  0.0045 (   2)  0.0023 (   8)  0.0020 (   1)

   *** GEOMETRY OPTIMIZATION CONVERGED AFTER 166 ITERATIONS ***

------------------------------------------------------------------------
 total energy gain (kcal):     -0.0268
------------------------------------------------------------------------
================
 final structure:
================
$coord
        0.61195681092795        1.57082855518807        1.00810522637563      S 
        1.39573228929895       -0.94377745254336        0.14512964617231      O 
        2.20121337623108        3.54490205714929        0.01061849626631      O 
       -2.07941658389889        1.97651922818888        0.52941920536876      O 
        0.85963027654176        1.52653226719133        3.97095837388951      O 
        2.74165373680067        1.43438780180184        4.21772573420976      H 
       -2.12319546797470       -4.39213803345144        0.39480882965329      O 
       -2.72280794058763       -3.96473153092232        2.09632503144209      H 
       -0.53524163831117       -3.42044333439873        0.24784057497783      H 
        2.09679203504042        0.96847239870366       -4.43740708445254      O 
        2.18856267262596       -0.25306611879071       -3.06569016793728      H 
        2.24947510423679        2.56116188996583       -3.55033763524067      H 
       -2.37170464762396       -0.26968694462881       -6.24752379846746      O 
       -3.01786868466001        1.17039831943947       -7.13715847011557      H 
       -0.61569267566035        0.15809758156326       -5.74324069659923      H 
       -3.29754811075213       -1.62919293082206        4.47851902102776      O 
       -1.79524086955281       -0.58458456080938        4.54849776407453      H 
       -4.63721171311893       -0.49989631328563        4.00510201791093      H 
       -4.50334564480734       -1.16138271968791       -2.01665989997492      O 
       -3.64342367805550       -2.79975352855863       -1.14802763251936      H 
       -3.65879553728296        0.26965841426354       -0.96947041496146      H 
       -3.77122422636234       -0.95493481363043       -3.79670961319902      H 
        5.71089180992478        1.38961966599041        3.41422523543106      N 
        6.21046933834444       -0.33615417621069        2.76000239473194      H 
        7.18249556435430        2.13009678939975        4.38501591132997      H 
        5.32384440445208        2.50906750775550        1.89993200744448      H 
$end
 
 Bond Distances (Angstroems)
 ---------------------------
S1-O2=1.4667         S1-O3=1.4412         S1-O4=1.4624         S1-O5=1.5735         O2-S1=1.4667         O3-S1=1.4412         
O4-S1=1.4624         O5-S1=1.5735         O5-H6=1.0056         H6-O5=1.0056         O7-H8=0.9811         O7-H9=0.9882         
H8-O7=0.9811         H9-O7=0.9882         O10-H11=0.9732       O10-H12=0.9681       H11-O10=0.9732       H12-O10=0.9681       
O13-H14=0.9588       O13-H15=0.9929       H14-O13=0.9588       H15-O13=0.9929       O16-H17=0.9690       O16-H18=0.9604       
H17-O16=0.9690       H18-O16=0.9604       O19-H20=1.0817       O19-H21=1.0394       O19-H22=1.0244       H20-O19=1.0817       
H21-O19=1.0394       H22-O19=1.0244       N23-H24=1.0118       N23-H25=1.0119       N23-H26=1.0173       H24-N23=1.0118       
H25-N23=1.0119       H26-N23=1.0173       
 N  H  Rav=1.0137 sigma=0.0026  Rmin=1.0118  Rmax=1.0173     3
 O  H  Rav=0.9952 sigma=0.0354  Rmin=0.9588  Rmax=1.0817    12
 S  O  Rav=1.4860 sigma=0.0515  Rmin=1.4412  Rmax=1.5735     4
 
 selected bond angles (degree)
 --------------------
O3-S1-O2=112.24                O4-S1-O2=110.77                O4-S1-O3=113.48                O5-S1-O2=105.85                
O5-S1-O3=109.09                O5-S1-O4=104.83                H6-O5-S1=102.27                H9-O7-H8=103.14                
H12-O10-H11=102.26             
 
 selected dihedral angles (degree)
 ---------------------------------
H6-O5-S1-O2= 68.68            H6-O5-S1-O3=307.71            H6-O5-S1-O4=185.85            
 
 CMA Distance (Angstroems)
 ---------------------------
R(CMA):  1.7692

========================================================================
 FINAL SINGLEPOINT CALCULATION ON OPTIMIZED GEOMETRY
========================================================================

 Ncao       : 65
 Nao        : 64
 Nshell     : 38
 Nel        : 80
 T(el)      :   300.0
 intcut     :    25.0
 scfconv/Eh :  0.100E-05
   qconv/e  :  0.100E-03
 intneglect :  0.100E-07
 broydamp   :      0.250
 iter      E             dE          RMSdq      gap      omega  full diag
   1    -50.7337564 -0.507338E+02  0.163E-05    9.04       0.0  T
   2    -50.7337564 -0.397904E-12  0.101E-05    9.04    1933.1  T
   3    -50.7337564 -0.241585E-12  0.354E-06    9.04    5545.2  T
speedup  1.07
cpu  time for SCC    0.00 s
wall time for SCC    0.00 s

   *** convergence criteria satisfied after 3 iterations ***

          eigenvalues
 #    :          28         29         30         31         32         33         34         35
 occ. :        2.000      2.000      2.000      2.000      2.000      2.000      2.000      2.000
 eps  :       -13.732    -13.277    -12.701    -12.662    -12.506    -12.385    -12.250    -12.193
 #    :          36         37         38         39         40         41         42         43
 occ. :        2.000      2.000      2.000      2.000      2.000      0.000      0.000      0.000
 eps  :       -12.157    -12.071    -12.002    -11.773    -11.448     -2.405     -0.446     -0.219
 #    :          44         45         46         47         48         49         50         51
 occ. :        0.000      0.000      0.000      0.000      0.000      0.000      0.000      0.000
 eps  :         0.684      0.873      1.244      1.543      2.827      3.697      4.839      4.984


   #   Z            q   n(s)   n(p)   n(d)      C6AA      α(0)
   1  16 S      1.706  1.590  1.763  0.941    88.629    15.845
   2   8 O     -0.784  1.779  5.005  0.000    31.107     7.478
   3   8 O     -0.744  1.772  4.972  0.000    29.930     7.335
   4   8 O     -0.741  1.761  4.980  0.000    29.822     7.323
   5   8 O     -0.641  1.762  4.879  0.000    26.151     6.903
   6   1 H      0.359  0.641  0.000  0.000     0.561     1.172
   7   8 O     -0.597  1.757  4.840  0.000    25.069     6.760
   8   1 H      0.337  0.663  0.000  0.000     0.621     1.238
   9   1 H      0.338  0.662  0.000  0.000     0.618     1.236
  10   8 O     -0.610  1.738  4.872  0.000    25.429     6.806
  11   1 H      0.312  0.688  0.000  0.000     0.686     1.301
  12   1 H      0.307  0.693  0.000  0.000     0.700     1.314
  13   8 O     -0.603  1.744  4.858  0.000    25.249     6.782
  14   1 H      0.295  0.705  0.000  0.000     0.737     1.348
  15   1 H      0.344  0.656  0.000  0.000     0.603     1.220
  16   8 O     -0.601  1.736  4.864  0.000    25.203     6.776
  17   1 H      0.311  0.689  0.000  0.000     0.689     1.304
  18   1 H      0.299  0.701  0.000  0.000     0.724     1.337
  19   8 O     -0.518  1.731  4.787  0.000    23.215     6.507
  20   1 H      0.388  0.612  0.000  0.000     0.503     1.112
  21   1 H      0.383  0.617  0.000  0.000     0.514     1.125
  22   1 H      0.381  0.619  0.000  0.000     0.521     1.134
  23   7 N     -0.453  1.360  4.093  0.000    31.911     8.390
  24   1 H      0.171  0.829  0.000  0.000     1.265     1.762
  25   1 H      0.171  0.829  0.000  0.000     1.269     1.764
  26   1 H      0.189  0.811  0.000  0.000     1.162     1.688

 Mol. C6AA /au·bohr⁶  :       5481.727078
 Mol. C8AA /au·bohr⁸  :     118450.833171
 Mol. α(0) /au        :        106.958614

 
 Wiberg/Mayer (AO) data. WBOs > 0.1 written file <wbo>
 largest (>0.05) Wiberg bond orders for each atom
           total WBO             WBO to atom ...
     1  S   4.813    O    3 1.345    O    4 1.274    O    2 1.244    O    5 0.913
     2  O   1.684    S    1 1.244    O    3 0.107    O    4 0.106    O    5 0.076    H    9 0.065
     3  O   1.712    S    1 1.345    O    2 0.107    O    4 0.104    O    5 0.082
     4  O   1.748    S    1 1.274    H   21 0.144    O    2 0.106    O    3 0.104    O    5 0.062
     5  O   1.955    S    1 0.913    H    6 0.721    O    3 0.082    O    2 0.076    O    4 0.062
     6  H   0.871    O    5 0.721    N   23 0.131
     7  O   2.012    H    8 0.835    H    9 0.817    H   20 0.224    O   19 0.075
     8  H   0.887    O    7 0.835
     9  H   0.886    O    7 0.817    O    2 0.065
    10  O   1.889    H   12 0.877    H   11 0.858    H   15 0.082
    11  H   0.903    O   10 0.858
    12  H   0.906    O   10 0.877
    13  O   1.930    H   14 0.909    H   15 0.798    H   22 0.133
    14  H   0.913    O   13 0.909
    15  H   0.882    O   13 0.798    O   10 0.082
    16  O   1.868    H   18 0.906    H   17 0.868
    17  H   0.903    O   16 0.868
    18  H   0.911    O   16 0.906
    19  O   2.229    H   22 0.718    H   21 0.699    H   20 0.622    O    7 0.075
    20  H   0.849    O   19 0.622    O    7 0.224
    21  H   0.853    O   19 0.699    O    4 0.144
    22  H   0.855    O   19 0.718    O   13 0.133
    23  N   3.074    H   24 0.969    H   25 0.966    H   26 0.943    H    6 0.131
    24  H   0.971    N   23 0.969
    25  H   0.971    N   23 0.966
    26  H   0.964    N   23 0.943
 MOs/occ written to file <molden.input>
 
molecular dipole:
                 x           y           z       tot (Debye)
 q only:       -0.299      -0.283      -0.190
   full:        0.560       0.514       0.147       1.967
molecular quadrupole (traceless):
                xx          xy          yy          xz          yz          zz
 q only:        9.941      -1.057     -10.788      11.781      -1.522       0.846
  q+dip:       13.010      -3.441     -11.573      12.336      -2.454      -1.438
   full:       12.981      -3.338     -11.663      12.804      -2.537      -1.318

SCC energy    :     -50.7337564
rep           :       0.2762816
ES            :       0.2444029
AES           :      -0.0694396
AXC           :      -0.0077234
disp          :      -0.0198594
XB            :       0.0000000
fix           :       0.0000000
total E       :     -50.4572631
atomizationE  :       4.9875673     3129.75
(atE without considering molecular charge,
 total energy contains solvation terms)
H-L gap (eV)  :          9.0435
optimized geometry written to: xtbopt.xyz


------------------------------------------------------------------------
 * finished run on 2019/09/16 at 11:30:59.486     
------------------------------------------------------------------------
 total:
 * wall-time:     0 d,  0 h,  0 min,  3.605 sec
 *  cpu-time:     0 d,  0 h,  0 min,  3.570 sec
 * ratio c/w:     0.991 speedup
 SCF:
 * wall-time:     0 d,  0 h,  0 min,  0.154 sec
 *  cpu-time:     0 d,  0 h,  0 min,  0.147 sec
 * ratio c/w:     0.958 speedup
 ANC optimizer:
 * wall-time:     0 d,  0 h,  0 min,  3.425 sec
 *  cpu-time:     0 d,  0 h,  0 min,  3.400 sec
 * ratio c/w:     0.993 speedup

