      -----------------------------------------------------------      
     |                   =====================                   |     
     |                           x T B                           |     
     |                   =====================                   |     
     |                         S. Grimme                         |     
     |          Mulliken Center for Theoretical Chemistry        |     
     |                    University of Bonn                     |     
     |                 Version 6.0.1 (SAW181210)                 |     
      -----------------------------------------------------------      

   This program is distributed in the hope that it will be useful,
   but WITHOUT ANY WARRANTY; without even the implied warranty of
   MERCHANTABILITY or FITNESS FOR A PARTICULAR PURPOSE.
   
   FOR NON-COMMERCIAL, ACADEMIA USE ONLY.
   
   Cite this work as:
   S. Grimme, C. Bannwarth, P. Shushkov, J. Comput. Theory Chem., 2017,
   13, 1989-2009.
   C. Bannwarth, S. Ehlert and S. Grimme., ChemRxiv, 2018, preprint.
   http://doi.org/10.26434/chemrxiv.7246238.v1
   
   for sTDA-xTB:
   S. Grimme and C. Bannwarth, J. Chem. Phys., 2016, 145, 054103.
   
   in the mass-spec context:
   V. Asgeirsson, C. Bauer and S. Grimme, Chem. Sci., 2017, 8, 4879.
   
   if GBSA is used:
   P. Shushkov, F. März and S. Grimme, unpublished.
   
   for ANC optimizer:
   S. Grimme, unpublished.
   Rational Function algorithm used in ANCopt:
   F. Eckert, P. Pulay, H.-J. Werner, J. Comput. Chem., 1997, 18, 1473.
   
   with help from (in alphabetical order)
   C. Bannwarth, F. Bohle, G. Brandenburg, E. Caldeweyher, M. Checinski,
   S. Dohm, S. Ehlert, S. Ehrlich, F. März, H. Neugebauer, J. Pisarek,
   P. Pracht, P. Shushkov, and S. Spicher.
   
 * started run on 2019/09/16 at 12:20:13.065     
========================================================================
 # omp threads = 1
========================================================================
number of atoms            : 26
number of electrons        : 80
charge                     : 0
spin                       : .0
first test random number   : .1662

########################################################################
# WARNING! Please study the warnings concerning your input carefully
#  - XTBPATH is not set, using XTBHOME instead
#  - the use of '-opt' is discouraged, please use '--opt' next time
#  - the use of '-chrg' is discouraged, please use '--chrg' next time
#  - the use of '-uhf' is discouraged, please use '--uhf' next time
########################################################################

           ------------------------------------------------- 
          |                 G F N 2 - x T B                 |
          | Geometry, Frequencies, Noncovalent interactions |
          |            JCTC 2018 parametrisation            |
           ------------------------------------------------- 
      method parameters     
 k(s)        :  1.8500
 k(p)        :  2.2300
 k(d)        :  2.2300
 k(f)        :  2.0000
 kEN (H0ij)  : -2.0000
 D4 a1       :  0.5200
 D4 a2       :  5.0000
 D4 s6       :  1.0000
 D4 s8       :  2.7000
 D4 s9       :  5.0000
 alphaj      :  2.0000


            Z     q(EN)     CN     RAES       Cart. coordinates
     1  S   6.0    0.64    4.31    4.25     2.23862     0.35359     0.23706
     2  O   6.0   -0.33    1.22    1.80     1.17271     2.52576    -1.20296
     3  O   6.0   -0.33    1.22    1.80     0.54075    -0.26461     2.39650
     4  O   6.0   -0.31    1.21    1.80     2.45159    -1.88334    -1.45967
     5  O   6.0   -0.25    2.10    1.84     4.75449     1.02721     1.20098
     6  H   1.0    0.15    1.28    1.49     4.61817     2.46843     2.29431
     7  O   6.0   -0.29    2.06    1.83    -2.60791    -4.17368     2.10655
     8  H   1.0    0.15    0.97    1.43    -2.90530    -4.94384     3.72921
     9  H   1.0    0.18    1.05    1.44    -1.45386    -2.80286     2.42851
    10  O   6.0   -0.29    2.07    1.83    -3.29865     1.03392    -3.19763
    11  H   1.0    0.17    1.03    1.43    -1.61496     1.71865    -3.09309
    12  H   1.0    0.15    0.98    1.43    -4.31650     2.09229    -2.12131
    13  O   6.0   -0.29    2.06    1.83     1.22776    -5.36347    -4.76191
    14  H   1.0    0.15    0.97    1.43     2.58314    -6.07441    -5.74788
    15  H   1.0    0.18    1.05    1.44     2.02255    -4.16752    -3.64270
    16  O   6.0   -0.28    1.96    1.82    -3.11536     3.69500     1.41232
    17  H   1.0    0.16    1.03    1.43    -1.65517     3.93609     0.35197
    18  H   1.0    0.16    0.98    1.43    -2.66467     2.35023     2.55384
    19  O   6.0   -0.22    2.90    2.53    -2.98542    -3.83100    -2.76805
    20  H   1.0    0.14    1.07    1.44    -1.49029    -4.53228    -3.64133
    21  H   1.0    0.14    1.06    1.44    -2.93684    -4.15257    -0.92842
    22  H   1.0    0.14    1.06    1.44    -3.23539    -2.02002    -3.15450
    23  N   5.0   -0.22    3.01    1.93     3.46558     5.32019     4.04566
    24  H   1.0    0.11    0.99    1.43     2.06244     4.76210     5.24182
    25  H   1.0    0.11    0.99    1.43     2.60082     6.36046     2.67413
    26  H   1.0    0.10    0.99    1.43     4.54169     6.56567     5.04658

  Z AO/shell   Hii/eV     exponent
  1     Wed Apr 25 08:07:45 CEST 2018   EN: 2.200 GM2: 0.406  GM3: 0.0800  RAES: 1.40
     1s    -10.707211    1.230000
  7     Wed Apr 25 08:07:45 CEST 2018   EN: 3.040 GM2: 0.461  GM3:-0.0640  RAES: 1.90
     2s    -16.686243    2.339881
     2p    -12.523956    2.014332
  8     Wed Apr 25 08:07:45 CEST 2018   EN: 3.440 GM2: 0.452  GM3:-0.0517  RAES: 1.80
     2s    -20.229985    2.439742
     2p    -15.503117    2.137023
 16     Tue Apr 24 11:44:34 CEST 2018   EN: 2.580 GM2: 0.340  GM3:-0.0502  RAES: 3.10
     3s    -20.029654    1.981333
     3p    -11.377694    2.025643
     3d     -0.420282    1.702555
 no old-style atom pair restraining (fixing) potential

molecular fragmentation (1/2 indicates fragments):
11111122222222222222222222
# atoms in fragment 1/2:     6    20
 fragment masses (1/2) :       97.07      108.11
CMA distance (Bohr)    :   3.704
constraining FC (au)   :  0.0500
           ------------------------------------------------- 
          |        Self-Consistent Charge Iterations        |
           ------------------------------------------------- 

 Ncao       : 65
 Nao        : 64
 Nshell     : 38
 Nel        : 80
 T(el)      :   300.0
 intcut     :    25.0
 scfconv/Eh :  0.100E-05
   qconv/e  :  0.100E-03
 intneglect :  0.100E-07
 broydamp   :      0.250
 iter      E             dE          RMSdq      gap      omega  full diag
   1    -50.6381323 -0.506381E+02  0.699E+00   10.10       0.0  T
   2    -50.6838848 -0.457525E-01  0.503E+00    9.84       1.0  T
   3    -50.7181262 -0.342415E-01  0.127E+00    9.04       1.0  T
   4    -50.7235235 -0.539730E-02  0.541E-01    9.02       1.0  T
   5    -50.7241892 -0.665664E-03  0.300E-01    8.95       1.0  T
   6    -50.7245984 -0.409229E-03  0.132E-01    8.95       1.0  T
   7    -50.7246925 -0.941062E-04  0.475E-02    8.98       1.0  T
   8    -50.7247016 -0.909558E-05  0.327E-02    8.98       1.0  T
   9    -50.7247093 -0.763302E-05  0.719E-03    8.97       2.7  T
  10    -50.7247095 -0.243790E-06  0.228E-03    8.97       8.6  T
  11    -50.7247095 -0.163501E-07  0.109E-03    8.97      17.9  T
  12    -50.7247095 -0.642978E-08  0.446E-04    8.97      44.0  T
  13    -50.7247095 -0.112137E-08  0.132E-04    8.97     148.4  T
speedup  0.98
cpu  time for SCC    0.01 s
wall time for SCC    0.02 s

   *** convergence criteria satisfied after 13 iterations ***

          eigenvalues
 #    :          28         29         30         31         32         33         34         35
 occ. :        2.000      2.000      2.000      2.000      2.000      2.000      2.000      2.000
 eps  :       -12.594    -12.440    -12.223    -12.167    -12.065    -11.514    -11.327    -11.277
 #    :          36         37         38         39         40         41         42         43
 occ. :        2.000      2.000      2.000      2.000      2.000      0.000      0.000      0.000
 eps  :       -11.202    -11.144    -10.806    -10.765    -10.584     -1.619     -0.687      0.373
 #    :          44         45         46         47         48         49         50         51
 occ. :        0.000      0.000      0.000      0.000      0.000      0.000      0.000      0.000
 eps  :         1.163      1.393      1.803      2.267      2.395      4.246      4.972      5.010


   #   Z            q   n(s)   n(p)   n(d)      C6AA      α(0)
   1  16 S      1.609  1.588  1.832  0.971    90.859    16.043
   2   8 O     -0.775  1.781  4.995  0.000    30.848     7.447
   3   8 O     -0.779  1.777  5.002  0.000    30.956     7.460
   4   8 O     -0.757  1.764  4.993  0.000    30.296     7.380
   5   8 O     -0.567  1.719  4.848  0.000    24.370     6.664
   6   1 H      0.371  0.629  0.000  0.000     0.533     1.142
   7   8 O     -0.620  1.724  4.896  0.000    25.673     6.839
   8   1 H      0.294  0.706  0.000  0.000     0.741     1.352
   9   1 H      0.339  0.661  0.000  0.000     0.616     1.232
  10   8 O     -0.618  1.727  4.890  0.000    25.612     6.831
  11   1 H      0.330  0.670  0.000  0.000     0.638     1.254
  12   1 H      0.320  0.680  0.000  0.000     0.662     1.278
  13   8 O     -0.619  1.724  4.895  0.000    25.652     6.836
  14   1 H      0.294  0.706  0.000  0.000     0.738     1.349
  15   1 H      0.343  0.657  0.000  0.000     0.605     1.221
  16   8 O     -0.620  1.740  4.881  0.000    25.677     6.839
  17   1 H      0.306  0.694  0.000  0.000     0.703     1.317
  18   1 H      0.291  0.709  0.000  0.000     0.750     1.360
  19   8 O     -0.434  1.645  4.789  0.000    21.471     6.258
  20   1 H      0.420  0.580  0.000  0.000     0.449     1.053
  21   1 H      0.417  0.583  0.000  0.000     0.454     1.058
  22   1 H      0.413  0.587  0.000  0.000     0.461     1.067
  23   7 N     -0.448  1.394  4.054  0.000    31.764     8.370
  24   1 H      0.165  0.835  0.000  0.000     1.301     1.787
  25   1 H      0.168  0.832  0.000  0.000     1.283     1.775
  26   1 H      0.156  0.844  0.000  0.000     1.360     1.827

 Mol. C6AA /au·bohr⁶  :       5486.215192
 Mol. C8AA /au·bohr⁸  :     118736.460481
 Mol. α(0) /au        :        107.039407

 
 Wiberg/Mayer (AO) data. WBOs > 0.1 written file <wbo>
 largest (>0.05) Wiberg bond orders for each atom
           total WBO             WBO to atom ...
     1  S   4.901    O    4 1.319    O    2 1.264    O    3 1.263    O    5 1.017
     2  O   1.668    S    1 1.264    O    3 0.111    O    4 0.109    O    5 0.075
     3  O   1.661    S    1 1.263    O    2 0.111    O    4 0.110    O    5 0.075    H    9 0.059
     4  O   1.672    S    1 1.319    O    3 0.110    O    2 0.109    O    5 0.057
     5  O   2.036    S    1 1.017    H    6 0.782    O    2 0.075    O    3 0.075    O    4 0.057
     6  H   0.862    O    5 0.782    N   23 0.059
     7  O   1.860    H    8 0.900    H    9 0.823    H   21 0.081
     8  H   0.914    O    7 0.900
     9  H   0.885    O    7 0.823    O    3 0.059
    10  O   1.896    H   12 0.875    H   11 0.846    H   22 0.103
    11  H   0.891    O   10 0.846
    12  H   0.897    O   10 0.875
    13  O   1.850    H   14 0.896    H   15 0.830    H   20 0.073
    14  H   0.913    O   13 0.896
    15  H   0.882    O   13 0.830
    16  O   1.823    H   18 0.903    H   17 0.868
    17  H   0.906    O   16 0.868
    18  H   0.916    O   16 0.903
    19  O   2.313    H   20 0.743    H   21 0.739    H   22 0.722
    20  H   0.823    O   19 0.743    O   13 0.073
    21  H   0.826    O   19 0.739    O    7 0.081
    22  H   0.829    O   19 0.722    O   10 0.103
    23  N   2.997    H   26 0.972    H   24 0.970    H   25 0.969    H    6 0.059
    24  H   0.973    N   23 0.970
    25  H   0.972    N   23 0.969
    26  H   0.976    N   23 0.972
 MOs/occ written to file <molden.input>
 
molecular dipole:
                 x           y           z       tot (Debye)
 q only:       -0.780      -1.247      -0.137
   full:        0.200      -0.469       0.700       2.201
molecular quadrupole (traceless):
                xx          xy          yy          xz          yz          zz
 q only:       -6.211      11.315       4.527       4.556       9.903       1.685
  q+dip:       -9.804       9.843       6.320       0.911      10.191       3.484
   full:       -9.503      10.241       6.064       0.910      10.309       3.439

SCC energy    :     -50.7247095
rep           :       0.3028692
ES            :       0.2789586
AES           :      -0.0700209
AXC           :      -0.0077031
disp          :      -0.0184438
XB            :       0.0000000
fix           :       0.0000000
total E       :     -50.4216203
atomizationE  :       4.9519244     3107.38
(atE without considering molecular charge,
 total energy contains solvation terms)
H-L gap (eV)  :          8.9659
           ------------------------------------------------- 
          |                 ===============                 |
          |                   A N C O P T                   |
          |                 ===============                 |
          |          Approximate Normal Coordinate          |
          |           Rational Function Optimizer           |
           ------------------------------------------------- 
dumping coords to <xtbopt.coord> and <xtbopt.log>
 optlevel               2
 Maxcycle             520
 Maxmicro              25
 Econv         1.000000000000000E-007
 Gconv         2.000000000000000E-004
 Maxdispl       1.00000000000000     
 Hlow          5.000000000000000E-003
 S6             20.0000000000000     
 Nvar               72

generating ANC from model Hessian ...
 Shifting diagonal of input Hessian by   5.088674626042284E-003
 Lowest  eigenvalues of input Hessian
    0.005000    0.005077   -0.000000   -0.000000   -0.000000    0.000000
    0.000000    0.000000    0.005255    0.005360    0.005555    0.005677
    0.005825    0.006042    0.006219    0.006290    0.006684    0.007116
 Highest eigenvalues
    1.463713    1.564914    1.567225    3.135408    3.220460    3.314022
 
cpu  time for ANC gen    0.01 s
wall time for ANC gen    0.02 s
................................................................................
.............................. CYCLE    1 ......................................
................................................................................
   1    -50.7247095 -0.507247E+02  0.714E-05    8.97       0.0  T
   2    -50.7247095 -0.945022E-11  0.565E-05    8.97     347.2  T
   3    -50.7247095 -0.106652E-10  0.281E-05    8.97     698.7  T
speedup  1.03
cpu  time for SCC    0.00 s
wall time for SCC    0.00 s
speedup  0.96
cpu  time for grad    0.01 s
wall time for grad    0.01 s
 E :    -50.42162022  G :  0.140782    pred/act E change:  0.000D+00  0.476D-07
Maxdispl :   0.2428   ||displ|| :   0.4228   Lambda : -0.160D-01
Largest |displ|/coords:  0.2428 (  29)  0.1266 (  24)  0.1087 (  19)
................................................................................
.............................. CYCLE    2 ......................................
................................................................................
   1    -50.7245108 -0.507245E+02  0.426E-01    9.04       0.0  T
   2    -50.7246170 -0.106178E-03  0.326E-01    9.07       1.0  T
   3    -50.7246691 -0.521238E-04  0.699E-02    9.13       1.0  T
   4    -50.7246873 -0.182445E-04  0.194E-02    9.12       1.0  T
   5    -50.7246881 -0.772379E-06  0.496E-03    9.11       4.0  T
   6    -50.7246881 -0.240859E-07  0.277E-03    9.11       7.1  T
speedup  0.91
cpu  time for SCC    0.01 s
wall time for SCC    0.01 s
speedup  0.97
cpu  time for grad    0.01 s
wall time for grad    0.01 s
 E :    -50.43408252  G :  0.087496    pred/act E change:  0.000D+00 -0.125D-01
Maxdispl :   0.1565   ||displ|| :   0.4070   Lambda : -0.870D-02
Largest |displ|/coords:  0.1565 (  29)  0.1477 (  13)  0.1319 (  27)
................................................................................
.............................. CYCLE    3 ......................................
................................................................................
   1    -50.7290754 -0.507291E+02  0.216E-01    9.19       0.0  T
   2    -50.7291555 -0.800592E-04  0.168E-01    9.22       1.0  T
   3    -50.7291851 -0.295574E-04  0.726E-02    9.26       1.0  T
   4    -50.7291911 -0.601000E-05  0.157E-02    9.26       1.2  T
   5    -50.7291916 -0.545026E-06  0.401E-03    9.25       4.9  T
   6    -50.7291916 -0.271689E-07  0.240E-03    9.25       8.2  T
speedup  1.09
cpu  time for SCC    0.01 s
wall time for SCC    0.01 s
speedup  0.97
cpu  time for grad    0.01 s
wall time for grad    0.01 s
 E :    -50.44108964  G :  0.053576    pred/act E change: -0.944D-02 -0.701D-02
Maxdispl :   0.1939   ||displ|| :   0.4219   Lambda : -0.493D-02
Largest |displ|/coords:  0.1939 (  19)  0.1292 (   5)  0.1282 (  16)
................................................................................
.............................. CYCLE    4 ......................................
................................................................................
   1    -50.7277550 -0.507278E+02  0.248E-01    9.31       0.0  T
   2    -50.7278183 -0.632253E-04  0.192E-01    9.33       1.0  T
   3    -50.7278415 -0.231973E-04  0.531E-02    9.36       1.0  T
   4    -50.7278517 -0.101989E-04  0.157E-02    9.36       1.2  T
   5    -50.7278522 -0.514709E-06  0.377E-03    9.35       5.2  T
   6    -50.7278522 -0.198743E-07  0.220E-03    9.35       8.9  T
speedup  1.09
cpu  time for SCC    0.01 s
wall time for SCC    0.01 s
speedup  1.03
cpu  time for grad    0.01 s
wall time for grad    0.01 s
 E :    -50.44481539  G :  0.029097    pred/act E change: -0.507D-02 -0.373D-02
Maxdispl :   0.2618   ||displ|| :   0.5892   Lambda : -0.472D-02
Largest |displ|/coords:  0.2618 (  13)  0.1914 (  21)  0.1783 (  19)
................................................................................
.............................. CYCLE    5 ......................................
................................................................................
   1    -50.7241090 -0.507241E+02  0.468E-01    9.40       0.0  T
   2    -50.7242432 -0.134192E-03  0.359E-01    9.43       1.0  T
   3    -50.7242925 -0.493717E-04  0.775E-02    9.48       1.0  T
   4    -50.7243185 -0.259120E-04  0.219E-02    9.47       1.0  T
   5    -50.7243195 -0.104926E-05  0.537E-03    9.47       3.7  T
   6    -50.7243195 -0.266911E-07  0.304E-03    9.46       6.5  T
speedup  1.09
cpu  time for SCC    0.01 s
wall time for SCC    0.01 s
speedup  1.02
cpu  time for grad    0.01 s
wall time for grad    0.01 s
 E :    -50.44674807  G :  0.028630    pred/act E change: -0.290D-02 -0.193D-02
Maxdispl :   0.1717   ||displ|| :   0.3776   Lambda : -0.276D-02
Largest |displ|/coords:  0.1717 (  16)  0.1516 (  19)  0.1384 (  21)
................................................................................
.............................. CYCLE    6 ......................................
................................................................................
   1    -50.7298142 -0.507298E+02  0.339E-01    9.42       0.0  T
   2    -50.7298525 -0.383854E-04  0.257E-01    9.41       1.0  T
   3    -50.7298813 -0.287466E-04  0.344E-02    9.38       1.0  T
   4    -50.7298869 -0.558974E-05  0.922E-03    9.38       2.1  T
   5    -50.7298870 -0.105907E-06  0.348E-03    9.38       5.6  T
   6    -50.7298870 -0.963107E-08  0.179E-03    9.38      11.0  T
speedup  0.91
cpu  time for SCC    0.01 s
wall time for SCC    0.01 s
speedup  1.04
cpu  time for grad    0.01 s
wall time for grad    0.01 s
 E :    -50.44749282  G :  0.021350    pred/act E change: -0.318D-02 -0.745D-03
Maxdispl :   0.3132   ||displ|| :   0.4556   Lambda : -0.291D-02
Largest |displ|/coords:  0.3132 (   7)  0.1624 (  16)  0.1196 (  14)
................................................................................
.............................. CYCLE    7 ......................................
................................................................................
   1    -50.7142306 -0.507142E+02  0.647E-01    9.26       0.0  T
   2    -50.7143802 -0.149604E-03  0.489E-01    9.24       1.0  T
   3    -50.7144833 -0.103080E-03  0.716E-02    9.19       1.0  T
   4    -50.7145046 -0.213383E-04  0.130E-02    9.20       1.5  T
   5    -50.7145049 -0.338860E-06  0.572E-03    9.20       3.4  T
   6    -50.7145050 -0.276836E-07  0.299E-03    9.20       6.6  T
speedup  1.09
cpu  time for SCC    0.01 s
wall time for SCC    0.01 s
speedup  1.03
cpu  time for grad    0.01 s
wall time for grad    0.01 s
 E :    -50.44572284  G :  0.061379    pred/act E change: -0.157D-02  0.177D-02
Maxdispl :   0.2394   ||displ|| :   0.5045   Lambda : -0.124D-01
Largest |displ|/coords:  0.2394 (   7)  0.1863 (  21)  0.1777 (   6)
................................................................................
.............................. CYCLE    8 ......................................
................................................................................
   1    -50.7344518 -0.507345E+02  0.760E-01    9.38       0.0  T
   2    -50.7347262 -0.274410E-03  0.576E-01    9.40       1.0  T
   3    -50.7349218 -0.195600E-03  0.923E-02    9.46       1.0  T
   4    -50.7349615 -0.397686E-04  0.142E-02    9.45       1.4  T
   5    -50.7349618 -0.215527E-06  0.897E-03    9.45       2.2  T
   6    -50.7349618 -0.460545E-07  0.301E-03    9.45       6.5  T
   7    -50.7349618 -0.214336E-07  0.684E-04    9.45      28.7  T
speedup  0.94
cpu  time for SCC    0.01 s
wall time for SCC    0.01 s
speedup  0.97
cpu  time for grad    0.01 s
wall time for grad    0.01 s
 E :    -50.44692889  G :  0.046827    pred/act E change: -0.175D-02 -0.121D-02
Maxdispl :   0.1828   ||displ|| :   0.3080   Lambda : -0.343D-02
Largest |displ|/coords:  0.1828 (   9)  0.1148 (  14)  0.1006 (   5)
................................................................................
.............................. CYCLE    9 ......................................
................................................................................
   1    -50.7274671 -0.507275E+02  0.413E-01    9.38       0.0  T
   2    -50.7275653 -0.982187E-04  0.310E-01    9.37       1.0  T
   3    -50.7276287 -0.633434E-04  0.562E-02    9.34       1.0  T
   4    -50.7276421 -0.134195E-04  0.129E-02    9.35       1.5  T
   5    -50.7276424 -0.299014E-06  0.513E-03    9.35       3.8  T
   6    -50.7276424 -0.350809E-07  0.289E-03    9.35       6.8  T
speedup  0.91
cpu  time for SCC    0.00 s
wall time for SCC    0.01 s
speedup  0.96
cpu  time for grad    0.01 s
wall time for grad    0.01 s
 E :    -50.44739752  G :  0.049154    pred/act E change: -0.777D-02 -0.469D-03
Maxdispl :   0.3475   ||displ|| :   0.4930   Lambda : -0.697D-02
Largest |displ|/coords:  0.3475 (   9)  0.1597 (   2)  0.1055 (   7)
................................................................................
.............................. CYCLE   10 ......................................
................................................................................
   1    -50.7203614 -0.507204E+02  0.745E-01    9.24       0.0  T
   2    -50.7206440 -0.282573E-03  0.563E-01    9.23       1.0  T
   3    -50.7208390 -0.194969E-03  0.978E-02    9.20       1.0  T
   4    -50.7208784 -0.394426E-04  0.212E-02    9.20       1.0  T
   5    -50.7208794 -0.972842E-06  0.854E-03    9.20       2.3  T
   6    -50.7208794 -0.523931E-07  0.470E-03    9.20       4.2  T
   7    -50.7208795 -0.437453E-07  0.940E-04    9.20      20.9  T
speedup  0.95
cpu  time for SCC    0.01 s
wall time for SCC    0.01 s
speedup  0.98
cpu  time for grad    0.01 s
wall time for grad    0.01 s
 E :    -50.44457302  G :  0.068242    pred/act E change: -0.188D-02  0.282D-02
Maxdispl :   0.2775   ||displ|| :   0.5442   Lambda : -0.162D-01
Largest |displ|/coords:  0.2775 (   9)  0.1764 (   7)  0.1639 (   3)
................................................................................
.............................. CYCLE   11 ......................................
................................................................................
   1    -50.7323182 -0.507323E+02  0.787E-01    9.38       0.0  T
   2    -50.7326357 -0.317586E-03  0.596E-01    9.40       1.0  T
   3    -50.7328702 -0.234490E-03  0.102E-01    9.44       1.0  T
   4    -50.7329130 -0.427596E-04  0.212E-02    9.44       1.0  T
   5    -50.7329139 -0.884658E-06  0.105E-02    9.44       1.9  T
   6    -50.7329139 -0.450265E-07  0.489E-03    9.44       4.0  T
   7    -50.7329140 -0.538067E-07  0.906E-04    9.44      21.6  T
speedup  1.08
cpu  time for SCC    0.01 s
wall time for SCC    0.01 s
speedup  1.01
cpu  time for grad    0.01 s
wall time for grad    0.01 s
 E :    -50.44717402  G :  0.056094    pred/act E change: -0.434D-02 -0.260D-02
Maxdispl :   0.1223   ||displ|| :   0.2923   Lambda : -0.431D-02
Largest |displ|/coords:  0.1223 (   5)  0.0914 (   4)  0.0826 (  18)
................................................................................
.............................. CYCLE   12 ......................................
................................................................................
   1    -50.7307996 -0.507308E+02  0.360E-01    9.36       0.0  T
   2    -50.7308483 -0.487158E-04  0.273E-01    9.35       1.0  T
   3    -50.7308838 -0.355678E-04  0.417E-02    9.32       1.0  T
   4    -50.7308903 -0.649092E-05  0.112E-02    9.32       1.8  T
   5    -50.7308906 -0.233822E-06  0.403E-03    9.32       4.9  T
   6    -50.7308906 -0.837156E-08  0.219E-03    9.32       9.0  T
speedup  0.93
cpu  time for SCC    0.00 s
wall time for SCC    0.01 s
speedup  0.96
cpu  time for grad    0.01 s
wall time for grad    0.01 s
 E :    -50.44873132  G :  0.012198    pred/act E change: -0.105D-01 -0.156D-02
Maxdispl :   0.1342   ||displ|| :   0.2401   Lambda : -0.107D-02
Largest |displ|/coords:  0.1342 (   8)  0.0749 (  14)  0.0657 (  16)
................................................................................
.............................. CYCLE   13 ......................................
................................................................................
   1    -50.7277231 -0.507277E+02  0.245E-01    9.32       0.0  T
   2    -50.7277307 -0.759160E-05  0.185E-01    9.32       1.0  T
   3    -50.7277380 -0.731968E-05  0.143E-02    9.31       1.4  T
   4    -50.7277388 -0.749585E-06  0.556E-03    9.31       3.5  T
   5    -50.7277388 -0.299539E-07  0.207E-03    9.31       9.5  T
   6    -50.7277388 -0.379571E-08  0.100E-03    9.31      19.5  T
speedup  0.91
cpu  time for SCC    0.00 s
wall time for SCC    0.01 s
speedup  1.02
cpu  time for grad    0.01 s
wall time for grad    0.01 s
 E :    -50.44905138  G :  0.016605    pred/act E change: -0.234D-02 -0.320D-03
Maxdispl :   0.1041   ||displ|| :   0.2221   Lambda : -0.923D-03
Largest |displ|/coords:  0.1041 (   8)  0.0950 (   4)  0.0743 (  12)
................................................................................
.............................. CYCLE   14 ......................................
................................................................................
   1    -50.7258362 -0.507258E+02  0.195E-01    9.33       0.0  T
   2    -50.7258502 -0.139685E-04  0.147E-01    9.33       1.0  T
   3    -50.7258582 -0.801128E-05  0.212E-02    9.34       1.0  T
   4    -50.7258604 -0.225959E-05  0.664E-03    9.34       3.0  T
   5    -50.7258605 -0.817280E-07  0.231E-03    9.34       8.5  T
   6    -50.7258605 -0.303541E-08  0.129E-03    9.34      15.3  T
speedup  1.11
cpu  time for SCC    0.01 s
wall time for SCC    0.01 s
speedup  1.04
cpu  time for grad    0.01 s
wall time for grad    0.01 s
 E :    -50.44939833  G :  0.020723    pred/act E change: -0.564D-03 -0.347D-03
Maxdispl :   0.0666   ||displ|| :   0.1654   Lambda : -0.676D-03
Largest |displ|/coords:  0.0666 (   2)  0.0583 (  20)  0.0532 (   4)
................................................................................
.............................. CYCLE   15 ......................................
................................................................................
   1    -50.7295246 -0.507295E+02  0.148E-01    9.32       0.0  T
   2    -50.7295306 -0.607149E-05  0.111E-01    9.32       1.0  T
   3    -50.7295365 -0.589426E-05  0.153E-02    9.32       1.3  T
   4    -50.7295371 -0.551396E-06  0.582E-03    9.32       3.4  T
   5    -50.7295371 -0.381582E-07  0.169E-03    9.32      11.6  T
speedup  0.85
cpu  time for SCC    0.00 s
wall time for SCC    0.00 s
speedup  0.94
cpu  time for grad    0.01 s
wall time for grad    0.01 s
 E :    -50.44966666  G :  0.012567    pred/act E change: -0.484D-03 -0.268D-03
Maxdispl :   0.0913   ||displ|| :   0.2126   Lambda : -0.665D-03
Largest |displ|/coords:  0.0913 (   5)  0.0760 (   3)  0.0671 (   2)
................................................................................
.............................. CYCLE   16 ......................................
................................................................................
   1    -50.7276160 -0.507276E+02  0.188E-01    9.29       0.0  T
   2    -50.7276250 -0.898836E-05  0.141E-01    9.29       1.0  T
   3    -50.7276309 -0.596036E-05  0.197E-02    9.28       1.0  T
   4    -50.7276321 -0.120544E-05  0.632E-03    9.28       3.1  T
   5    -50.7276322 -0.503614E-07  0.199E-03    9.28       9.9  T
   6    -50.7276322 -0.222884E-08  0.103E-03    9.28      19.1  T
speedup  1.09
cpu  time for SCC    0.01 s
wall time for SCC    0.01 s
speedup  1.02
cpu  time for grad    0.01 s
wall time for grad    0.01 s
 E :    -50.45004403  G :  0.013646    pred/act E change: -0.347D-03 -0.377D-03
Maxdispl :   0.1090   ||displ|| :   0.2689   Lambda : -0.640D-03
Largest |displ|/coords:  0.1090 (   4)  0.0904 (   3)  0.0814 (   2)
................................................................................
.............................. CYCLE   17 ......................................
................................................................................
   1    -50.7272956 -0.507273E+02  0.206E-01    9.27       0.0  T
   2    -50.7273056 -0.997408E-05  0.155E-01    9.26       1.0  T
   3    -50.7273122 -0.660488E-05  0.193E-02    9.24       1.0  T
   4    -50.7273137 -0.147884E-05  0.643E-03    9.25       3.0  T
   5    -50.7273137 -0.446000E-07  0.222E-03    9.25       8.8  T
   6    -50.7273137 -0.415295E-08  0.112E-03    9.25      17.6  T
speedup  1.07
cpu  time for SCC    0.01 s
wall time for SCC    0.01 s
speedup  1.01
cpu  time for grad    0.01 s
wall time for grad    0.01 s
 E :    -50.45047697  G :  0.019299    pred/act E change: -0.347D-03 -0.433D-03
Maxdispl :   0.1488   ||displ|| :   0.3553   Lambda : -0.101D-02
Largest |displ|/coords:  0.1488 (   4)  0.1440 (   9)  0.1160 (   7)
................................................................................
.............................. CYCLE   18 ......................................
................................................................................
   1    -50.7266947 -0.507267E+02  0.307E-01    9.25       0.0  T
   2    -50.7267299 -0.352864E-04  0.229E-01    9.23       1.0  T
   3    -50.7267526 -0.226182E-04  0.346E-02    9.21       1.0  T
   4    -50.7267573 -0.470268E-05  0.108E-02    9.22       1.8  T
   5    -50.7267574 -0.132905E-06  0.366E-03    9.22       5.4  T
   6    -50.7267574 -0.948945E-08  0.187E-03    9.22      10.5  T
   7    -50.7267574 -0.783565E-08  0.355E-04    9.22      55.3  T
speedup  0.92
cpu  time for SCC    0.01 s
wall time for SCC    0.01 s
speedup  0.95
cpu  time for grad    0.01 s
wall time for grad    0.01 s
 E :    -50.45080942  G :  0.024130    pred/act E change: -0.343D-03 -0.332D-03
Maxdispl :   0.0852   ||displ|| :   0.2195   Lambda : -0.103D-02
Largest |displ|/coords:  0.0852 (   3)  0.0832 (   7)  0.0575 (  14)
................................................................................
.............................. CYCLE   19 ......................................
................................................................................
   1    -50.7310419 -0.507310E+02  0.183E-01    9.23       0.0  T
   2    -50.7310513 -0.947056E-05  0.137E-01    9.22       1.0  T
   3    -50.7310583 -0.697592E-05  0.166E-02    9.21       1.2  T
   4    -50.7310594 -0.111963E-05  0.549E-03    9.21       3.6  T
   5    -50.7310595 -0.387066E-07  0.225E-03    9.21       8.7  T
speedup  1.06
cpu  time for SCC    0.01 s
wall time for SCC    0.00 s
speedup  1.01
cpu  time for grad    0.01 s
wall time for grad    0.01 s
 E :    -50.45141726  G :  0.012619    pred/act E change: -0.572D-03 -0.608D-03
Maxdispl :   0.1302   ||displ|| :   0.2850   Lambda : -0.756D-03
Largest |displ|/coords:  0.1302 (   7)  0.1072 (   4)  0.0950 (   2)
................................................................................
.............................. CYCLE   20 ......................................
................................................................................
   1    -50.7305586 -0.507306E+02  0.258E-01    9.18       0.0  T
   2    -50.7305808 -0.221915E-04  0.194E-01    9.16       1.0  T
   3    -50.7305945 -0.137448E-04  0.270E-02    9.12       1.0  T
   4    -50.7305980 -0.348182E-05  0.756E-03    9.14       2.6  T
   5    -50.7305981 -0.807535E-07  0.297E-03    9.14       6.6  T
   6    -50.7305981 -0.680019E-08  0.136E-03    9.14      14.4  T
speedup  1.07
cpu  time for SCC    0.01 s
wall time for SCC    0.01 s
speedup  1.02
cpu  time for grad    0.01 s
wall time for grad    0.01 s
 E :    -50.45172377  G :  0.024713    pred/act E change: -0.542D-03 -0.307D-03
Maxdispl :   0.0809   ||displ|| :   0.2127   Lambda : -0.101D-02
Largest |displ|/coords:  0.0809 (  18)  0.0692 (   5)  0.0549 (  17)
................................................................................
.............................. CYCLE   21 ......................................
................................................................................
   1    -50.7364644 -0.507365E+02  0.133E-01    9.13       0.0  T
   2    -50.7364758 -0.113497E-04  0.993E-02    9.12       1.0  T
   3    -50.7364855 -0.970616E-05  0.184E-02    9.09       1.1  T
   4    -50.7364867 -0.123999E-05  0.595E-03    9.10       3.3  T
   5    -50.7364868 -0.465772E-07  0.227E-03    9.10       8.6  T
speedup  0.87
cpu  time for SCC    0.00 s
wall time for SCC    0.00 s
speedup  1.00
cpu  time for grad    0.01 s
wall time for grad    0.01 s
 E :    -50.45206614  G :  0.019116    pred/act E change: -0.409D-03 -0.342D-03
Maxdispl :   0.1706   ||displ|| :   0.4364   Lambda : -0.148D-02
Largest |displ|/coords:  0.1706 (  19)  0.1600 (   7)  0.1500 (   9)
................................................................................
.............................. CYCLE   22 ......................................
................................................................................
   1    -50.7222249 -0.507222E+02  0.403E-01    9.01       0.0  T
   2    -50.7222840 -0.590996E-04  0.296E-01    9.01       1.0  T
   3    -50.7223231 -0.390964E-04  0.426E-02    9.00       1.0  T
   4    -50.7223291 -0.605559E-05  0.134E-02    8.98       1.5  T
   5    -50.7223294 -0.224896E-06  0.484E-03    8.98       4.1  T
   6    -50.7223294 -0.240550E-07  0.235E-03    8.99       8.3  T
   7    -50.7223294 -0.182675E-07  0.537E-04    8.99      36.5  T
speedup  0.94
cpu  time for SCC    0.01 s
wall time for SCC    0.01 s
speedup  1.01
cpu  time for grad    0.01 s
wall time for grad    0.01 s
 E :    -50.45195102  G :  0.029172    pred/act E change: -0.528D-03  0.115D-03
Maxdispl :   0.1329   ||displ|| :   0.2631   Lambda : -0.248D-02
Largest |displ|/coords:  0.1329 (  16)  0.1065 (   5)  0.0911 (  19)
................................................................................
.............................. CYCLE   23 ......................................
................................................................................
   1    -50.7316693 -0.507317E+02  0.248E-01    9.12       0.0  T
   2    -50.7317076 -0.382321E-04  0.179E-01    9.10       1.0  T
   3    -50.7317253 -0.177193E-04  0.315E-02    9.06       1.0  T
   4    -50.7317301 -0.477701E-05  0.850E-03    9.09       2.3  T
   5    -50.7317301 -0.712290E-07  0.349E-03    9.09       5.6  T
   6    -50.7317301 -0.113479E-07  0.139E-03    9.09      14.1  T
speedup  0.91
cpu  time for SCC    0.00 s
wall time for SCC    0.01 s
speedup  0.96
cpu  time for grad    0.01 s
wall time for grad    0.01 s
 E :    -50.45204863  G :  0.032606    pred/act E change: -0.882D-03 -0.976D-04
Maxdispl :   0.0909   ||displ|| :   0.2758   Lambda : -0.246D-02
Largest |displ|/coords:  0.0909 (   9)  0.0892 (  17)  0.0878 (  12)
................................................................................
.............................. CYCLE   24 ......................................
................................................................................
   1    -50.7355686 -0.507356E+02  0.245E-01    9.02       0.0  T
   2    -50.7356113 -0.426466E-04  0.181E-01    9.02       1.0  T
   3    -50.7356344 -0.231599E-04  0.369E-02    9.04       1.0  T
   4    -50.7356394 -0.501313E-05  0.929E-03    9.03       2.1  T
   5    -50.7356396 -0.193209E-06  0.396E-03    9.03       4.9  T
   6    -50.7356396 -0.102231E-07  0.197E-03    9.03      10.0  T
speedup  1.09
cpu  time for SCC    0.01 s
wall time for SCC    0.01 s
speedup  0.93
cpu  time for grad    0.01 s
wall time for grad    0.01 s
 E :    -50.45240090  G :  0.028346    pred/act E change: -0.132D-02 -0.352D-03
Maxdispl :   0.0867   ||displ|| :   0.1840   Lambda : -0.162D-02
Largest |displ|/coords:  0.0867 (  17)  0.0658 (   2)  0.0598 (  20)
................................................................................
.............................. CYCLE   25 ......................................
................................................................................
   1    -50.7345142 -0.507345E+02  0.177E-01    9.02       0.0  T
   2    -50.7345348 -0.206811E-04  0.129E-01    9.02       1.0  T
   3    -50.7345491 -0.142128E-04  0.242E-02    9.02       1.0  T
   4    -50.7345510 -0.192045E-05  0.693E-03    9.01       2.8  T
   5    -50.7345510 -0.653864E-07  0.295E-03    9.01       6.6  T
   6    -50.7345511 -0.111289E-07  0.129E-03    9.01      15.2  T
speedup  1.09
cpu  time for SCC    0.01 s
wall time for SCC    0.01 s
speedup  1.03
cpu  time for grad    0.01 s
wall time for grad    0.01 s
 E :    -50.45271629  G :  0.023172    pred/act E change: -0.132D-02 -0.315D-03
Maxdispl :   0.0989   ||displ|| :   0.2528   Lambda : -0.119D-02
Largest |displ|/coords:  0.0989 (   7)  0.0870 (  11)  0.0743 (  13)

generating ANC from model Hessian ...
 Shifting diagonal of input Hessian by   5.105085517007414E-003
 Lowest  eigenvalues of input Hessian
    0.005000   -0.000000   -0.000000    0.000000    0.000000    0.000000
    0.000000    0.005340    0.005455    0.005622    0.006285    0.006852
    0.007051    0.007420    0.008376    0.009376    0.010877    0.011316
 Highest eigenvalues
    1.376262    1.385322    1.396483    2.793750    3.384750    3.518622
 
cpu  time for ANC gen    0.02 s
wall time for ANC gen    0.02 s
................................................................................
.............................. CYCLE   26 ......................................
................................................................................
   1    -50.7274466 -0.507274E+02  0.218E-01    8.99       0.0  T
   2    -50.7274653 -0.186869E-04  0.163E-01    8.99       1.0  T
   3    -50.7274788 -0.135716E-04  0.243E-02    8.98       1.0  T
   4    -50.7274812 -0.239518E-05  0.624E-03    8.98       3.1  T
   5    -50.7274813 -0.350005E-07  0.312E-03    8.98       6.3  T
   6    -50.7274813 -0.118130E-07  0.124E-03    8.98      15.8  T
   7    -50.7274813 -0.401016E-08  0.317E-04    8.98      61.9  T
   8    -50.7274813 -0.222805E-09  0.905E-05    8.98     216.8  T
speedup  0.97
cpu  time for SCC    0.01 s
wall time for SCC    0.01 s
speedup  1.01
cpu  time for grad    0.02 s
wall time for grad    0.02 s
 E :    -50.45305488  G :  0.017673    pred/act E change:  0.000D+00 -0.339D-03
Maxdispl :   0.0703   ||displ|| :   0.1701   Lambda : -0.759D-03
Largest |displ|/coords:  0.0703 (   4)  0.0599 (   2)  0.0559 (  17)
................................................................................
.............................. CYCLE   27 ......................................
................................................................................
   1    -50.7312641 -0.507313E+02  0.162E-01    8.99       0.0  T
   2    -50.7312691 -0.496459E-05  0.122E-01    8.99       1.0  T
   3    -50.7312735 -0.435810E-05  0.134E-02    8.99       1.5  T
   4    -50.7312740 -0.548304E-06  0.429E-03    8.99       4.6  T
   5    -50.7312740 -0.241685E-07  0.154E-03    8.99      12.7  T
   6    -50.7312740 -0.159191E-08  0.754E-04    8.99      26.0  T
speedup  0.91
cpu  time for SCC    0.01 s
wall time for SCC    0.01 s
speedup  0.96
cpu  time for grad    0.01 s
wall time for grad    0.01 s
 E :    -50.45356424  G :  0.007640    pred/act E change:  0.000D+00 -0.509D-03
Maxdispl :   0.1544   ||displ|| :   0.2658   Lambda : -0.563D-03
Largest |displ|/coords:  0.1544 (   4)  0.0885 (   7)  0.0843 (  11)
................................................................................
.............................. CYCLE   28 ......................................
................................................................................
   1    -50.7332168 -0.507332E+02  0.220E-01    9.02       0.0  T
   2    -50.7332243 -0.755002E-05  0.166E-01    9.03       1.0  T
   3    -50.7332314 -0.707436E-05  0.147E-02    9.03       1.3  T
   4    -50.7332322 -0.852189E-06  0.538E-03    9.03       3.6  T
   5    -50.7332323 -0.360911E-07  0.222E-03    9.03       8.8  T
   6    -50.7332323 -0.609884E-08  0.108E-03    9.03      18.2  T
speedup  1.07
cpu  time for SCC    0.01 s
wall time for SCC    0.01 s
speedup  1.02
cpu  time for grad    0.01 s
wall time for grad    0.01 s
 E :    -50.45394939  G :  0.008512    pred/act E change: -0.390D-03 -0.385D-03
Maxdispl :   0.1898   ||displ|| :   0.3124   Lambda : -0.436D-03
Largest |displ|/coords:  0.1898 (   4)  0.1095 (  11)  0.0826 (   7)
................................................................................
.............................. CYCLE   29 ......................................
................................................................................
   1    -50.7319145 -0.507319E+02  0.231E-01    9.04       0.0  T
   2    -50.7319223 -0.785440E-05  0.174E-01    9.04       1.0  T
   3    -50.7319310 -0.867678E-05  0.155E-02    9.04       1.3  T
   4    -50.7319317 -0.719171E-06  0.681E-03    9.04       2.9  T
   5    -50.7319318 -0.544157E-07  0.227E-03    9.04       8.7  T
   6    -50.7319318 -0.730244E-08  0.110E-03    9.04      17.9  T
speedup  1.09
cpu  time for SCC    0.01 s
wall time for SCC    0.01 s
speedup  0.94
cpu  time for grad    0.01 s
wall time for grad    0.01 s
 E :    -50.45420556  G :  0.013459    pred/act E change: -0.301D-03 -0.256D-03
Maxdispl :   0.1113   ||displ|| :   0.1905   Lambda : -0.335D-03
Largest |displ|/coords:  0.1113 (   4)  0.0652 (   2)  0.0632 (   7)
................................................................................
.............................. CYCLE   30 ......................................
................................................................................
   1    -50.7333865 -0.507334E+02  0.109E-01    9.05       0.0  T
   2    -50.7333905 -0.403023E-05  0.816E-02    9.05       1.0  T
   3    -50.7333935 -0.303511E-05  0.112E-02    9.06       1.7  T
   4    -50.7333941 -0.537942E-06  0.428E-03    9.06       4.6  T
   5    -50.7333941 -0.303732E-07  0.145E-03    9.06      13.5  T
   6    -50.7333941 -0.270029E-08  0.756E-04    9.06      25.9  T
speedup  1.09
cpu  time for SCC    0.01 s
wall time for SCC    0.01 s
speedup  1.02
cpu  time for grad    0.01 s
wall time for grad    0.01 s
 E :    -50.45436771  G :  0.010077    pred/act E change: -0.239D-03 -0.162D-03
Maxdispl :   0.2063   ||displ|| :   0.2900   Lambda : -0.374D-03
Largest |displ|/coords:  0.2063 (   4)  0.1198 (   7)  0.0735 (   3)
................................................................................
.............................. CYCLE   31 ......................................
................................................................................
   1    -50.7318687 -0.507319E+02  0.180E-01    9.05       0.0  T
   2    -50.7318792 -0.105052E-04  0.136E-01    9.05       1.0  T
   3    -50.7318872 -0.795304E-05  0.182E-02    9.06       1.1  T
   4    -50.7318887 -0.149163E-05  0.691E-03    9.06       2.8  T
   5    -50.7318888 -0.969473E-07  0.222E-03    9.06       8.8  T
   6    -50.7318888 -0.336782E-08  0.127E-03    9.06      15.5  T
speedup  0.93
cpu  time for SCC    0.01 s
wall time for SCC    0.01 s
speedup  0.96
cpu  time for grad    0.01 s
wall time for grad    0.01 s
 E :    -50.45451716  G :  0.010116    pred/act E change: -0.173D-03 -0.149D-03
Maxdispl :   0.0733   ||displ|| :   0.1288   Lambda : -0.253D-03
Largest |displ|/coords:  0.0733 (   9)  0.0534 (   8)  0.0342 (  11)
................................................................................
.............................. CYCLE   32 ......................................
................................................................................
   1    -50.7335249 -0.507335E+02  0.771E-02    9.06       0.0  T
   2    -50.7335266 -0.164475E-05  0.581E-02    9.06       1.0  T
   3    -50.7335280 -0.146969E-05  0.701E-03    9.06       2.8  T
   4    -50.7335282 -0.187557E-06  0.186E-03    9.07      10.5  T
   5    -50.7335282 -0.467141E-08  0.876E-04    9.07      22.4  T
speedup  1.09
cpu  time for SCC    0.00 s
wall time for SCC    0.00 s
speedup  1.02
cpu  time for grad    0.01 s
wall time for grad    0.01 s
 E :    -50.45466341  G :  0.005821    pred/act E change: -0.203D-03 -0.146D-03
Maxdispl :   0.1159   ||displ|| :   0.2486   Lambda : -0.190D-03
Largest |displ|/coords:  0.1159 (   7)  0.1102 (   4)  0.0890 (  11)
................................................................................
.............................. CYCLE   33 ......................................
................................................................................
   1    -50.7313708 -0.507314E+02  0.141E-01    9.05       0.0  T
   2    -50.7313760 -0.516888E-05  0.106E-01    9.06       1.0  T
   3    -50.7313808 -0.485878E-05  0.129E-02    9.06       1.5  T
   4    -50.7313814 -0.614640E-06  0.419E-03    9.06       4.7  T
   5    -50.7313815 -0.328678E-07  0.183E-03    9.06      10.7  T
   6    -50.7313815 -0.358426E-08  0.949E-04    9.06      20.7  T
speedup  0.91
cpu  time for SCC    0.00 s
wall time for SCC    0.01 s
speedup  0.95
cpu  time for grad    0.01 s
wall time for grad    0.01 s
 E :    -50.45470967  G :  0.011357    pred/act E change: -0.129D-03 -0.463D-04
Maxdispl :   0.0461   ||displ|| :   0.1047   Lambda : -0.220D-03
Largest |displ|/coords:  0.0461 (   7)  0.0355 (  20)  0.0335 (   5)
................................................................................
.............................. CYCLE   34 ......................................
................................................................................
   1    -50.7345297 -0.507345E+02  0.560E-02    9.06       0.0  T
   2    -50.7345315 -0.178033E-05  0.418E-02    9.06       1.0  T
   3    -50.7345327 -0.119049E-05  0.813E-03    9.06       2.4  T
   4    -50.7345329 -0.199495E-06  0.293E-03    9.06       6.7  T
   5    -50.7345329 -0.145391E-07  0.796E-04    9.06      24.6  T
speedup  1.09
cpu  time for SCC    0.00 s
wall time for SCC    0.00 s
speedup  1.02
cpu  time for grad    0.01 s
wall time for grad    0.01 s
 E :    -50.45476849  G :  0.006382    pred/act E change: -0.101D-03 -0.588D-04
Maxdispl :   0.0833   ||displ|| :   0.1316   Lambda : -0.148D-03
Largest |displ|/coords:  0.0833 (   4)  0.0445 (   9)  0.0404 (  18)
................................................................................
.............................. CYCLE   35 ......................................
................................................................................
   1    -50.7330437 -0.507330E+02  0.856E-02    9.07       0.0  T
   2    -50.7330457 -0.202804E-05  0.643E-02    9.07       1.0  T
   3    -50.7330474 -0.167855E-05  0.791E-03    9.07       2.5  T
   4    -50.7330477 -0.259461E-06  0.286E-03    9.07       6.9  T
   5    -50.7330477 -0.133002E-07  0.103E-03    9.07      19.1  T
speedup  0.87
cpu  time for SCC    0.00 s
wall time for SCC    0.00 s
speedup  0.95
cpu  time for grad    0.01 s
wall time for grad    0.01 s
 E :    -50.45482152  G :  0.005883    pred/act E change: -0.111D-03 -0.530D-04
Maxdispl :   0.0194   ||displ|| :   0.0432   Lambda : -0.594D-04
Largest |displ|/coords:  0.0194 (   1)  0.0190 (   2)  0.0124 (  11)
................................................................................
.............................. CYCLE   36 ......................................
................................................................................
   1    -50.7335757 -0.507336E+02  0.286E-02    9.08       0.0  T
   2    -50.7335763 -0.549559E-06  0.214E-02    9.08       1.0  T
   3    -50.7335766 -0.311383E-06  0.428E-03    9.07       4.6  T
   4    -50.7335766 -0.768330E-07  0.169E-03    9.07      11.6  T
   5    -50.7335766 -0.521877E-08  0.482E-04    9.07      40.7  T
speedup  1.02
cpu  time for SCC    0.01 s
wall time for SCC    0.00 s
speedup  1.00
cpu  time for grad    0.01 s
wall time for grad    0.01 s
 E :    -50.45485745  G :  0.002807    pred/act E change: -0.751D-04 -0.359D-04
Maxdispl :   0.0383   ||displ|| :   0.0903   Lambda : -0.340D-04
Largest |displ|/coords:  0.0383 (   7)  0.0363 (   4)  0.0304 (   2)
................................................................................
.............................. CYCLE   37 ......................................
................................................................................
   1    -50.7337195 -0.507337E+02  0.524E-02    9.07       0.0  T
   2    -50.7337200 -0.422132E-06  0.394E-02    9.07       1.0  T
   3    -50.7337204 -0.469457E-06  0.353E-03    9.07       5.6  T
   4    -50.7337205 -0.369404E-07  0.141E-03    9.07      13.9  T
   5    -50.7337205 -0.239198E-08  0.498E-04    9.07      39.4  T
   6    -50.7337205 -0.446320E-09  0.269E-04    9.07      72.9  T
speedup  0.93
cpu  time for SCC    0.00 s
wall time for SCC    0.01 s
speedup  0.99
cpu  time for grad    0.01 s
wall time for grad    0.01 s
 E :    -50.45488222  G :  0.002512    pred/act E change: -0.298D-04 -0.248D-04
Maxdispl :   0.0477   ||displ|| :   0.1366   Lambda : -0.500D-04
Largest |displ|/coords:  0.0477 (   1)  0.0474 (   6)  0.0463 (   2)
................................................................................
.............................. CYCLE   38 ......................................
................................................................................
   1    -50.7346920 -0.507347E+02  0.810E-02    9.08       0.0  T
   2    -50.7346931 -0.108709E-05  0.609E-02    9.09       1.0  T
   3    -50.7346942 -0.112127E-05  0.590E-03    9.09       3.3  T
   4    -50.7346943 -0.102598E-06  0.232E-03    9.09       8.5  T
   5    -50.7346943 -0.537912E-08  0.766E-04    9.09      25.6  T
   6    -50.7346944 -0.891234E-09  0.428E-04    9.09      45.8  T
speedup  0.94
cpu  time for SCC    0.00 s
wall time for SCC    0.01 s
speedup  0.93
cpu  time for grad    0.01 s
wall time for grad    0.01 s
 E :    -50.45491454  G :  0.002607    pred/act E change: -0.171D-04 -0.323D-04
Maxdispl :   0.0710   ||displ|| :   0.1822   Lambda : -0.485D-04
Largest |displ|/coords:  0.0710 (   3)  0.0625 (   4)  0.0567 (   2)
................................................................................
.............................. CYCLE   39 ......................................
................................................................................
   1    -50.7341590 -0.507342E+02  0.113E-01    9.08       0.0  T
   2    -50.7341606 -0.158823E-05  0.849E-02    9.08       1.0  T
   3    -50.7341626 -0.199462E-05  0.664E-03    9.08       3.0  T
   4    -50.7341627 -0.924081E-07  0.208E-03    9.08       9.4  T
   5    -50.7341627 -0.605416E-08  0.103E-03    9.08      19.0  T
   6    -50.7341627 -0.226736E-08  0.458E-04    9.08      42.8  T
   7    -50.7341627 -0.288509E-09  0.980E-05    9.08     200.2  T
speedup  0.97
cpu  time for SCC    0.01 s
wall time for SCC    0.01 s
speedup  1.01
cpu  time for grad    0.01 s
wall time for grad    0.01 s
 E :    -50.45493632  G :  0.004488    pred/act E change: -0.255D-04 -0.218D-04
Maxdispl :   0.0364   ||displ|| :   0.0835   Lambda : -0.431D-04
Largest |displ|/coords:  0.0364 (   5)  0.0268 (   1)  0.0219 (   3)
................................................................................
.............................. CYCLE   40 ......................................
................................................................................
   1    -50.7348686 -0.507349E+02  0.444E-02    9.09       0.0  T
   2    -50.7348689 -0.357969E-06  0.333E-02    9.09       1.0  T
   3    -50.7348693 -0.333312E-06  0.412E-03    9.09       4.8  T
   4    -50.7348693 -0.380835E-07  0.117E-03    9.09      16.7  T
   5    -50.7348693 -0.208787E-08  0.394E-04    9.09      49.8  T
speedup  0.87
cpu  time for SCC    0.00 s
wall time for SCC    0.00 s
speedup  1.02
cpu  time for grad    0.01 s
wall time for grad    0.01 s
 E :    -50.45496853  G :  0.003553    pred/act E change: -0.250D-04 -0.322D-04
Maxdispl :   0.0936   ||displ|| :   0.2063   Lambda : -0.697D-04
Largest |displ|/coords:  0.0936 (   5)  0.0851 (   2)  0.0702 (   3)
................................................................................
.............................. CYCLE   41 ......................................
................................................................................
   1    -50.7341450 -0.507341E+02  0.125E-01    9.09       0.0  T
   2    -50.7341471 -0.210251E-05  0.945E-02    9.09       1.0  T
   3    -50.7341494 -0.230867E-05  0.866E-03    9.09       2.3  T
   4    -50.7341496 -0.184378E-06  0.265E-03    9.09       7.4  T
   5    -50.7341496 -0.859161E-08  0.111E-03    9.09      17.7  T
   6    -50.7341496 -0.167323E-08  0.512E-04    9.09      38.3  T
   7    -50.7341496 -0.520913E-09  0.139E-04    9.09     140.8  T
speedup  0.95
cpu  time for SCC    0.01 s
wall time for SCC    0.01 s
speedup  1.00
cpu  time for grad    0.01 s
wall time for grad    0.01 s
 E :    -50.45501396  G :  0.003484    pred/act E change: -0.217D-04 -0.454D-04
Maxdispl :   0.1169   ||displ|| :   0.2154   Lambda : -0.702D-04
Largest |displ|/coords:  0.1169 (   5)  0.0717 (   3)  0.0623 (   2)
................................................................................
.............................. CYCLE   42 ......................................
................................................................................
   1    -50.7342567 -0.507343E+02  0.108E-01    9.09       0.0  T
   2    -50.7342593 -0.263262E-05  0.808E-02    9.10       1.0  T
   3    -50.7342612 -0.194259E-05  0.109E-02    9.10       1.8  T
   4    -50.7342616 -0.375934E-06  0.326E-03    9.10       6.0  T
   5    -50.7342616 -0.160138E-07  0.110E-03    9.10      17.8  T
   6    -50.7342616 -0.148591E-08  0.607E-04    9.10      32.3  T
   7    -50.7342616 -0.846079E-09  0.172E-04    9.10     114.0  T
speedup  0.95
cpu  time for SCC    0.01 s
wall time for SCC    0.01 s
speedup  0.99
cpu  time for grad    0.01 s
wall time for grad    0.02 s
 E :    -50.45505513  G :  0.003821    pred/act E change: -0.363D-04 -0.412D-04
Maxdispl :   0.0920   ||displ|| :   0.1890   Lambda : -0.490D-04
Largest |displ|/coords:  0.0920 (   5)  0.0873 (   2)  0.0808 (   3)
................................................................................
.............................. CYCLE   43 ......................................
................................................................................
   1    -50.7326799 -0.507327E+02  0.105E-01    9.09       0.0  T
   2    -50.7326815 -0.158923E-05  0.791E-02    9.09       1.0  T
   3    -50.7326831 -0.162826E-05  0.769E-03    9.09       2.5  T
   4    -50.7326833 -0.165764E-06  0.269E-03    9.09       7.3  T
   5    -50.7326833 -0.821746E-08  0.977E-04    9.09      20.1  T
   6    -50.7326833 -0.131842E-08  0.505E-04    9.09      38.8  T
speedup  0.91
cpu  time for SCC    0.00 s
wall time for SCC    0.01 s
speedup  0.98
cpu  time for grad    0.01 s
wall time for grad    0.01 s
 E :    -50.45508884  G :  0.004299    pred/act E change: -0.367D-04 -0.337D-04
Maxdispl :   0.0913   ||displ|| :   0.1792   Lambda : -0.766D-04
Largest |displ|/coords:  0.0913 (   5)  0.0775 (   3)  0.0667 (   2)
................................................................................
.............................. CYCLE   44 ......................................
................................................................................
   1    -50.7334615 -0.507335E+02  0.775E-02    9.12       0.0  T
   2    -50.7334634 -0.189792E-05  0.573E-02    9.12       1.0  T
   3    -50.7334647 -0.132395E-05  0.991E-03    9.12       2.0  T
   4    -50.7334649 -0.227597E-06  0.312E-03    9.12       6.3  T
   5    -50.7334649 -0.128343E-07  0.937E-04    9.12      20.9  T
   6    -50.7334649 -0.126243E-08  0.537E-04    9.12      36.5  T
speedup  0.91
cpu  time for SCC    0.00 s
wall time for SCC    0.01 s
speedup  1.02
cpu  time for grad    0.01 s
wall time for grad    0.01 s
 E :    -50.45512109  G :  0.004218    pred/act E change: -0.254D-04 -0.323D-04
Maxdispl :   0.1297   ||displ|| :   0.2509   Lambda : -0.684D-04
Largest |displ|/coords:  0.1297 (   3)  0.1074 (   5)  0.0978 (   2)
................................................................................
.............................. CYCLE   45 ......................................
................................................................................
   1    -50.7310065 -0.507310E+02  0.135E-01    9.08       0.0  T
   2    -50.7310094 -0.281231E-05  0.101E-01    9.08       1.0  T
   3    -50.7310125 -0.310003E-05  0.950E-03    9.08       2.1  T
   4    -50.7310127 -0.248160E-06  0.393E-03    9.08       5.0  T
   5    -50.7310127 -0.153362E-07  0.121E-03    9.08      16.2  T
   6    -50.7310127 -0.200411E-08  0.687E-04    9.08      28.6  T
speedup  1.11
cpu  time for SCC    0.01 s
wall time for SCC    0.01 s
speedup  1.03
cpu  time for grad    0.01 s
wall time for grad    0.01 s
 E :    -50.45515230  G :  0.006124    pred/act E change: -0.395D-04 -0.312D-04
Maxdispl :   0.0687   ||displ|| :   0.1256   Lambda : -0.706D-04
Largest |displ|/coords:  0.0687 (   3)  0.0497 (   2)  0.0476 (   7)
................................................................................
.............................. CYCLE   46 ......................................
................................................................................
   1    -50.7319367 -0.507319E+02  0.605E-02    9.08       0.0  T
   2    -50.7319379 -0.120652E-05  0.455E-02    9.07       1.0  T
   3    -50.7319387 -0.769543E-06  0.632E-03    9.07       3.1  T
   4    -50.7319389 -0.187409E-06  0.273E-03    9.07       7.2  T
   5    -50.7319389 -0.109876E-07  0.603E-04    9.07      32.5  T
speedup  0.89
cpu  time for SCC    0.00 s
wall time for SCC    0.00 s
speedup  1.02
cpu  time for grad    0.01 s
wall time for grad    0.01 s
 E :    -50.45519771  G :  0.004966    pred/act E change: -0.364D-04 -0.454D-04
Maxdispl :   0.1160   ||displ|| :   0.1929   Lambda : -0.105D-03
Largest |displ|/coords:  0.1160 (   3)  0.0887 (   7)  0.0686 (  10)
................................................................................
.............................. CYCLE   47 ......................................
................................................................................
   1    -50.7346744 -0.507347E+02  0.792E-02    9.13       0.0  T
   2    -50.7346767 -0.230300E-05  0.592E-02    9.12       1.0  T
   3    -50.7346784 -0.176122E-05  0.101E-02    9.12       1.9  T
   4    -50.7346787 -0.290607E-06  0.373E-03    9.12       5.3  T
   5    -50.7346787 -0.163449E-07  0.932E-04    9.12      21.0  T
   6    -50.7346787 -0.121325E-08  0.553E-04    9.12      35.5  T
speedup  1.11
cpu  time for SCC    0.01 s
wall time for SCC    0.01 s
speedup  1.03
cpu  time for grad    0.01 s
wall time for grad    0.01 s
 E :    -50.45523996  G :  0.004951    pred/act E change: -0.358D-04 -0.422D-04
Maxdispl :   0.2000   ||displ|| :   0.4123   Lambda : -0.119D-03
Largest |displ|/coords:  0.2000 (   3)  0.1906 (   2)  0.1891 (   5)
................................................................................
.............................. CYCLE   48 ......................................
................................................................................
   1    -50.7318592 -0.507319E+02  0.182E-01    9.08       0.0  T
   2    -50.7318653 -0.608277E-05  0.137E-01    9.08       1.0  T
   3    -50.7318715 -0.628300E-05  0.167E-02    9.08       1.2  T
   4    -50.7318721 -0.601796E-06  0.628E-03    9.08       3.1  T
   5    -50.7318722 -0.437868E-07  0.184E-03    9.08      10.6  T
   6    -50.7318722 -0.424487E-08  0.109E-03    9.08      17.9  T
speedup  0.93
cpu  time for SCC    0.00 s
wall time for SCC    0.01 s
speedup  0.96
cpu  time for grad    0.01 s
wall time for grad    0.01 s
 E :    -50.45530130  G :  0.005101    pred/act E change: -0.544D-04 -0.613D-04
Maxdispl :   0.0703   ||displ|| :   0.1248   Lambda : -0.627D-04
Largest |displ|/coords:  0.0703 (   3)  0.0618 (   5)  0.0447 (   2)
................................................................................
.............................. CYCLE   49 ......................................
................................................................................
   1    -50.7315719 -0.507316E+02  0.547E-02    9.09       0.0  T
   2    -50.7315726 -0.687020E-06  0.411E-02    9.09       1.0  T
   3    -50.7315732 -0.594997E-06  0.563E-03    9.09       3.5  T
   4    -50.7315733 -0.890735E-07  0.191E-03    9.09      10.3  T
   5    -50.7315733 -0.453585E-08  0.578E-04    9.09      34.0  T
speedup  1.06
cpu  time for SCC    0.00 s
wall time for SCC    0.00 s
speedup  1.02
cpu  time for grad    0.01 s
wall time for grad    0.01 s
 E :    -50.45534436  G :  0.004275    pred/act E change: -0.694D-04 -0.431D-04
Maxdispl :   0.0811   ||displ|| :   0.1691   Lambda : -0.825D-04
Largest |displ|/coords:  0.0811 (   5)  0.0619 (   3)  0.0523 (   2)
................................................................................
.............................. CYCLE   50 ......................................
................................................................................
   1    -50.7322285 -0.507322E+02  0.735E-02    9.14       0.0  T
   2    -50.7322307 -0.223850E-05  0.547E-02    9.14       1.0  T
   3    -50.7322324 -0.166831E-05  0.108E-02    9.15       1.8  T
   4    -50.7322326 -0.272634E-06  0.311E-03    9.14       6.3  T
   5    -50.7322326 -0.135901E-07  0.945E-04    9.14      20.8  T
   6    -50.7322326 -0.126772E-08  0.547E-04    9.14      35.8  T
speedup  0.91
cpu  time for SCC    0.00 s
wall time for SCC    0.01 s
speedup  1.02
cpu  time for grad    0.01 s
wall time for grad    0.01 s
 E :    -50.45537239  G :  0.004574    pred/act E change: -0.319D-04 -0.280D-04
Maxdispl :   0.2252   ||displ|| :   0.4504   Lambda : -0.120D-03
Largest |displ|/coords:  0.2252 (   5)  0.2136 (   3)  0.1777 (   2)
................................................................................
.............................. CYCLE   51 ......................................
................................................................................
   1    -50.7288304 -0.507288E+02  0.217E-01    9.07       0.0  T
   2    -50.7288392 -0.882597E-05  0.163E-01    9.07       1.0  T
   3    -50.7288489 -0.973381E-05  0.195E-02    9.07       1.0  T
   4    -50.7288497 -0.784617E-06  0.752E-03    9.07       2.6  T
   5    -50.7288498 -0.641000E-07  0.217E-03    9.07       9.0  T
   6    -50.7288498 -0.519867E-08  0.127E-03    9.07      15.5  T
speedup  0.91
cpu  time for SCC    0.00 s
wall time for SCC    0.01 s
speedup  0.94
cpu  time for grad    0.01 s
wall time for grad    0.01 s
 E :    -50.45537251  G :  0.011107    pred/act E change: -0.424D-04 -0.115D-06
Maxdispl :   0.0708   ||displ|| :   0.1225   Lambda : -0.219D-03
Largest |displ|/coords:  0.0708 (   3)  0.0462 (   5)  0.0419 (   7)
................................................................................
.............................. CYCLE   52 ......................................
................................................................................
   1    -50.7322837 -0.507323E+02  0.842E-02    9.14       0.0  T
   2    -50.7322869 -0.322858E-05  0.630E-02    9.14       1.0  T
   3    -50.7322896 -0.266928E-05  0.114E-02    9.15       1.7  T
   4    -50.7322900 -0.358948E-06  0.416E-03    9.15       4.7  T
   5    -50.7322900 -0.229618E-07  0.128E-03    9.15      15.3  T
   6    -50.7322900 -0.196652E-08  0.687E-04    9.15      28.5  T
speedup  0.74
cpu  time for SCC    0.00 s
wall time for SCC    0.01 s
speedup  0.96
cpu  time for grad    0.01 s
wall time for grad    0.01 s
 E :    -50.45540666  G :  0.010713    pred/act E change: -0.719D-04 -0.341D-04
Maxdispl :   0.0319   ||displ|| :   0.0733   Lambda : -0.183D-03
Largest |displ|/coords:  0.0319 (   3)  0.0225 (   9)  0.0217 (  15)

generating ANC from model Hessian ...
 Shifting diagonal of input Hessian by   4.789492428015626E-003
 Lowest  eigenvalues of input Hessian
   -0.000000   -0.000000   -0.000000    0.000000    0.000000    0.000000
    0.005000    0.005142    0.005284    0.005626    0.005864    0.006515
    0.006560    0.007140    0.007224    0.008063    0.008314    0.008922
 Highest eigenvalues
    1.379554    1.380274    1.398462    2.864833    3.369181    3.536216
 
cpu  time for ANC gen    0.02 s
wall time for ANC gen    0.02 s
................................................................................
.............................. CYCLE   53 ......................................
................................................................................
   1    -50.7315998 -0.507316E+02  0.673E-02    9.18       0.0  T
   2    -50.7316011 -0.126848E-05  0.510E-02    9.18       1.0  T
   3    -50.7316024 -0.135814E-05  0.627E-03    9.18       3.1  T
   4    -50.7316025 -0.105674E-06  0.253E-03    9.18       7.8  T
   5    -50.7316025 -0.767809E-08  0.702E-04    9.18      28.0  T
   6    -50.7316025 -0.548695E-09  0.386E-04    9.18      50.8  T
speedup  0.91
cpu  time for SCC    0.00 s
wall time for SCC    0.01 s
speedup  0.98
cpu  time for grad    0.01 s
wall time for grad    0.01 s
 E :    -50.45546888  G :  0.003607    pred/act E change:  0.000D+00 -0.622D-04
Maxdispl :   0.0234   ||displ|| :   0.0559   Lambda : -0.483D-04
Largest |displ|/coords:  0.0234 (  13)  0.0232 (   2)  0.0212 (   3)
................................................................................
.............................. CYCLE   54 ......................................
................................................................................
   1    -50.7321734 -0.507322E+02  0.389E-02    9.17       0.0  T
   2    -50.7321737 -0.245651E-06  0.294E-02    9.17       1.0  T
   3    -50.7321740 -0.304266E-06  0.248E-03    9.17       7.9  T
   4    -50.7321740 -0.160313E-07  0.830E-04    9.17      23.6  T
   5    -50.7321740 -0.959560E-09  0.373E-04    9.17      52.6  T
speedup  1.06
cpu  time for SCC    0.00 s
wall time for SCC    0.00 s
speedup  1.04
cpu  time for grad    0.01 s
wall time for grad    0.01 s
 E :    -50.45550189  G :  0.001609    pred/act E change:  0.000D+00 -0.330D-04
Maxdispl :   0.0577   ||displ|| :   0.0976   Lambda : -0.463D-04
Largest |displ|/coords:  0.0577 (   2)  0.0382 (   6)  0.0267 (  15)
................................................................................
.............................. CYCLE   55 ......................................
................................................................................
   1    -50.7325767 -0.507326E+02  0.682E-02    9.17       0.0  T
   2    -50.7325773 -0.605613E-06  0.515E-02    9.17       1.0  T
   3    -50.7325781 -0.779423E-06  0.420E-03    9.17       4.7  T
   4    -50.7325781 -0.297156E-07  0.121E-03    9.17      16.2  T
   5    -50.7325781 -0.196815E-08  0.636E-04    9.17      30.8  T
   6    -50.7325781 -0.649322E-09  0.218E-04    9.17      90.0  T
speedup  0.91
cpu  time for SCC    0.00 s
wall time for SCC    0.01 s
speedup  0.98
cpu  time for grad    0.01 s
wall time for grad    0.01 s
 E :    -50.45552458  G :  0.002330    pred/act E change: -0.242D-04 -0.227D-04
Maxdispl :   0.0507   ||displ|| :   0.0893   Lambda : -0.319D-04
Largest |displ|/coords:  0.0507 (   2)  0.0346 (   6)  0.0268 (   7)
................................................................................
.............................. CYCLE   56 ......................................
................................................................................
   1    -50.7324066 -0.507324E+02  0.550E-02    9.16       0.0  T
   2    -50.7324069 -0.386926E-06  0.414E-02    9.17       1.0  T
   3    -50.7324074 -0.464946E-06  0.344E-03    9.17       5.7  T
   4    -50.7324074 -0.239209E-07  0.995E-04    9.17      19.7  T
   5    -50.7324074 -0.114649E-08  0.515E-04    9.17      38.1  T
speedup  1.09
cpu  time for SCC    0.00 s
wall time for SCC    0.00 s
speedup  1.04
cpu  time for grad    0.01 s
wall time for grad    0.01 s
 E :    -50.45554359  G :  0.002467    pred/act E change: -0.234D-04 -0.190D-04
Maxdispl :   0.0608   ||displ|| :   0.1005   Lambda : -0.301D-04
Largest |displ|/coords:  0.0608 (   2)  0.0380 (  15)  0.0326 (   6)
................................................................................
.............................. CYCLE   57 ......................................
................................................................................
   1    -50.7320453 -0.507320E+02  0.550E-02    9.16       0.0  T
   2    -50.7320457 -0.451432E-06  0.413E-02    9.16       1.0  T
   3    -50.7320463 -0.560412E-06  0.384E-03    9.17       5.1  T
   4    -50.7320463 -0.240936E-07  0.149E-03    9.16      13.2  T
   5    -50.7320463 -0.261160E-08  0.482E-04    9.16      40.7  T
   6    -50.7320463 -0.247006E-09  0.252E-04    9.16      77.7  T
speedup  1.05
cpu  time for SCC    0.01 s
wall time for SCC    0.01 s
speedup  0.96
cpu  time for grad    0.01 s
wall time for grad    0.01 s
 E :    -50.45556648  G :  0.001695    pred/act E change: -0.161D-04 -0.229D-04
Maxdispl :   0.1177   ||displ|| :   0.1927   Lambda : -0.468D-04
Largest |displ|/coords:  0.1177 (   2)  0.0719 (  15)  0.0626 (   5)
................................................................................
.............................. CYCLE   58 ......................................
................................................................................
   1    -50.7312562 -0.507313E+02  0.102E-01    9.17       0.0  T
   2    -50.7312577 -0.147478E-05  0.769E-02    9.17       1.0  T
   3    -50.7312595 -0.183519E-05  0.745E-03    9.17       2.6  T
   4    -50.7312596 -0.766873E-07  0.269E-03    9.17       7.3  T
   5    -50.7312596 -0.849144E-08  0.912E-04    9.17      21.5  T
   6    -50.7312596 -0.855039E-09  0.473E-04    9.17      41.5  T
speedup  1.11
cpu  time for SCC    0.01 s
wall time for SCC    0.01 s
speedup  1.06
cpu  time for grad    0.01 s
wall time for grad    0.01 s
 E :    -50.45559448  G :  0.003082    pred/act E change: -0.152D-04 -0.280D-04
Maxdispl :   0.0580   ||displ|| :   0.1144   Lambda : -0.283D-04
Largest |displ|/coords:  0.0580 (   2)  0.0516 (   5)  0.0444 (  15)
................................................................................
.............................. CYCLE   59 ......................................
................................................................................
   1    -50.7313445 -0.507313E+02  0.565E-02    9.18       0.0  T
   2    -50.7313451 -0.523716E-06  0.425E-02    9.18       1.0  T
   3    -50.7313456 -0.523228E-06  0.471E-03    9.18       4.2  T
   4    -50.7313456 -0.501583E-07  0.175E-03    9.18      11.2  T
   5    -50.7313456 -0.309191E-08  0.461E-04    9.18      42.5  T
   6    -50.7313456 -0.204686E-09  0.272E-04    9.18      72.1  T
speedup  0.93
cpu  time for SCC    0.01 s
wall time for SCC    0.01 s
speedup  0.98
cpu  time for grad    0.01 s
wall time for grad    0.01 s
 E :    -50.45561741  G :  0.003342    pred/act E change: -0.243D-04 -0.229D-04
Maxdispl :   0.1480   ||displ|| :   0.2967   Lambda : -0.731D-04
Largest |displ|/coords:  0.1480 (   5)  0.1359 (   2)  0.1174 (  15)
................................................................................
.............................. CYCLE   60 ......................................
................................................................................
   1    -50.7312773 -0.507313E+02  0.138E-01    9.19       0.0  T
   2    -50.7312809 -0.351332E-05  0.103E-01    9.19       1.0  T
   3    -50.7312841 -0.322376E-05  0.130E-02    9.19       1.5  T
   4    -50.7312845 -0.385104E-06  0.465E-03    9.19       4.2  T
   5    -50.7312845 -0.232540E-07  0.120E-03    9.19      16.3  T
   6    -50.7312845 -0.146124E-08  0.719E-04    9.19      27.3  T
   7    -50.7312845 -0.835094E-09  0.151E-04    9.19     129.6  T
speedup  0.95
cpu  time for SCC    0.01 s
wall time for SCC    0.01 s
speedup  0.99
cpu  time for grad    0.01 s
wall time for grad    0.02 s
 E :    -50.45567270  G :  0.003603    pred/act E change: -0.143D-04 -0.553D-04
Maxdispl :   0.2057   ||displ|| :   0.3508   Lambda : -0.765D-04
Largest |displ|/coords:  0.2057 (   5)  0.1391 (   2)  0.1264 (  15)
................................................................................
.............................. CYCLE   61 ......................................
................................................................................
   1    -50.7305515 -0.507306E+02  0.164E-01    9.18       0.0  T
   2    -50.7305567 -0.518542E-05  0.123E-01    9.18       1.0  T
   3    -50.7305612 -0.456725E-05  0.156E-02    9.18       1.3  T
   4    -50.7305619 -0.622725E-06  0.571E-03    9.18       3.4  T
   5    -50.7305619 -0.325105E-07  0.144E-03    9.18      13.6  T
   6    -50.7305619 -0.209970E-08  0.860E-04    9.18      22.8  T
   7    -50.7305619 -0.119150E-08  0.182E-04    9.18     107.7  T
speedup  1.09
cpu  time for SCC    0.01 s
wall time for SCC    0.01 s
speedup  0.99
cpu  time for grad    0.01 s
wall time for grad    0.02 s
 E :    -50.45572457  G :  0.005041    pred/act E change: -0.397D-04 -0.519D-04
Maxdispl :   0.1538   ||displ|| :   0.2343   Lambda : -0.855D-04
Largest |displ|/coords:  0.1538 (   5)  0.0768 (  15)  0.0701 (  14)
................................................................................
.............................. CYCLE   62 ......................................
................................................................................
   1    -50.7327812 -0.507328E+02  0.855E-02    9.22       0.0  T
   2    -50.7327850 -0.375955E-05  0.632E-02    9.22       1.0  T
   3    -50.7327870 -0.206458E-05  0.154E-02    9.22       1.3  T
   4    -50.7327875 -0.475098E-06  0.415E-03    9.22       4.7  T
   5    -50.7327875 -0.328210E-07  0.110E-03    9.22      17.7  T
   6    -50.7327875 -0.137932E-08  0.680E-04    9.22      28.9  T
speedup  1.09
cpu  time for SCC    0.01 s
wall time for SCC    0.01 s
speedup  1.02
cpu  time for grad    0.01 s
wall time for grad    0.01 s
 E :    -50.45574711  G :  0.005721    pred/act E change: -0.430D-04 -0.225D-04
Maxdispl :   0.1371   ||displ|| :   0.2535   Lambda : -0.839D-04
Largest |displ|/coords:  0.1371 (   5)  0.1111 (   2)  0.0889 (  15)
................................................................................
.............................. CYCLE   63 ......................................
................................................................................
   1    -50.7299315 -0.507299E+02  0.138E-01    9.17       0.0  T
   2    -50.7299352 -0.370063E-05  0.104E-01    9.17       1.0  T
   3    -50.7299388 -0.361609E-05  0.110E-02    9.18       1.8  T
   4    -50.7299392 -0.402368E-06  0.457E-03    9.18       4.3  T
   5    -50.7299392 -0.234375E-07  0.124E-03    9.18      15.8  T
   6    -50.7299392 -0.171261E-08  0.674E-04    9.18      29.1  T
speedup  0.93
cpu  time for SCC    0.00 s
wall time for SCC    0.01 s
speedup  0.96
cpu  time for grad    0.01 s
wall time for grad    0.01 s
 E :    -50.45579195  G :  0.005888    pred/act E change: -0.451D-04 -0.448D-04
Maxdispl :   0.0497   ||displ|| :   0.1245   Lambda : -0.661D-04
Largest |displ|/coords:  0.0497 (  15)  0.0493 (   5)  0.0474 (   2)
................................................................................
.............................. CYCLE   64 ......................................
................................................................................
   1    -50.7307290 -0.507307E+02  0.550E-02    9.21       0.0  T
   2    -50.7307298 -0.875284E-06  0.404E-02    9.21       1.0  T
   3    -50.7307304 -0.576033E-06  0.709E-03    9.22       2.8  T
   4    -50.7307305 -0.965281E-07  0.232E-03    9.22       8.5  T
   5    -50.7307305 -0.747157E-08  0.529E-04    9.22      37.1  T
speedup  1.11
cpu  time for SCC    0.00 s
wall time for SCC    0.00 s
speedup  1.03
cpu  time for grad    0.01 s
wall time for grad    0.01 s
 E :    -50.45582146  G :  0.004090    pred/act E change: -0.447D-04 -0.295D-04
Maxdispl :   0.0723   ||displ|| :   0.1606   Lambda : -0.596D-04
Largest |displ|/coords:  0.0723 (   5)  0.0671 (  15)  0.0503 (  14)
................................................................................
.............................. CYCLE   65 ......................................
................................................................................
   1    -50.7300172 -0.507300E+02  0.941E-02    9.21       0.0  T
   2    -50.7300193 -0.211786E-05  0.704E-02    9.21       1.0  T
   3    -50.7300211 -0.186240E-05  0.902E-03    9.22       2.2  T
   4    -50.7300214 -0.248508E-06  0.336E-03    9.22       5.8  T
   5    -50.7300214 -0.121165E-07  0.859E-04    9.22      22.8  T
   6    -50.7300214 -0.120931E-08  0.416E-04    9.22      47.1  T
speedup  1.13
cpu  time for SCC    0.01 s
wall time for SCC    0.01 s
speedup  1.04
cpu  time for grad    0.01 s
wall time for grad    0.01 s
 E :    -50.45585930  G :  0.003450    pred/act E change: -0.336D-04 -0.378D-04
Maxdispl :   0.1893   ||displ|| :   0.3231   Lambda : -0.661D-04
Largest |displ|/coords:  0.1893 (   5)  0.1152 (  15)  0.1003 (  14)
................................................................................
.............................. CYCLE   66 ......................................
[...]
................................................................................
.............................. CYCLE  125 ......................................
................................................................................
   1    -50.7303622 -0.507304E+02  0.520E-02    9.34       0.0  T
   2    -50.7303627 -0.450223E-06  0.388E-02    9.34       1.0  T
   3    -50.7303631 -0.429039E-06  0.431E-03    9.34       4.6  T
   4    -50.7303631 -0.434148E-07  0.167E-03    9.34      11.7  T
   5    -50.7303631 -0.242486E-08  0.439E-04    9.34      44.7  T
   6    -50.7303631 -0.177145E-09  0.248E-04    9.34      79.1  T
speedup  1.11
cpu  time for SCC    0.01 s
wall time for SCC    0.01 s
speedup  0.99
cpu  time for grad    0.01 s
wall time for grad    0.01 s
 E :    -50.45987235  G :  0.001056    pred/act E change: -0.222D-05 -0.494D-05
Maxdispl :   0.0375   ||displ|| :   0.0435   Lambda : -0.206D-05
Largest |displ|/coords:  0.0375 (   1)  0.0139 (   5)  0.0092 (   4)
................................................................................
.............................. CYCLE  126 ......................................
................................................................................
   1    -50.7304425 -0.507304E+02  0.166E-02    9.34       0.0  T
   2    -50.7304425 -0.524877E-07  0.124E-02    9.34       1.6  T
   3    -50.7304426 -0.511012E-07  0.150E-03    9.34      13.1  T
   4    -50.7304426 -0.525080E-08  0.548E-04    9.34      35.8  T
   5    -50.7304426 -0.268834E-09  0.137E-04    9.34     143.3  T
speedup  1.11
cpu  time for SCC    0.00 s
wall time for SCC    0.00 s
speedup  1.04
cpu  time for grad    0.01 s
wall time for grad    0.01 s
 E :    -50.45987400  G :  0.000833    pred/act E change: -0.424D-05 -0.165D-05
Maxdispl :   0.0468   ||displ|| :   0.0552   Lambda : -0.248D-05
Largest |displ|/coords:  0.0468 (   1)  0.0171 (   5)  0.0125 (   4)
................................................................................
.............................. CYCLE  127 ......................................
................................................................................
   1    -50.7306225 -0.507306E+02  0.220E-02    9.35       0.0  T
   2    -50.7306226 -0.910070E-07  0.165E-02    9.35       1.2  T
   3    -50.7306227 -0.934931E-07  0.185E-03    9.35      10.6  T
   4    -50.7306227 -0.781879E-08  0.672E-04    9.35      29.2  T
   5    -50.7306227 -0.432877E-09  0.183E-04    9.35     106.9  T
speedup  0.89
cpu  time for SCC    0.00 s
wall time for SCC    0.00 s
speedup  1.01
cpu  time for grad    0.01 s
wall time for grad    0.01 s
 E :    -50.45987554  G :  0.000380    pred/act E change: -0.103D-05 -0.153D-05
Maxdispl :   0.0267   ||displ|| :   0.0327   Lambda : -0.647D-06
Largest |displ|/coords:  0.0267 (   1)  0.0131 (   5)  0.0069 (   2)
................................................................................
.............................. CYCLE  128 ......................................
................................................................................
   1    -50.7306187 -0.507306E+02  0.140E-02    9.35       0.0  T
   2    -50.7306188 -0.303919E-07  0.104E-02    9.35       1.9  T
   3    -50.7306188 -0.341311E-07  0.912E-04    9.34      21.5  T
   4    -50.7306188 -0.167259E-08  0.386E-04    9.34      50.8  T
speedup  1.08
cpu  time for SCC    0.00 s
wall time for SCC    0.00 s
speedup  1.04
cpu  time for grad    0.01 s
wall time for grad    0.01 s
 E :    -50.45987604  G :  0.000361    pred/act E change: -0.124D-05 -0.500D-06
Maxdispl :   0.0128   ||displ|| :   0.0218   Lambda : -0.817D-06
Largest |displ|/coords:  0.0128 (   1)  0.0108 (   2)  0.0092 (   5)
................................................................................
.............................. CYCLE  129 ......................................
................................................................................
   1    -50.7307076 -0.507307E+02  0.115E-02    9.35       0.0  T
   2    -50.7307076 -0.238018E-07  0.852E-03    9.35       2.3  T
   3    -50.7307076 -0.218014E-07  0.801E-04    9.34      24.5  T
   4    -50.7307076 -0.207626E-08  0.296E-04    9.34      66.2  T
speedup  1.03
cpu  time for SCC    0.00 s
wall time for SCC    0.00 s
speedup  0.95
cpu  time for grad    0.01 s
wall time for grad    0.01 s
 E :    -50.45987662  G :  0.000260    pred/act E change: -0.324D-06 -0.579D-06
Maxdispl :   0.0151   ||displ|| :   0.0244   Lambda : -0.528D-06
Largest |displ|/coords:  0.0151 (   1)  0.0128 (   5)  0.0107 (   2)
................................................................................
.............................. CYCLE  130 ......................................
................................................................................
   1    -50.7306756 -0.507307E+02  0.120E-02    9.34       0.0  T
   2    -50.7306756 -0.200340E-07  0.892E-03    9.34       2.2  T
   3    -50.7306756 -0.207978E-07  0.691E-04    9.34      28.4  T
   4    -50.7306757 -0.109101E-08  0.275E-04    9.34      71.4  T
speedup  0.83
cpu  time for SCC    0.00 s
wall time for SCC    0.00 s
speedup  0.98
cpu  time for grad    0.01 s
wall time for grad    0.01 s
 E :    -50.45987697  G :  0.000342    pred/act E change: -0.409D-06 -0.349D-06
Maxdispl :   0.0066   ||displ|| :   0.0106   Lambda : -0.337D-06
Largest |displ|/coords:  0.0066 (   2)  0.0038 (   1)  0.0036 (   5)
................................................................................
.............................. CYCLE  131 ......................................
................................................................................
   1    -50.7307271 -0.507307E+02  0.509E-03    9.34       0.0  T
   2    -50.7307271 -0.564767E-08  0.378E-03    9.34       5.2  T
   3    -50.7307271 -0.395509E-08  0.576E-04    9.34      34.1  T
   4    -50.7307271 -0.686718E-09  0.157E-04    9.34     124.8  T
speedup  1.11
cpu  time for SCC    0.00 s
wall time for SCC    0.00 s
speedup  0.98
cpu  time for grad    0.01 s
wall time for grad    0.01 s
 E :    -50.45987720  G :  0.000233    pred/act E change: -0.264D-06 -0.238D-06
Maxdispl :   0.0063   ||displ|| :   0.0092   Lambda : -0.252D-06
Largest |displ|/coords:  0.0063 (   5)  0.0048 (   2)  0.0025 (   4)
................................................................................
.............................. CYCLE  132 ......................................
................................................................................
   1    -50.7307302 -0.507307E+02  0.463E-03    9.34       0.0  T
   2    -50.7307302 -0.299870E-08  0.344E-03    9.34       5.7  T
   3    -50.7307302 -0.199901E-08  0.422E-04    9.34      46.5  T
   4    -50.7307302 -0.395019E-09  0.156E-04    9.34     125.5  T
speedup  0.83
cpu  time for SCC    0.00 s
wall time for SCC    0.00 s
speedup  0.96
cpu  time for grad    0.01 s
wall time for grad    0.01 s
 E :    -50.45987738  G :  0.000186    pred/act E change: -0.168D-06 -0.174D-06
Maxdispl :   0.0034   ||displ|| :   0.0066   Lambda : -0.169D-06
Largest |displ|/coords:  0.0034 (   1)  0.0030 (   5)  0.0027 (   4)
................................................................................
.............................. CYCLE  133 ......................................
................................................................................
   1    -50.7307439 -0.507307E+02  0.350E-03    9.34       0.0  T
   2    -50.7307439 -0.234129E-08  0.261E-03    9.34       7.5  T
   3    -50.7307439 -0.216533E-08  0.306E-04    9.34      64.2  T
   4    -50.7307439 -0.212246E-09  0.124E-04    9.34     158.2  T
speedup  1.08
cpu  time for SCC    0.00 s
wall time for SCC    0.00 s
speedup  0.97
cpu  time for grad    0.01 s
wall time for grad    0.01 s
 E :    -50.45987749  G :  0.000154    pred/act E change: -0.126D-06 -0.115D-06
Maxdispl :   0.0085   ||displ|| :   0.0124   Lambda : -0.112D-06
Largest |displ|/coords:  0.0085 (   1)  0.0074 (   5)  0.0029 (   3)
................................................................................
.............................. CYCLE  134 ......................................
................................................................................
   1    -50.7307221 -0.507307E+02  0.479E-03    9.34       0.0  T
   2    -50.7307221 -0.248452E-08  0.357E-03    9.34       5.5  T
   3    -50.7307221 -0.188564E-08  0.352E-04    9.34      55.8  T
   4    -50.7307221 -0.330296E-09  0.127E-04    9.34     154.8  T
speedup  1.08
cpu  time for SCC    0.00 s
wall time for SCC    0.00 s
speedup  1.06
cpu  time for grad    0.01 s
wall time for grad    0.01 s
 E :    -50.45987757  G :  0.000152    pred/act E change: -0.845D-07 -0.813D-07
Maxdispl :   0.0099   ||displ|| :   0.0132   Lambda : -0.100D-06
Largest |displ|/coords:  0.0099 (   1)  0.0068 (   5)  0.0035 (   3)

   *** GEOMETRY OPTIMIZATION CONVERGED AFTER 134 ITERATIONS ***

------------------------------------------------------------------------
 total energy gain (kcal):     -0.0496
------------------------------------------------------------------------
================
 final structure:
================
$coord
        1.87726194246180       -0.41144188877176        0.58916437543068      S 
        1.48862843724683        0.78988746837458       -1.87543220456310      O 
       -0.37284040518967       -0.02287892264599        2.17518775466295      O 
        2.44051291603176       -3.08613344185965        0.31435145311316      O 
        4.15120936358202        0.82679302692001        1.89858525574189      O 
        3.65353948049849        2.54843531314539        2.65320186135383      H 
       -2.18206261974628       -4.55709785289627        1.92258493804827      O 
       -0.55527174256864       -5.38153835305976        1.85049083982406      H 
       -1.72783470344892       -2.77786717941530        2.29590923014203      H 
       -3.30252997394605        0.66612109316506       -2.91676663779629      O 
       -1.44686291043410        0.80243277859199       -2.65078283332488      H 
       -4.05056778787228        1.77583727679288       -1.68489037569208      H 
        1.07330626127774       -4.04891158094474       -4.25216524106333      O 
        1.35166351517623       -2.42749197414229       -5.02988551229451      H 
        1.86194434296998       -3.87890463815880       -2.55497574221646      H 
       -1.40385644273637        4.58631845662451        0.56733880826129      O 
       -0.39122311190411        4.47292501981109       -0.94011259501301      H 
       -1.25161821637460        2.91725381439976        1.35434445595003      H 
       -3.40158404887242       -4.08429734606758       -2.64123910811670      O 
       -1.62964852834083       -4.30256758666829       -3.49960468795583      H 
       -3.07582307827169       -4.43304593551990       -0.70526615197042      H 
       -3.69976155921738       -2.16051913150314       -2.78111893404620      H 
        2.83838287128284        5.12875437510288        3.80006429390882      N 
        2.47668877339647        4.94542533557858        5.66714601349361      H 
        1.19022321484306        5.56022104078336        2.89329942111954      H 
        4.08812402899180        6.55229085136206        3.55057128515111      H 
$end
 
 Bond Distances (Angstroems)
 ---------------------------
S1-O2=1.4654         S1-O3=1.4712         S1-O4=1.4537         S1-O5=1.5354         O2-S1=1.4654         O3-S1=1.4712         
O4-S1=1.4537         O5-S1=1.5354         O5-H6=1.0290         H6-O5=1.0290         O7-H8=0.9659         O7-H9=0.9916         
H8-O7=0.9659         H9-O7=0.9916         O10-H11=0.9946       O10-H12=0.9625       H11-O10=0.9946       H12-O10=0.9625       
O13-H14=0.9629       O13-H15=0.9944       H14-O13=0.9629       H15-O13=0.9944       O16-H17=0.9629       O16-H18=0.9798       
H17-O16=0.9629       H18-O16=0.9798       O19-H20=1.0483       O19-H21=1.0551       O19-H22=1.0328       H20-O19=1.0483       
H21-O19=1.0551       H22-O19=1.0328       N23-H24=1.0111       N23-H25=1.0213       N23-H26=1.0111       H24-N23=1.0111       
H25-N23=1.0213       H26-N23=1.0111       
 N  H  Rav=1.0145 sigma=0.0048  Rmin=1.0111  Rmax=1.0213     3
 O  H  Rav=0.9983 sigma=0.0331  Rmin=0.9625  Rmax=1.0551    12
 S  O  Rav=1.4814 sigma=0.0318  Rmin=1.4537  Rmax=1.5354     4
 
 selected bond angles (degree)
 --------------------
O3-S1-O2=109.48                O4-S1-O2=111.23                O4-S1-O3=111.04                O5-S1-O2=109.06                
O5-S1-O3=108.49                O5-S1-O4=107.46                H6-O5-S1=110.63                H9-O7-H8=102.75                
H12-O10-H11=105.42             
 
 selected dihedral angles (degree)
 ---------------------------------
H6-O5-S1-O2= 77.62            H6-O5-S1-O3=318.43            H6-O5-S1-O4=198.30            
 
 CMA Distance (Angstroems)
 ---------------------------
R(CMA):  1.7142

========================================================================
 FINAL SINGLEPOINT CALCULATION ON OPTIMIZED GEOMETRY
========================================================================

 Ncao       : 65
 Nao        : 64
 Nshell     : 38
 Nel        : 80
 T(el)      :   300.0
 intcut     :    25.0
 scfconv/Eh :  0.100E-05
   qconv/e  :  0.100E-03
 intneglect :  0.100E-07
 broydamp   :      0.250
 iter      E             dE          RMSdq      gap      omega  full diag
   1    -50.7307221 -0.507307E+02  0.437E-05    9.34       0.0  T
   2    -50.7307221 -0.100187E-11  0.275E-05    9.34     712.8  T
   3    -50.7307221 -0.490274E-12  0.476E-06    9.34    4121.2  T
speedup  1.11
cpu  time for SCC    0.00 s
wall time for SCC    0.00 s

   *** convergence criteria satisfied after 3 iterations ***

          eigenvalues
 #    :          28         29         30         31         32         33         34         35
 occ. :        2.000      2.000      2.000      2.000      2.000      2.000      2.000      2.000
 eps  :       -13.691    -13.066    -12.768    -12.685    -12.656    -12.449    -12.301    -12.258
 #    :          36         37         38         39         40         41         42         43
 occ. :        2.000      2.000      2.000      2.000      2.000      0.000      0.000      0.000
 eps  :       -12.040    -11.988    -11.964    -11.845    -11.478     -2.135     -0.642     -0.224
 #    :          44         45         46         47         48         49         50         51
 occ. :        0.000      0.000      0.000      0.000      0.000      0.000      0.000      0.000
 eps  :         0.643      0.959      1.090      1.859      2.418      3.525      4.814      5.235


   #   Z            q   n(s)   n(p)   n(d)      C6AA      α(0)
   1  16 S      1.700  1.580  1.778  0.942    88.769    15.857
   2   8 O     -0.779  1.776  5.003  0.000    30.957     7.460
   3   8 O     -0.784  1.784  5.001  0.000    31.116     7.479
   4   8 O     -0.746  1.766  4.980  0.000    29.995     7.343
   5   8 O     -0.626  1.758  4.868  0.000    25.804     6.857
   6   1 H      0.357  0.643  0.000  0.000     0.564     1.175
   7   8 O     -0.593  1.745  4.848  0.000    25.004     6.750
   8   1 H      0.319  0.681  0.000  0.000     0.667     1.283
   9   1 H      0.338  0.662  0.000  0.000     0.618     1.235
  10   8 O     -0.619  1.747  4.871  0.000    25.626     6.833
  11   1 H      0.336  0.664  0.000  0.000     0.622     1.239
  12   1 H      0.315  0.685  0.000  0.000     0.678     1.293
  13   8 O     -0.599  1.746  4.853  0.000    25.152     6.770
  14   1 H      0.313  0.687  0.000  0.000     0.684     1.299
  15   1 H      0.340  0.660  0.000  0.000     0.614     1.231
  16   8 O     -0.628  1.752  4.876  0.000    25.860     6.863
  17   1 H      0.294  0.706  0.000  0.000     0.740     1.351
  18   1 H      0.313  0.687  0.000  0.000     0.683     1.298
  19   8 O     -0.509  1.730  4.778  0.000    23.019     6.480
  20   1 H      0.385  0.615  0.000  0.000     0.513     1.125
  21   1 H      0.384  0.616  0.000  0.000     0.513     1.125
  22   1 H      0.384  0.616  0.000  0.000     0.516     1.128
  23   7 N     -0.444  1.358  4.086  0.000    31.624     8.352
  24   1 H      0.171  0.829  0.000  0.000     1.266     1.763
  25   1 H      0.210  0.790  0.000  0.000     1.057     1.611
  26   1 H      0.170  0.830  0.000  0.000     1.275     1.769

 Mol. C6AA /au·bohr⁶  :       5484.911228
 Mol. C8AA /au·bohr⁸  :     118584.799608
 Mol. α(0) /au        :        106.968111

 
 Wiberg/Mayer (AO) data. WBOs > 0.1 written file <wbo>
 largest (>0.05) Wiberg bond orders for each atom
           total WBO             WBO to atom ...
     1  S   4.838    O    4 1.313    O    2 1.258    O    3 1.227    O    5 0.999
     2  O   1.688    S    1 1.258    O    4 0.106    O    3 0.103    H   11 0.083    O    5 0.079
     3  O   1.701    S    1 1.227    O    2 0.103    O    4 0.100    O    5 0.080    H    9 0.076    H   18 0.058
     4  O   1.729    S    1 1.313    O    2 0.106    O    3 0.100    H   15 0.082    O    5 0.066
     5  O   1.965    S    1 0.999    H    6 0.673    O    3 0.080    O    2 0.079    O    4 0.066    N   23 0.061
     6  H   0.872    O    5 0.673    N   23 0.183
     7  O   1.981    H    8 0.885    H    9 0.805    H   21 0.182    O   19 0.064
     8  H   0.898    O    7 0.885
     9  H   0.886    O    7 0.805    O    3 0.076
    10  O   1.928    H   12 0.886    H   11 0.795    H   22 0.144    O   19 0.052
    11  H   0.887    O   10 0.795    O    2 0.083
    12  H   0.901    O   10 0.886
    13  O   1.965    H   14 0.894    H   15 0.797    H   20 0.168    O   19 0.061
    14  H   0.902    O   13 0.894
    15  H   0.885    O   13 0.797    O    4 0.082
    16  O   1.847    H   17 0.902    H   18 0.836
    17  H   0.914    O   16 0.902
    18  H   0.902    O   16 0.836    O    3 0.058
    19  O   2.242    H   22 0.705    H   20 0.681    H   21 0.667    O    7 0.064    O   13 0.061    O   10 0.052
    20  H   0.852    O   19 0.681    O   13 0.168
    21  H   0.852    O   19 0.667    O    7 0.182
    22  H   0.853    O   19 0.705    O   10 0.144
    23  N   3.136    H   24 0.969    H   26 0.969    H   25 0.919    H    6 0.183    O    5 0.061
    24  H   0.971    N   23 0.969
    25  H   0.956    N   23 0.919
    26  H   0.971    N   23 0.969
 MOs/occ written to file <molden.input>
 
molecular dipole:
                 x           y           z       tot (Debye)
 q only:       -0.582       0.300      -0.063
   full:        0.205       1.118       0.502       3.159
molecular quadrupole (traceless):
                xx          xy          yy          xz          yz          zz
 q only:       -4.922      10.422       3.617       4.825       7.296       1.305
  q+dip:       -6.077       8.764       3.131       3.730       6.243       2.946
   full:       -6.085       8.805       3.271       3.723       6.324       2.814

SCC energy    :     -50.7307221
rep           :       0.2706462
ES            :       0.2515545
AES           :      -0.0718385
AXC           :      -0.0085716
disp          :      -0.0206375
XB            :       0.0000000
fix           :       0.0000000
total E       :     -50.4598776
atomizationE  :       4.9901817     3131.39
(atE without considering molecular charge,
 total energy contains solvation terms)
H-L gap (eV)  :          9.3432
optimized geometry written to: xtbopt.xyz


------------------------------------------------------------------------
 * finished run on 2019/09/16 at 12:20:16.416     
------------------------------------------------------------------------
 total:
 * wall-time:     0 d,  0 h,  0 min,  3.349 sec
 *  cpu-time:     0 d,  0 h,  0 min,  3.027 sec
 * ratio c/w:     0.904 speedup
 SCF:
 * wall-time:     0 d,  0 h,  0 min,  0.412 sec
 *  cpu-time:     0 d,  0 h,  0 min,  0.145 sec
 * ratio c/w:     0.352 speedup
 ANC optimizer:
 * wall-time:     0 d,  0 h,  0 min,  2.912 sec
 *  cpu-time:     0 d,  0 h,  0 min,  2.859 sec
 * ratio c/w:     0.982 speedup

