      -----------------------------------------------------------      
     |                   =====================                   |     
     |                           x T B                           |     
     |                   =====================                   |     
     |                         S. Grimme                         |     
     |          Mulliken Center for Theoretical Chemistry        |     
     |                    University of Bonn                     |     
     |                 Version 6.0.1 (SAW181210)                 |     
      -----------------------------------------------------------      

   This program is distributed in the hope that it will be useful,
   but WITHOUT ANY WARRANTY; without even the implied warranty of
   MERCHANTABILITY or FITNESS FOR A PARTICULAR PURPOSE.
   
   FOR NON-COMMERCIAL, ACADEMIA USE ONLY.
   
   Cite this work as:
   S. Grimme, C. Bannwarth, P. Shushkov, J. Comput. Theory Chem., 2017,
   13, 1989-2009.
   C. Bannwarth, S. Ehlert and S. Grimme., ChemRxiv, 2018, preprint.
   http://doi.org/10.26434/chemrxiv.7246238.v1
   
   for sTDA-xTB:
   S. Grimme and C. Bannwarth, J. Chem. Phys., 2016, 145, 054103.
   
   in the mass-spec context:
   V. Asgeirsson, C. Bauer and S. Grimme, Chem. Sci., 2017, 8, 4879.
   
   if GBSA is used:
   P. Shushkov, F. März and S. Grimme, unpublished.
   
   for ANC optimizer:
   S. Grimme, unpublished.
   Rational Function algorithm used in ANCopt:
   F. Eckert, P. Pulay, H.-J. Werner, J. Comput. Chem., 1997, 18, 1473.
   
   with help from (in alphabetical order)
   C. Bannwarth, F. Bohle, G. Brandenburg, E. Caldeweyher, M. Checinski,
   S. Dohm, S. Ehlert, S. Ehrlich, F. März, H. Neugebauer, J. Pisarek,
   P. Pracht, P. Shushkov, and S. Spicher.
   
 * started run on 2019/09/16 at 11:22:46.620     
========================================================================
 # omp threads = 1
========================================================================
number of atoms            : 26
number of electrons        : 80
charge                     : 0
spin                       : .0
first test random number   : .9092

########################################################################
# WARNING! Please study the warnings concerning your input carefully
#  - XTBPATH is not set, using XTBHOME instead
#  - the use of '-opt' is discouraged, please use '--opt' next time
#  - the use of '-chrg' is discouraged, please use '--chrg' next time
#  - the use of '-uhf' is discouraged, please use '--uhf' next time
########################################################################

           ------------------------------------------------- 
          |                 G F N 2 - x T B                 |
          | Geometry, Frequencies, Noncovalent interactions |
          |            JCTC 2018 parametrisation            |
           ------------------------------------------------- 
      method parameters     
 k(s)        :  1.8500
 k(p)        :  2.2300
 k(d)        :  2.2300
 k(f)        :  2.0000
 kEN (H0ij)  : -2.0000
 D4 a1       :  0.5200
 D4 a2       :  5.0000
 D4 s6       :  1.0000
 D4 s8       :  2.7000
 D4 s9       :  5.0000
 alphaj      :  2.0000


            Z     q(EN)     CN     RAES       Cart. coordinates
     1  S   6.0    0.64    4.26    4.16    -0.98330    -2.10514     3.29489
     2  O   6.0   -0.32    1.21    1.80     1.57752    -1.30657     4.15082
     3  O   6.0   -0.32    1.21    1.80    -2.68668     0.13538     3.21327
     4  O   6.0   -0.33    1.26    1.80    -0.80213    -3.24054     0.72465
     5  O   6.0   -0.25    2.08    1.84    -2.00767    -3.98277     5.06624
     6  H   1.0    0.15    1.21    1.47    -2.12474    -3.25201     6.72256
     7  O   6.0   -0.28    1.99    1.83     3.77306    -3.91788    -1.54308
     8  H   1.0    0.17    1.03    1.43     2.13452    -4.13487    -0.77971
     9  H   1.0    0.16    1.01    1.43     4.77629    -3.05501    -0.29264
    10  O   6.0   -0.29    2.03    1.83    -4.85258     4.34904     1.59697
    11  H   1.0    0.15    0.97    1.43    -5.00754     5.40025     3.07533
    12  H   1.0    0.18    1.05    1.44    -4.11285     2.79381     2.18746
    13  O   6.0   -0.29    2.03    1.83     4.03225     0.82335    -3.28583
    14  H   1.0    0.16    1.01    1.43     4.31224    -0.97397    -3.36232
    15  H   1.0    0.16    0.99    1.43     4.81107     1.36625    -1.73234
    16  O   6.0   -0.30    2.01    1.83     5.72652    -0.15715     1.59578
    17  H   1.0    0.15    0.97    1.43     7.04045     0.26056     2.78478
    18  H   1.0    0.18    1.05    1.44     4.23909    -0.44806     2.60451
    19  O   6.0   -0.29    2.04    1.83    -4.50547     3.57430    -3.31483
    20  H   1.0    0.15    0.97    1.43    -5.60470     4.76686    -4.14194
    21  H   1.0    0.17    1.05    1.44    -4.68640     3.90754    -1.53415
    22  N   5.0   -0.14    3.94    2.70    -1.00979    -0.16067    -3.40608
    23  H   1.0    0.12    1.07    1.44    -1.18023    -1.31751    -1.85138
    24  H   1.0    0.09    0.99    1.43    -1.34370    -1.19196    -5.02145
    25  H   1.0    0.11    1.07    1.44    -2.30328     1.28706    -3.28204
    26  H   1.0    0.10    1.05    1.44     0.78806     0.57971    -3.46947

  Z AO/shell   Hii/eV     exponent
  1     Wed Apr 25 08:07:45 CEST 2018   EN: 2.200 GM2: 0.406  GM3: 0.0800  RAES: 1.40
     1s    -10.707211    1.230000
  7     Wed Apr 25 08:07:45 CEST 2018   EN: 3.040 GM2: 0.461  GM3:-0.0640  RAES: 1.90
     2s    -16.686243    2.339881
     2p    -12.523956    2.014332
  8     Wed Apr 25 08:07:45 CEST 2018   EN: 3.440 GM2: 0.452  GM3:-0.0517  RAES: 1.80
     2s    -20.229985    2.439742
     2p    -15.503117    2.137023
 16     Tue Apr 24 11:44:34 CEST 2018   EN: 2.580 GM2: 0.340  GM3:-0.0502  RAES: 3.10
     3s    -20.029654    1.981333
     3p    -11.377694    2.025643
     3d     -0.420282    1.702555
 no old-style atom pair restraining (fixing) potential

molecular fragmentation (1/2 indicates fragments):
11111122222222222222222222
# atoms in fragment 1/2:     6    20
 fragment masses (1/2) :       97.07      108.11
CMA distance (Bohr)    :   5.661
constraining FC (au)   :  0.0500
           ------------------------------------------------- 
          |        Self-Consistent Charge Iterations        |
           ------------------------------------------------- 

 Ncao       : 65
 Nao        : 64
 Nshell     : 38
 Nel        : 80
 T(el)      :   300.0
 intcut     :    25.0
 scfconv/Eh :  0.100E-05
   qconv/e  :  0.100E-03
 intneglect :  0.100E-07
 broydamp   :      0.250
 iter      E             dE          RMSdq      gap      omega  full diag
   1    -50.6472760 -0.506473E+02  0.701E+00   10.39       0.0  T
   2    -50.6988691 -0.515930E-01  0.504E+00    9.91       1.0  T
   3    -50.7379374 -0.390683E-01  0.133E+00    8.69       1.0  T
   4    -50.7430774 -0.514000E-02  0.567E-01    8.97       1.0  T
   5    -50.7437777 -0.700266E-03  0.298E-01    8.91       1.0  T
   6    -50.7441803 -0.402590E-03  0.134E-01    8.90       1.0  T
   7    -50.7442794 -0.991743E-04  0.483E-02    8.93       1.0  T
   8    -50.7442892 -0.978226E-05  0.310E-02    8.92       1.0  T
   9    -50.7442945 -0.532836E-05  0.135E-02    8.91       1.5  T
  10    -50.7442957 -0.116887E-05  0.249E-03    8.91       7.9  T
  11    -50.7442957 -0.205589E-07  0.128E-03    8.91      15.3  T
  12    -50.7442957 -0.851598E-08  0.365E-04    8.91      53.7  T
  13    -50.7442957 -0.595982E-09  0.126E-04    8.91     155.0  T
speedup  1.01
cpu  time for SCC    0.01 s
wall time for SCC    0.01 s

   *** convergence criteria satisfied after 13 iterations ***

          eigenvalues
 #    :          28         29         30         31         32         33         34         35
 occ. :        2.000      2.000      2.000      2.000      2.000      2.000      2.000      2.000
 eps  :       -12.909    -12.639    -12.242    -11.959    -11.780    -11.746    -11.636    -11.494
 #    :          36         37         38         39         40         41         42         43
 occ. :        2.000      2.000      2.000      2.000      2.000      0.000      0.000      0.000
 eps  :       -11.476    -11.105    -11.061    -11.003    -10.754     -1.844     -0.727     -0.063
 #    :          44         45         46         47         48         49         50         51
 occ. :        0.000      0.000      0.000      0.000      0.000      0.000      0.000      0.000
 eps  :         0.953      1.162      1.554      1.998      3.413      3.821      4.034      5.104


   #   Z            q   n(s)   n(p)   n(d)      C6AA      α(0)
   1  16 S      1.601  1.583  1.837  0.979    91.049    16.060
   2   8 O     -0.758  1.778  4.979  0.000    30.325     7.383
   3   8 O     -0.767  1.775  4.992  0.000    30.599     7.416
   4   8 O     -0.737  1.764  4.973  0.000    29.738     7.311
   5   8 O     -0.545  1.718  4.827  0.000    23.883     6.597
   6   1 H      0.360  0.640  0.000  0.000     0.556     1.167
   7   8 O     -0.634  1.747  4.888  0.000    26.023     6.885
   8   1 H      0.308  0.692  0.000  0.000     0.697     1.312
   9   1 H      0.311  0.689  0.000  0.000     0.688     1.303
  10   8 O     -0.618  1.735  4.883  0.000    25.613     6.831
  11   1 H      0.283  0.717  0.000  0.000     0.774     1.382
  12   1 H      0.336  0.664  0.000  0.000     0.622     1.239
  13   8 O     -0.620  1.740  4.880  0.000    25.675     6.839
  14   1 H      0.323  0.677  0.000  0.000     0.654     1.271
  15   1 H      0.315  0.685  0.000  0.000     0.678     1.293
  16   8 O     -0.618  1.737  4.881  0.000    25.623     6.832
  17   1 H      0.276  0.724  0.000  0.000     0.796     1.402
  18   1 H      0.333  0.667  0.000  0.000     0.630     1.246
  19   8 O     -0.618  1.729  4.889  0.000    25.609     6.830
  20   1 H      0.287  0.713  0.000  0.000     0.763     1.372
  21   1 H      0.341  0.659  0.000  0.000     0.608     1.225
  22   7 N     -0.309  1.251  4.057  0.000    27.923     7.848
  23   1 H      0.300  0.700  0.000  0.000     0.714     1.324
  24   1 H      0.245  0.755  0.000  0.000     0.903     1.489
  25   1 H      0.302  0.698  0.000  0.000     0.708     1.318
  26   1 H      0.302  0.698  0.000  0.000     0.709     1.319

 Mol. C6AA /au·bohr⁶  :       5438.317588
 Mol. C8AA /au·bohr⁸  :     117882.818191
 Mol. α(0) /au        :        106.494833

 
 Wiberg/Mayer (AO) data. WBOs > 0.1 written file <wbo>
 largest (>0.05) Wiberg bond orders for each atom
           total WBO             WBO to atom ...
     1  S   4.919    O    3 1.300    O    2 1.299    O    4 1.287    O    5 0.992
     2  O   1.676    S    1 1.299    O    3 0.113    O    4 0.111    O    5 0.074    H   18 0.054
     3  O   1.659    S    1 1.300    O    2 0.113    O    4 0.109    O    5 0.073
     4  O   1.726    S    1 1.287    O    2 0.111    O    3 0.109    H   23 0.072    O    5 0.052
     5  O   2.044    S    1 0.992    H    6 0.846    O    2 0.074    O    3 0.073    O    4 0.052
     6  H   0.870    O    5 0.846
     7  O   1.837    H    9 0.873    H    8 0.866
     8  H   0.905    O    7 0.866
     9  H   0.903    O    7 0.873
    10  O   1.837    H   11 0.906    H   12 0.836
    11  H   0.920    O   10 0.906
    12  H   0.887    O   10 0.836
    13  O   1.884    H   15 0.878    H   14 0.854    H   26 0.078
    14  H   0.895    O   13 0.854
    15  H   0.901    O   13 0.878
    16  O   1.842    H   17 0.916    H   18 0.830
    17  H   0.924    O   16 0.916
    18  H   0.889    O   16 0.830    O    2 0.054
    19  O   1.850    H   20 0.904    H   21 0.831    H   25 0.061
    20  H   0.918    O   19 0.904
    21  H   0.883    O   19 0.831
    22  N   3.555    H   24 0.937    H   25 0.842    H   23 0.832    H   26 0.827
    23  H   0.910    N   22 0.832    O    4 0.072
    24  H   0.940    N   22 0.937
    25  H   0.909    N   22 0.842    O   19 0.061
    26  H   0.909    N   22 0.827    O   13 0.078
 MOs/occ written to file <molden.input>
 
molecular dipole:
                 x           y           z       tot (Debye)
 q only:       -0.866       0.989      -1.320
   full:       -1.134       0.769       0.088       3.491
molecular quadrupole (traceless):
                xx          xy          yy          xz          yz          zz
 q only:       -3.566       0.264      -8.127       6.586      -1.280      11.692
  q+dip:       -4.331       0.359      -9.245       8.001      -3.338      13.576
   full:       -4.708       0.387      -9.455       7.993      -3.244      14.163

SCC energy    :     -50.7442957
rep           :       0.3086769
ES            :       0.2927555
AES           :      -0.0737222
AXC           :      -0.0092591
disp          :      -0.0167102
XB            :       0.0000000
fix           :       0.0000000
total E       :     -50.4353086
atomizationE  :       4.9656128     3115.97
(atE without considering molecular charge,
 total energy contains solvation terms)
H-L gap (eV)  :          8.9103
           ------------------------------------------------- 
          |                 ===============                 |
          |                   A N C O P T                   |
          |                 ===============                 |
          |          Approximate Normal Coordinate          |
          |           Rational Function Optimizer           |
           ------------------------------------------------- 
dumping coords to <xtbopt.coord> and <xtbopt.log>
 optlevel               2
 Maxcycle             520
 Maxmicro              25
 Econv         1.000000000000000E-007
 Gconv         2.000000000000000E-004
 Maxdispl       1.00000000000000     
 Hlow          5.000000000000000E-003
 S6             20.0000000000000     
 Nvar               72

generating ANC from model Hessian ...
 Shifting diagonal of input Hessian by   5.240674734331780E-003
 Lowest  eigenvalues of input Hessian
    0.005000    0.005162   -0.000000   -0.000000   -0.000000   -0.000000
   -0.000000    0.000000    0.005423    0.005571    0.005872    0.006416
    0.006619    0.007083    0.007284    0.007642    0.008334    0.009104
 Highest eigenvalues
    1.430119    1.438886    1.454386    3.146135    3.215136    3.316171
 
cpu  time for ANC gen    0.01 s
wall time for ANC gen    0.01 s
................................................................................
.............................. CYCLE    1 ......................................
................................................................................
   1    -50.7442957 -0.507443E+02  0.883E-05    8.91       0.0  T
   2    -50.7442957 -0.145803E-10  0.699E-05    8.91     280.6  T
   3    -50.7442957 -0.189146E-10  0.309E-05    8.91     635.3  T
speedup  1.07
cpu  time for SCC    0.00 s
wall time for SCC    0.00 s
speedup  1.00
cpu  time for grad    0.01 s
wall time for grad    0.01 s
 E :    -50.43530854  G :  0.163838    pred/act E change:  0.000D+00  0.510D-07
Maxdispl :   0.1123   ||displ|| :   0.2911   Lambda : -0.132D-01
Largest |displ|/coords:  0.1123 (  21)  0.1085 (  25)  0.1039 (  24)
................................................................................
.............................. CYCLE    2 ......................................
................................................................................
   1    -50.7449305 -0.507449E+02  0.266E-01    8.99       0.0  T
   2    -50.7450575 -0.127014E-03  0.201E-01    9.02       1.0  T
   3    -50.7451035 -0.460082E-04  0.783E-02    9.06       1.0  T
   4    -50.7451143 -0.107459E-04  0.162E-02    9.06       1.2  T
   5    -50.7451148 -0.536813E-06  0.474E-03    9.06       4.1  T
   6    -50.7451148 -0.297749E-07  0.221E-03    9.06       8.9  T
speedup  1.13
cpu  time for SCC    0.01 s
wall time for SCC    0.01 s
speedup  1.02
cpu  time for grad    0.01 s
wall time for grad    0.01 s
 E :    -50.44561826  G :  0.106537    pred/act E change:  0.000D+00 -0.103D-01
Maxdispl :   0.0913   ||displ|| :   0.2490   Lambda : -0.794D-02
Largest |displ|/coords:  0.0913 (  21)  0.0779 (  30)  0.0656 (  25)
................................................................................
.............................. CYCLE    3 ......................................
................................................................................
   1    -50.7493838 -0.507494E+02  0.223E-01    9.13       0.0  T
   2    -50.7495129 -0.129080E-03  0.170E-01    9.16       1.0  T
   3    -50.7495539 -0.409826E-04  0.863E-02    9.21       1.0  T
   4    -50.7495590 -0.512687E-05  0.158E-02    9.21       1.2  T
   5    -50.7495595 -0.465626E-06  0.481E-03    9.21       4.1  T
   6    -50.7495595 -0.319242E-07  0.177E-03    9.21      11.1  T
speedup  1.13
cpu  time for SCC    0.01 s
wall time for SCC    0.01 s
speedup  1.00
cpu  time for grad    0.01 s
wall time for grad    0.01 s
 E :    -50.45163841  G :  0.058618    pred/act E change: -0.718D-02 -0.602D-02
Maxdispl :   0.0907   ||displ|| :   0.2189   Lambda : -0.375D-02
Largest |displ|/coords:  0.0907 (   7)  0.0684 (  21)  0.0548 (  19)
................................................................................
.............................. CYCLE    4 ......................................
................................................................................
   1    -50.7513585 -0.507514E+02  0.197E-01    9.20       0.0  T
   2    -50.7514443 -0.857786E-04  0.151E-01    9.23       1.0  T
   3    -50.7514715 -0.271508E-04  0.685E-02    9.27       1.0  T
   4    -50.7514763 -0.487387E-05  0.149E-02    9.27       1.3  T
   5    -50.7514767 -0.337422E-06  0.404E-03    9.26       4.9  T
   6    -50.7514767 -0.217870E-07  0.151E-03    9.26      13.0  T
speedup  0.91
cpu  time for SCC    0.00 s
wall time for SCC    0.01 s
speedup  1.00
cpu  time for grad    0.01 s
wall time for grad    0.01 s
 E :    -50.45411698  G :  0.025117    pred/act E change: -0.421D-02 -0.248D-02
Maxdispl :   0.2209   ||displ|| :   0.3600   Lambda : -0.225D-02
Largest |displ|/coords:  0.2209 (   5)  0.1377 (   3)  0.1031 (  30)
................................................................................
.............................. CYCLE    5 ......................................
................................................................................
   1    -50.7493507 -0.507494E+02  0.494E-01    9.14       0.0  T
   2    -50.7494515 -0.100715E-03  0.378E-01    9.15       1.0  T
   3    -50.7495000 -0.485147E-04  0.598E-02    9.18       1.0  T
   4    -50.7495204 -0.204232E-04  0.186E-02    9.17       1.1  T
   5    -50.7495210 -0.571184E-06  0.496E-03    9.17       4.0  T
   6    -50.7495210 -0.177487E-07  0.209E-03    9.17       9.4  T
speedup  0.91
cpu  time for SCC    0.00 s
wall time for SCC    0.01 s
speedup  0.92
cpu  time for grad    0.01 s
wall time for grad    0.01 s
 E :    -50.45404466  G :  0.029693    pred/act E change: -0.196D-02  0.723D-04
Maxdispl :   0.1660   ||displ|| :   0.3096   Lambda : -0.325D-02
Largest |displ|/coords:  0.1660 (   5)  0.1411 (   7)  0.1186 (   1)
................................................................................
.............................. CYCLE    6 ......................................
................................................................................
   1    -50.7539926 -0.507540E+02  0.428E-01    9.10       0.0  T
   2    -50.7540408 -0.482091E-04  0.326E-01    9.11       1.0  T
   3    -50.7540806 -0.397953E-04  0.343E-02    9.12       1.0  T
   4    -50.7540874 -0.679752E-05  0.969E-03    9.12       2.0  T
   5    -50.7540875 -0.122309E-06  0.393E-03    9.12       5.0  T
   6    -50.7540875 -0.139862E-08  0.174E-03    9.12      11.3  T
speedup  0.94
cpu  time for SCC    0.00 s
wall time for SCC    0.01 s
speedup  1.02
cpu  time for grad    0.01 s
wall time for grad    0.01 s
 E :    -50.45503968  G :  0.018114    pred/act E change: -0.127D-02 -0.995D-03
Maxdispl :   0.1275   ||displ|| :   0.2477   Lambda : -0.121D-02
Largest |displ|/coords:  0.1275 (   7)  0.0870 (   5)  0.0796 (   3)
................................................................................
.............................. CYCLE    7 ......................................
................................................................................
   1    -50.7458682 -0.507459E+02  0.359E-01    9.15       0.0  T
   2    -50.7459429 -0.746521E-04  0.272E-01    9.14       1.0  T
   3    -50.7459821 -0.391986E-04  0.520E-02    9.12       1.0  T
   4    -50.7459944 -0.123686E-04  0.138E-02    9.12       1.4  T
   5    -50.7459949 -0.489683E-06  0.394E-03    9.13       5.0  T
   6    -50.7459950 -0.118767E-07  0.228E-03    9.13       8.6  T
   7    -50.7459950 -0.880092E-08  0.675E-04    9.13      29.0  T
speedup  0.97
cpu  time for SCC    0.01 s
wall time for SCC    0.01 s
speedup  1.02
cpu  time for grad    0.01 s
wall time for grad    0.01 s
 E :    -50.45443992  G :  0.042103    pred/act E change: -0.178D-02  0.600D-03
Maxdispl :   0.1205   ||displ|| :   0.2442   Lambda : -0.295D-02
Largest |displ|/coords:  0.1205 (   6)  0.1100 (   7)  0.0829 (  10)
................................................................................
.............................. CYCLE    8 ......................................
................................................................................
   1    -50.7516342 -0.507516E+02  0.312E-01    9.15       0.0  T
   2    -50.7516962 -0.619858E-04  0.235E-01    9.15       1.0  T
   3    -50.7517349 -0.386632E-04  0.452E-02    9.13       1.0  T
   4    -50.7517439 -0.907070E-05  0.118E-02    9.14       1.7  T
   5    -50.7517442 -0.256263E-06  0.455E-03    9.14       4.3  T
   6    -50.7517442 -0.133341E-07  0.226E-03    9.14       8.7  T
speedup  1.13
cpu  time for SCC    0.01 s
wall time for SCC    0.01 s
speedup  1.02
cpu  time for grad    0.01 s
wall time for grad    0.01 s
 E :    -50.45529395  G :  0.015151    pred/act E change: -0.639D-03 -0.854D-03
Maxdispl :   0.0831   ||displ|| :   0.2393   Lambda : -0.142D-02
Largest |displ|/coords:  0.0831 (  30)  0.0700 (  34)  0.0660 (   5)
................................................................................
.............................. CYCLE    9 ......................................
................................................................................
   1    -50.7522899 -0.507523E+02  0.273E-01    9.08       0.0  T
   2    -50.7523337 -0.438651E-04  0.207E-01    9.09       1.0  T
   3    -50.7523512 -0.175241E-04  0.444E-02    9.12       1.0  T
   4    -50.7523594 -0.816879E-05  0.112E-02    9.11       1.7  T
   5    -50.7523596 -0.211144E-06  0.326E-03    9.11       6.0  T
   6    -50.7523596 -0.105770E-07  0.145E-03    9.11      13.5  T
   7    -50.7523596 -0.400299E-08  0.696E-04    9.11      28.2  T
speedup  0.97
cpu  time for SCC    0.01 s
wall time for SCC    0.01 s
speedup  0.95
cpu  time for grad    0.01 s
wall time for grad    0.01 s
 E :    -50.45542792  G :  0.017329    pred/act E change: -0.156D-02 -0.134D-03
Maxdispl :   0.0822   ||displ|| :   0.1651   Lambda : -0.910D-03
Largest |displ|/coords:  0.0822 (   3)  0.0514 (   1)  0.0473 (  14)
................................................................................
.............................. CYCLE   10 ......................................
................................................................................
   1    -50.7513823 -0.507514E+02  0.170E-01    9.12       0.0  T
   2    -50.7513920 -0.973669E-05  0.130E-01    9.12       1.0  T
   3    -50.7513986 -0.654838E-05  0.180E-02    9.11       1.1  T
   4    -50.7514002 -0.161922E-05  0.470E-03    9.11       4.2  T
   5    -50.7514003 -0.523461E-07  0.164E-03    9.11      11.9  T
   6    -50.7514003 -0.918732E-09  0.810E-04    9.11      24.2  T
speedup  0.93
cpu  time for SCC    0.00 s
wall time for SCC    0.01 s
speedup  0.99
cpu  time for grad    0.01 s
wall time for grad    0.01 s
 E :    -50.45599795  G :  0.011868    pred/act E change: -0.748D-03 -0.570D-03
Maxdispl :   0.1140   ||displ|| :   0.2428   Lambda : -0.489D-03
Largest |displ|/coords:  0.1140 (   3)  0.0942 (   1)  0.0852 (   4)
................................................................................
.............................. CYCLE   11 ......................................
................................................................................
   1    -50.7504426 -0.507504E+02  0.147E-01    9.13       0.0  T
   2    -50.7504508 -0.813585E-05  0.111E-01    9.13       1.0  T
   3    -50.7504559 -0.512421E-05  0.178E-02    9.12       1.1  T
   4    -50.7504572 -0.127296E-05  0.527E-03    9.12       3.7  T
   5    -50.7504572 -0.464927E-07  0.166E-03    9.12      11.8  T
   6    -50.7504572 -0.152760E-08  0.891E-04    9.12      22.0  T
speedup  0.91
cpu  time for SCC    0.01 s
wall time for SCC    0.01 s
speedup  0.92
cpu  time for grad    0.01 s
wall time for grad    0.01 s
 E :    -50.45629338  G :  0.011571    pred/act E change: -0.467D-03 -0.295D-03
Maxdispl :   0.2502   ||displ|| :   0.4956   Lambda : -0.772D-03
Largest |displ|/coords:  0.2502 (   3)  0.2169 (   1)  0.1628 (   7)
................................................................................
.............................. CYCLE   12 ......................................
................................................................................
   1    -50.7432863 -0.507433E+02  0.387E-01    9.15       0.0  T
   2    -50.7433261 -0.398339E-04  0.292E-01    9.15       1.0  T
   3    -50.7433542 -0.280829E-04  0.374E-02    9.14       1.0  T
   4    -50.7433598 -0.564035E-05  0.900E-03    9.14       2.2  T
   5    -50.7433600 -0.145358E-06  0.339E-03    9.14       5.8  T
   6    -50.7433600 -0.621466E-08  0.177E-03    9.14      11.1  T
   7    -50.7433600 -0.508349E-08  0.414E-04    9.14      47.4  T
speedup  0.97
cpu  time for SCC    0.01 s
wall time for SCC    0.01 s
speedup  1.01
cpu  time for grad    0.01 s
wall time for grad    0.01 s
 E :    -50.45635930  G :  0.031906    pred/act E change: -0.259D-03 -0.659D-04
Maxdispl :   0.0917   ||displ|| :   0.1804   Lambda : -0.140D-02
Largest |displ|/coords:  0.0917 (   4)  0.0600 (   1)  0.0580 (   3)
................................................................................
.............................. CYCLE   13 ......................................
................................................................................
   1    -50.7512908 -0.507513E+02  0.173E-01    9.18       0.0  T
   2    -50.7513109 -0.200521E-04  0.129E-01    9.18       1.0  T
   3    -50.7513223 -0.113536E-04  0.255E-02    9.19       1.0  T
   4    -50.7513248 -0.257229E-05  0.490E-03    9.19       4.0  T
   5    -50.7513249 -0.407707E-07  0.226E-03    9.19       8.7  T
speedup  1.11
cpu  time for SCC    0.01 s
wall time for SCC    0.00 s
speedup  1.00
cpu  time for grad    0.01 s
wall time for grad    0.01 s
 E :    -50.45703301  G :  0.012765    pred/act E change: -0.481D-03 -0.674D-03
Maxdispl :   0.1382   ||displ|| :   0.2811   Lambda : -0.694D-03
Largest |displ|/coords:  0.1382 (   3)  0.1102 (   8)  0.1041 (   1)
................................................................................
.............................. CYCLE   14 ......................................
................................................................................
   1    -50.7519661 -0.507520E+02  0.180E-01    9.20       0.0  T
   2    -50.7519754 -0.932959E-05  0.136E-01    9.20       1.0  T
   3    -50.7519834 -0.793812E-05  0.200E-02    9.21       1.0  T
   4    -50.7519846 -0.123134E-05  0.612E-03    9.21       3.2  T
   5    -50.7519847 -0.517473E-07  0.223E-03    9.21       8.8  T
   6    -50.7519847 -0.613436E-08  0.117E-03    9.21      16.7  T
speedup  0.94
cpu  time for SCC    0.00 s
wall time for SCC    0.01 s
speedup  0.93
cpu  time for grad    0.01 s
wall time for grad    0.01 s
 E :    -50.45737234  G :  0.011853    pred/act E change: -0.724D-03 -0.339D-03
Maxdispl :   0.2654   ||displ|| :   0.4514   Lambda : -0.734D-03
Largest |displ|/coords:  0.2654 (   3)  0.1633 (   1)  0.1063 (   7)
................................................................................
.............................. CYCLE   15 ......................................
................................................................................
   1    -50.7508054 -0.507508E+02  0.249E-01    9.27       0.0  T
   2    -50.7508190 -0.135235E-04  0.188E-01    9.26       1.0  T
   3    -50.7508300 -0.110669E-04  0.235E-02    9.26       1.0  T
   4    -50.7508317 -0.168625E-05  0.681E-03    9.26       2.9  T
   5    -50.7508318 -0.652642E-07  0.233E-03    9.26       8.4  T
   6    -50.7508318 -0.621662E-08  0.126E-03    9.26      15.6  T
speedup  0.93
cpu  time for SCC    0.00 s
wall time for SCC    0.01 s
speedup  1.01
cpu  time for grad    0.01 s
wall time for grad    0.01 s
 E :    -50.45787425  G :  0.011968    pred/act E change: -0.374D-03 -0.502D-03
Maxdispl :   0.2528   ||displ|| :   0.4232   Lambda : -0.495D-03
Largest |displ|/coords:  0.2528 (   3)  0.1081 (   1)  0.1001 (   7)
................................................................................
.............................. CYCLE   16 ......................................
................................................................................
   1    -50.7480042 -0.507480E+02  0.211E-01    9.27       0.0  T
   2    -50.7480168 -0.126449E-04  0.159E-01    9.27       1.0  T
   3    -50.7480263 -0.949278E-05  0.210E-02    9.27       1.0  T
   4    -50.7480281 -0.179466E-05  0.513E-03    9.27       3.8  T
   5    -50.7480282 -0.491189E-07  0.228E-03    9.27       8.6  T
   6    -50.7480282 -0.674967E-08  0.110E-03    9.27      17.8  T
speedup  0.94
cpu  time for SCC    0.00 s
wall time for SCC    0.01 s
speedup  1.02
cpu  time for grad    0.01 s
wall time for grad    0.01 s
 E :    -50.45815316  G :  0.015475    pred/act E change: -0.442D-03 -0.279D-03
Maxdispl :   0.1623   ||displ|| :   0.2884   Lambda : -0.532D-03
Largest |displ|/coords:  0.1623 (   3)  0.0910 (  29)  0.0744 (   8)
................................................................................
.............................. CYCLE   17 ......................................
................................................................................
   1    -50.7524146 -0.507524E+02  0.128E-01    9.30       0.0  T
   2    -50.7524198 -0.526744E-05  0.966E-02    9.30       1.0  T
   3    -50.7524241 -0.422976E-05  0.124E-02    9.28       1.6  T
   4    -50.7524248 -0.720692E-06  0.435E-03    9.29       4.5  T
   5    -50.7524248 -0.282801E-07  0.143E-03    9.29      13.7  T
   6    -50.7524248 -0.192982E-08  0.771E-04    9.29      25.5  T
speedup  1.09
cpu  time for SCC    0.01 s
wall time for SCC    0.01 s
speedup  0.99
cpu  time for grad    0.01 s
wall time for grad    0.01 s
 E :    -50.45848185  G :  0.012322    pred/act E change: -0.292D-03 -0.329D-03
Maxdispl :   0.3040   ||displ|| :   0.5067   Lambda : -0.708D-03
Largest |displ|/coords:  0.3040 (   3)  0.1821 (   8)  0.1095 (  13)
................................................................................
.............................. CYCLE   18 ......................................
................................................................................
   1    -50.7498652 -0.507499E+02  0.258E-01    9.24       0.0  T
   2    -50.7498734 -0.813305E-05  0.195E-01    9.24       1.0  T
   3    -50.7498839 -0.105483E-04  0.133E-02    9.23       1.5  T
   4    -50.7498843 -0.369032E-06  0.531E-03    9.24       3.7  T
   5    -50.7498843 -0.277186E-07  0.210E-03    9.24       9.3  T
   6    -50.7498843 -0.898706E-08  0.893E-04    9.24      22.0  T
speedup  0.94
cpu  time for SCC    0.00 s
wall time for SCC    0.01 s
speedup  1.01
cpu  time for grad    0.01 s
wall time for grad    0.01 s
 E :    -50.45891247  G :  0.016658    pred/act E change: -0.288D-03 -0.431D-03
Maxdispl :   0.2360   ||displ|| :   0.4112   Lambda : -0.792D-03
Largest |displ|/coords:  0.2360 (   3)  0.1564 (   9)  0.1050 (   8)
................................................................................
.............................. CYCLE   19 ......................................
................................................................................
   1    -50.7519447 -0.507519E+02  0.216E-01    9.25       0.0  T
   2    -50.7519535 -0.878005E-05  0.162E-01    9.25       1.0  T
   3    -50.7519598 -0.629245E-05  0.198E-02    9.24       1.0  T
   4    -50.7519610 -0.118454E-05  0.689E-03    9.25       2.8  T
   5    -50.7519610 -0.497589E-07  0.189E-03    9.25      10.4  T
   6    -50.7519610 -0.265495E-08  0.100E-03    9.25      19.6  T
speedup  0.93
cpu  time for SCC    0.00 s
wall time for SCC    0.01 s
speedup  1.00
cpu  time for grad    0.01 s
wall time for grad    0.01 s
 E :    -50.45938825  G :  0.015231    pred/act E change: -0.445D-03 -0.476D-03
Maxdispl :   0.2288   ||displ|| :   0.4542   Lambda : -0.924D-03
Largest |displ|/coords:  0.2288 (   3)  0.1896 (   9)  0.1254 (  29)
................................................................................
.............................. CYCLE   20 ......................................
................................................................................
   1    -50.7516060 -0.507516E+02  0.262E-01    9.16       0.0  T
   2    -50.7516206 -0.146106E-04  0.196E-01    9.16       1.0  T
   3    -50.7516336 -0.130192E-04  0.268E-02    9.15       1.0  T
   4    -50.7516351 -0.154076E-05  0.807E-03    9.15       2.4  T
   5    -50.7516352 -0.884533E-07  0.242E-03    9.15       8.1  T
   6    -50.7516352 -0.572853E-08  0.137E-03    9.15      14.3  T
speedup  1.11
cpu  time for SCC    0.01 s
wall time for SCC    0.01 s
speedup  1.07
cpu  time for grad    0.01 s
wall time for grad    0.01 s
 E :    -50.45996893  G :  0.015096    pred/act E change: -0.463D-03 -0.581D-03
Maxdispl :   0.2735   ||displ|| :   0.4815   Lambda : -0.842D-03
Largest |displ|/coords:  0.2735 (   3)  0.1580 (   9)  0.1577 (  10)
................................................................................
.............................. CYCLE   21 ......................................
................................................................................
   1    -50.7488485 -0.507488E+02  0.261E-01    9.12       0.0  T
   2    -50.7488584 -0.981901E-05  0.196E-01    9.12       1.0  T
   3    -50.7488692 -0.107869E-04  0.210E-02    9.13       1.0  T
   4    -50.7488699 -0.737625E-06  0.677E-03    9.13       2.9  T
   5    -50.7488699 -0.557104E-07  0.260E-03    9.13       7.5  T
   6    -50.7488700 -0.644989E-08  0.132E-03    9.13      14.8  T
speedup  1.09
cpu  time for SCC    0.01 s
wall time for SCC    0.01 s
speedup  0.99
cpu  time for grad    0.01 s
wall time for grad    0.01 s
 E :    -50.46024024  G :  0.022834    pred/act E change: -0.557D-03 -0.271D-03
Maxdispl :   0.1617   ||displ|| :   0.2891   Lambda : -0.114D-02
Largest |displ|/coords:  0.1617 (   3)  0.1117 (  10)  0.0827 (  30)
................................................................................
.............................. CYCLE   22 ......................................
................................................................................
   1    -50.7585056 -0.507585E+02  0.150E-01    9.31       0.0  T
   2    -50.7585143 -0.860713E-05  0.112E-01    9.31       1.0  T
   3    -50.7585204 -0.618200E-05  0.197E-02    9.31       1.0  T
   4    -50.7585215 -0.104458E-05  0.569E-03    9.32       3.4  T
   5    -50.7585215 -0.514639E-07  0.184E-03    9.32      10.7  T
speedup  1.11
cpu  time for SCC    0.01 s
wall time for SCC    0.00 s
speedup  1.07
cpu  time for grad    0.01 s
wall time for grad    0.01 s
 E :    -50.46077167  G :  0.016652    pred/act E change: -0.519D-03 -0.531D-03
Maxdispl :   0.2228   ||displ|| :   0.5015   Lambda : -0.117D-02
Largest |displ|/coords:  0.2228 (   3)  0.1835 (  10)  0.1721 (   8)
................................................................................
.............................. CYCLE   23 ......................................
................................................................................
   1    -50.7480895 -0.507481E+02  0.283E-01    9.03       0.0  T
   2    -50.7481202 -0.307141E-04  0.212E-01    9.03       1.0  T
   3    -50.7481407 -0.205405E-04  0.344E-02    9.02       1.0  T
   4    -50.7481449 -0.413959E-05  0.123E-02    9.02       1.6  T
   5    -50.7481451 -0.227341E-06  0.346E-03    9.02       5.7  T
   6    -50.7481451 -0.123897E-07  0.196E-03    9.02      10.0  T
   7    -50.7481451 -0.638299E-08  0.610E-04    9.02      32.2  T
speedup  0.97
cpu  time for SCC    0.01 s
wall time for SCC    0.01 s
speedup  1.01
cpu  time for grad    0.01 s
wall time for grad    0.01 s
 E :    -50.46019144  G :  0.037185    pred/act E change: -0.615D-03  0.580D-03
Maxdispl :   0.0876   ||displ|| :   0.1987   Lambda : -0.232D-02
Largest |displ|/coords:  0.0876 (   8)  0.0807 (  12)  0.0697 (   3)
................................................................................
.............................. CYCLE   24 ......................................
................................................................................
   1    -50.7575821 -0.507576E+02  0.164E-01    9.24       0.0  T
   2    -50.7576020 -0.198859E-04  0.122E-01    9.25       1.0  T
   3    -50.7576176 -0.156675E-04  0.280E-02    9.27       1.0  T
   4    -50.7576196 -0.201098E-05  0.919E-03    9.27       2.1  T
   5    -50.7576198 -0.154338E-06  0.285E-03    9.27       6.9  T
   6    -50.7576198 -0.744378E-08  0.142E-03    9.27      13.8  T
speedup  1.11
cpu  time for SCC    0.01 s
wall time for SCC    0.01 s
speedup  1.07
cpu  time for grad    0.01 s
wall time for grad    0.01 s
 E :    -50.46110480  G :  0.018075    pred/act E change: -0.730D-03 -0.913D-03
Maxdispl :   0.1413   ||displ|| :   0.3228   Lambda : -0.180D-02
Largest |displ|/coords:  0.1413 (  19)  0.1302 (  22)  0.1007 (  12)
................................................................................
.............................. CYCLE   25 ......................................
................................................................................
   1    -50.7533976 -0.507534E+02  0.234E-01    9.43       0.0  T
   2    -50.7534241 -0.264537E-04  0.174E-01    9.43       1.0  T
   3    -50.7534443 -0.201972E-04  0.305E-02    9.43       1.0  T
   4    -50.7534473 -0.304567E-05  0.735E-03    9.43       2.7  T
   5    -50.7534474 -0.585563E-07  0.367E-03    9.43       5.3  T
   6    -50.7534474 -0.205086E-07  0.144E-03    9.43      13.6  T
   7    -50.7534474 -0.336809E-08  0.427E-04    9.43      46.0  T
speedup  0.94
cpu  time for SCC    0.01 s
wall time for SCC    0.01 s
speedup  1.00
cpu  time for grad    0.01 s
wall time for grad    0.01 s
 E :    -50.46008413  G :  0.038159    pred/act E change: -0.121D-02  0.102D-02
Maxdispl :   0.0929   ||displ|| :   0.2226   Lambda : -0.289D-02
Largest |displ|/coords:  0.0929 (  10)  0.0890 (  19)  0.0659 (  16)

generating ANC from model Hessian ...
 Shifting diagonal of input Hessian by   5.149050549112126E-003
 Lowest  eigenvalues of input Hessian
    0.005000   -0.000000   -0.000000   -0.000000    0.000000    0.000000
    0.000000    0.005373    0.005464    0.005792    0.006144    0.006490
    0.007358    0.007501    0.007778    0.008427    0.009034    0.009859
 Highest eigenvalues
    1.405591    1.412630    1.414554    2.586693    3.581641    3.600894
 
cpu  time for ANC gen    0.01 s
wall time for ANC gen    0.01 s
................................................................................
.............................. CYCLE   26 ......................................
................................................................................
   1    -50.7575595 -0.507576E+02  0.159E-01    9.35       0.0  T
   2    -50.7575748 -0.152337E-04  0.117E-01    9.35       1.0  T
   3    -50.7575833 -0.852663E-05  0.222E-02    9.35       1.0  T
   4    -50.7575851 -0.177103E-05  0.500E-03    9.35       3.9  T
   5    -50.7575851 -0.235631E-07  0.216E-03    9.35       9.1  T
   6    -50.7575851 -0.340732E-08  0.985E-04    9.35      19.9  T
   7    -50.7575851 -0.129936E-08  0.258E-04    9.35      76.0  T
speedup  0.98
cpu  time for SCC    0.01 s
wall time for SCC    0.01 s
speedup  1.04
cpu  time for grad    0.01 s
wall time for grad    0.01 s
 E :    -50.46156771  G :  0.012785    pred/act E change:  0.000D+00 -0.148D-02
Maxdispl :   0.1408   ||displ|| :   0.2612   Lambda : -0.805D-03
Largest |displ|/coords:  0.1408 (   4)  0.1378 (   6)  0.0767 (   1)
................................................................................
.............................. CYCLE   27 ......................................
................................................................................
   1    -50.7549911 -0.507550E+02  0.244E-01    9.34       0.0  T
   2    -50.7550005 -0.934911E-05  0.186E-01    9.34       1.0  T
   3    -50.7550120 -0.115252E-04  0.138E-02    9.34       1.4  T
   4    -50.7550125 -0.503175E-06  0.594E-03    9.34       3.3  T
   5    -50.7550126 -0.330795E-07  0.198E-03    9.34       9.9  T
   6    -50.7550126 -0.378270E-08  0.102E-03    9.34      19.2  T
speedup  0.93
cpu  time for SCC    0.00 s
wall time for SCC    0.01 s
speedup  0.99
cpu  time for grad    0.01 s
wall time for grad    0.01 s
 E :    -50.46202137  G :  0.007287    pred/act E change:  0.000D+00 -0.454D-03
Maxdispl :   0.1475   ||displ|| :   0.2741   Lambda : -0.540D-03
Largest |displ|/coords:  0.1475 (   6)  0.1136 (   3)  0.0742 (  13)
................................................................................
.............................. CYCLE   28 ......................................
................................................................................
   1    -50.7530231 -0.507530E+02  0.182E-01    9.31       0.0  T
   2    -50.7530277 -0.459579E-05  0.137E-01    9.31       1.0  T
   3    -50.7530322 -0.447187E-05  0.116E-02    9.31       1.7  T
   4    -50.7530327 -0.476158E-06  0.507E-03    9.31       3.9  T
   5    -50.7530327 -0.241650E-07  0.144E-03    9.31      13.6  T
   6    -50.7530327 -0.215341E-08  0.813E-04    9.31      24.1  T
speedup  0.93
cpu  time for SCC    0.00 s
wall time for SCC    0.01 s
speedup  0.99
cpu  time for grad    0.01 s
wall time for grad    0.01 s
 E :    -50.46234064  G :  0.010498    pred/act E change: -0.430D-03 -0.319D-03
Maxdispl :   0.1626   ||displ|| :   0.2807   Lambda : -0.409D-03
Largest |displ|/coords:  0.1626 (   3)  0.1308 (   6)  0.0846 (   5)
................................................................................
.............................. CYCLE   29 ......................................
................................................................................
   1    -50.7540787 -0.507541E+02  0.131E-01    9.29       0.0  T
   2    -50.7540822 -0.349891E-05  0.988E-02    9.29       1.0  T
   3    -50.7540849 -0.267372E-05  0.105E-02    9.28       1.9  T
   4    -50.7540854 -0.481712E-06  0.342E-03    9.28       5.7  T
   5    -50.7540854 -0.150188E-07  0.118E-03    9.28      16.7  T
   6    -50.7540854 -0.137413E-08  0.653E-04    9.28      30.1  T
speedup  0.94
cpu  time for SCC    0.00 s
wall time for SCC    0.01 s
speedup  0.99
cpu  time for grad    0.01 s
wall time for grad    0.01 s
 E :    -50.46258016  G :  0.008747    pred/act E change: -0.290D-03 -0.240D-03
Maxdispl :   0.2147   ||displ|| :   0.3590   Lambda : -0.381D-03
Largest |displ|/coords:  0.2147 (   3)  0.1438 (   6)  0.1091 (  13)
................................................................................
.............................. CYCLE   30 ......................................
................................................................................
   1    -50.7549193 -0.507549E+02  0.155E-01    9.27       0.0  T
   2    -50.7549266 -0.732129E-05  0.118E-01    9.27       1.0  T
   3    -50.7549328 -0.615404E-05  0.152E-02    9.26       1.3  T
   4    -50.7549337 -0.964502E-06  0.564E-03    9.27       3.5  T
   5    -50.7549338 -0.583402E-07  0.165E-03    9.27      11.9  T
   6    -50.7549338 -0.273184E-08  0.100E-03    9.27      19.6  T
speedup  1.13
cpu  time for SCC    0.01 s
wall time for SCC    0.01 s
speedup  0.99
cpu  time for grad    0.01 s
wall time for grad    0.01 s
 E :    -50.46283000  G :  0.008041    pred/act E change: -0.221D-03 -0.250D-03
Maxdispl :   0.1889   ||displ|| :   0.3508   Lambda : -0.293D-03
Largest |displ|/coords:  0.1889 (   3)  0.1313 (   6)  0.1223 (  11)
................................................................................
.............................. CYCLE   31 ......................................
................................................................................
   1    -50.7553085 -0.507553E+02  0.151E-01    9.27       0.0  T
   2    -50.7553132 -0.475491E-05  0.115E-01    9.27       1.0  T
   3    -50.7553184 -0.518331E-05  0.110E-02    9.27       1.8  T
   4    -50.7553188 -0.442347E-06  0.464E-03    9.27       4.2  T
   5    -50.7553189 -0.281240E-07  0.151E-03    9.27      13.0  T
   6    -50.7553189 -0.258601E-08  0.885E-04    9.27      22.2  T
speedup  0.94
cpu  time for SCC    0.01 s
wall time for SCC    0.01 s
speedup  0.99
cpu  time for grad    0.01 s
wall time for grad    0.01 s
 E :    -50.46300279  G :  0.008538    pred/act E change: -0.215D-03 -0.173D-03
Maxdispl :   0.1735   ||displ|| :   0.2587   Lambda : -0.215D-03
Largest |displ|/coords:  0.1735 (   3)  0.0841 (  11)  0.0663 (   5)
................................................................................
.............................. CYCLE   32 ......................................
................................................................................
   1    -50.7579607 -0.507580E+02  0.910E-02    9.30       0.0  T
   2    -50.7579634 -0.266390E-05  0.684E-02    9.30       1.0  T
   3    -50.7579655 -0.214577E-05  0.974E-03    9.31       2.0  T
   4    -50.7579659 -0.343071E-06  0.300E-03    9.31       6.5  T
   5    -50.7579659 -0.199199E-07  0.113E-03    9.31      17.3  T
   6    -50.7579659 -0.130164E-08  0.609E-04    9.31      32.2  T
speedup  0.93
cpu  time for SCC    0.00 s
wall time for SCC    0.01 s
speedup  0.98
cpu  time for grad    0.01 s
wall time for grad    0.01 s
 E :    -50.46312385  G :  0.007556    pred/act E change: -0.165D-03 -0.121D-03
Maxdispl :   0.1885   ||displ|| :   0.3015   Lambda : -0.183D-03
Largest |displ|/coords:  0.1885 (   3)  0.1126 (  11)  0.0973 (   4)
................................................................................
.............................. CYCLE   33 ......................................
................................................................................
   1    -50.7561024 -0.507561E+02  0.131E-01    9.31       0.0  T
   2    -50.7561054 -0.298795E-05  0.992E-02    9.31       1.0  T
   3    -50.7561090 -0.363995E-05  0.876E-03    9.31       2.2  T
   4    -50.7561092 -0.227441E-06  0.359E-03    9.31       5.5  T
   5    -50.7561093 -0.176982E-07  0.128E-03    9.31      15.3  T
   6    -50.7561093 -0.230136E-08  0.582E-04    9.31      33.7  T
speedup  0.93
cpu  time for SCC    0.00 s
wall time for SCC    0.01 s
speedup  0.98
cpu  time for grad    0.01 s
wall time for grad    0.01 s
 E :    -50.46322904  G :  0.006326    pred/act E change: -0.115D-03 -0.105D-03
Maxdispl :   0.1403   ||displ|| :   0.2284   Lambda : -0.174D-03
Largest |displ|/coords:  0.1403 (   3)  0.0869 (  11)  0.0640 (   9)
................................................................................
.............................. CYCLE   34 ......................................
................................................................................
   1    -50.7573603 -0.507574E+02  0.117E-01    9.34       0.0  T
   2    -50.7573636 -0.322052E-05  0.877E-02    9.33       1.0  T
   3    -50.7573661 -0.255745E-05  0.103E-02    9.33       1.9  T
   4    -50.7573665 -0.427343E-06  0.354E-03    9.33       5.5  T
   5    -50.7573666 -0.189272E-07  0.122E-03    9.33      16.1  T
   6    -50.7573666 -0.199969E-08  0.719E-04    9.33      27.3  T
speedup  1.11
cpu  time for SCC    0.01 s
wall time for SCC    0.01 s
speedup  1.06
cpu  time for grad    0.01 s
wall time for grad    0.01 s
 E :    -50.46331629  G :  0.004984    pred/act E change: -0.100D-03 -0.873D-04
Maxdispl :   0.1814   ||displ|| :   0.2427   Lambda : -0.122D-03
Largest |displ|/coords:  0.1814 (   3)  0.1033 (  11)  0.0528 (   9)
................................................................................
.............................. CYCLE   35 ......................................
................................................................................
   1    -50.7565499 -0.507565E+02  0.101E-01    9.31       0.0  T
   2    -50.7565515 -0.156295E-05  0.755E-02    9.31       1.0  T
   3    -50.7565532 -0.167337E-05  0.828E-03    9.31       2.4  T
   4    -50.7565533 -0.147492E-06  0.249E-03    9.31       7.9  T
   5    -50.7565533 -0.104178E-07  0.101E-03    9.31      19.5  T
speedup  1.11
cpu  time for SCC    0.00 s
wall time for SCC    0.00 s
speedup  1.05
cpu  time for grad    0.01 s
wall time for grad    0.01 s
 E :    -50.46339460  G :  0.005830    pred/act E change: -0.916D-04 -0.783D-04
Maxdispl :   0.1470   ||displ|| :   0.2348   Lambda : -0.157D-03
Largest |displ|/coords:  0.1470 (   3)  0.0909 (  11)  0.0682 (   9)
................................................................................
.............................. CYCLE   36 ......................................
................................................................................
   1    -50.7573792 -0.507574E+02  0.102E-01    9.32       0.0  T
   2    -50.7573808 -0.166707E-05  0.758E-02    9.32       1.0  T
   3    -50.7573823 -0.147097E-05  0.103E-02    9.32       1.9  T
   4    -50.7573825 -0.181242E-06  0.290E-03    9.32       6.8  T
   5    -50.7573825 -0.131128E-07  0.112E-03    9.32      17.5  T
speedup  1.11
cpu  time for SCC    0.00 s
wall time for SCC    0.00 s
speedup  1.03
cpu  time for grad    0.01 s
wall time for grad    0.01 s
 E :    -50.46349410  G :  0.005843    pred/act E change: -0.644D-04 -0.995D-04
Maxdispl :   0.2719   ||displ|| :   0.3664   Lambda : -0.157D-03
Largest |displ|/coords:  0.2719 (   3)  0.1260 (  11)  0.0844 (  17)
................................................................................
.............................. CYCLE   37 ......................................
................................................................................
   1    -50.7558648 -0.507559E+02  0.177E-01    9.29       0.0  T
   2    -50.7558683 -0.349278E-05  0.132E-01    9.29       1.0  T
   3    -50.7558719 -0.352573E-05  0.144E-02    9.29       1.4  T
   4    -50.7558722 -0.340107E-06  0.415E-03    9.29       4.7  T
   5    -50.7558722 -0.267573E-07  0.165E-03    9.29      11.9  T
   6    -50.7558722 -0.350126E-08  0.905E-04    9.29      21.7  T
speedup  0.94
cpu  time for SCC    0.00 s
wall time for SCC    0.01 s
speedup  0.98
cpu  time for grad    0.01 s
wall time for grad    0.01 s
 E :    -50.46359479  G :  0.007638    pred/act E change: -0.827D-04 -0.101D-03
Maxdispl :   0.0917   ||displ|| :   0.1675   Lambda : -0.148D-03
Largest |displ|/coords:  0.0917 (   3)  0.0686 (   7)  0.0674 (   6)
................................................................................
.............................. CYCLE   38 ......................................
................................................................................
   1    -50.7571332 -0.507571E+02  0.111E-01    9.29       0.0  T
   2    -50.7571354 -0.218659E-05  0.831E-02    9.29       1.0  T
   3    -50.7571375 -0.206302E-05  0.121E-02    9.29       1.6  T
   4    -50.7571377 -0.240991E-06  0.377E-03    9.29       5.2  T
   5    -50.7571377 -0.173252E-07  0.126E-03    9.29      15.6  T
   6    -50.7571377 -0.173471E-08  0.758E-04    9.29      25.9  T
speedup  1.11
cpu  time for SCC    0.01 s
wall time for SCC    0.01 s
speedup  1.04
cpu  time for grad    0.01 s
wall time for grad    0.01 s
 E :    -50.46367657  G :  0.007928    pred/act E change: -0.893D-04 -0.818D-04
Maxdispl :   0.1395   ||displ|| :   0.1688   Lambda : -0.991D-04
Largest |displ|/coords:  0.1395 (   3)  0.0400 (  12)  0.0383 (  11)
................................................................................
.............................. CYCLE   39 ......................................
................................................................................
   1    -50.7570526 -0.507571E+02  0.957E-02    9.29       0.0  T
   2    -50.7570537 -0.103148E-05  0.718E-02    9.29       1.0  T
   3    -50.7570546 -0.920834E-06  0.717E-03    9.29       2.7  T
   4    -50.7570547 -0.124962E-06  0.211E-03    9.29       9.3  T
   5    -50.7570547 -0.620796E-08  0.875E-04    9.29      22.4  T
speedup  0.87
cpu  time for SCC    0.00 s
wall time for SCC    0.00 s
speedup  0.97
cpu  time for grad    0.01 s
wall time for grad    0.01 s
 E :    -50.46374959  G :  0.008255    pred/act E change: -0.759D-04 -0.730D-04
Maxdispl :   0.1479   ||displ|| :   0.2058   Lambda : -0.215D-03
Largest |displ|/coords:  0.1479 (   3)  0.0586 (   8)  0.0468 (   9)
................................................................................
.............................. CYCLE   40 ......................................
................................................................................
   1    -50.7590054 -0.507590E+02  0.964E-02    9.32       0.0  T
   2    -50.7590089 -0.350349E-05  0.718E-02    9.32       1.0  T
   3    -50.7590114 -0.248640E-05  0.125E-02    9.31       1.6  T
   4    -50.7590118 -0.433679E-06  0.409E-03    9.31       4.8  T
   5    -50.7590119 -0.301099E-07  0.142E-03    9.31      13.8  T
   6    -50.7590119 -0.250242E-08  0.776E-04    9.31      25.3  T
speedup  1.11
cpu  time for SCC    0.01 s
wall time for SCC    0.01 s
speedup  1.05
cpu  time for grad    0.01 s
wall time for grad    0.01 s
 E :    -50.46377454  G :  0.009578    pred/act E change: -0.510D-04 -0.249D-04
Maxdispl :   0.2345   ||displ|| :   0.3038   Lambda : -0.299D-03
Largest |displ|/coords:  0.2345 (   3)  0.0831 (  12)  0.0777 (   6)
................................................................................
.............................. CYCLE   41 ......................................
................................................................................
   1    -50.7565713 -0.507566E+02  0.224E-01    9.30       0.0  T
   2    -50.7565763 -0.503370E-05  0.169E-01    9.30       1.0  T
   3    -50.7565820 -0.569469E-05  0.138E-02    9.30       1.4  T
   4    -50.7565824 -0.313278E-06  0.456E-03    9.30       4.3  T
   5    -50.7565824 -0.229209E-07  0.188E-03    9.30      10.4  T
   6    -50.7565824 -0.405058E-08  0.931E-04    9.30      21.1  T
speedup  1.11
cpu  time for SCC    0.01 s
wall time for SCC    0.01 s
speedup  1.04
cpu  time for grad    0.01 s
wall time for grad    0.01 s
 E :    -50.46378880  G :  0.017862    pred/act E change: -0.112D-03 -0.143D-04
Maxdispl :   0.1274   ||displ|| :   0.1753   Lambda : -0.352D-03
Largest |displ|/coords:  0.1274 (   3)  0.0519 (  12)  0.0354 (   7)
................................................................................
.............................. CYCLE   42 ......................................
................................................................................
   1    -50.7588070 -0.507588E+02  0.142E-01    9.31       0.0  T
   2    -50.7588106 -0.362225E-05  0.107E-01    9.31       1.0  T
   3    -50.7588137 -0.314770E-05  0.118E-02    9.31       1.7  T
   4    -50.7588142 -0.410858E-06  0.283E-03    9.31       6.9  T
   5    -50.7588142 -0.856486E-08  0.151E-03    9.31      13.0  T
speedup  1.11
cpu  time for SCC    0.00 s
wall time for SCC    0.00 s
speedup  1.05
cpu  time for grad    0.01 s
wall time for grad    0.01 s
 E :    -50.46390932  G :  0.004252    pred/act E change: -0.164D-03 -0.121D-03
Maxdispl :   0.0770   ||displ|| :   0.1050   Lambda : -0.619D-04
Largest |displ|/coords:  0.0770 (   3)  0.0442 (   4)  0.0256 (  12)
................................................................................
.............................. CYCLE   43 ......................................
................................................................................
   1    -50.7581973 -0.507582E+02  0.619E-02    9.31       0.0  T
   2    -50.7581979 -0.550773E-06  0.466E-02    9.31       1.0  T
   3    -50.7581984 -0.525454E-06  0.483E-03    9.31       4.1  T
   4    -50.7581985 -0.657172E-07  0.137E-03    9.31      14.3  T
   5    -50.7581985 -0.304369E-08  0.656E-04    9.31      29.9  T
speedup  1.06
cpu  time for SCC    0.00 s
wall time for SCC    0.00 s
speedup  0.95
cpu  time for grad    0.01 s
wall time for grad    0.01 s
 E :    -50.46394999  G :  0.004226    pred/act E change: -0.181D-03 -0.407D-04
Maxdispl :   0.1717   ||displ|| :   0.2335   Lambda : -0.121D-03
Largest |displ|/coords:  0.1717 (   3)  0.0628 (   6)  0.0589 (  12)
................................................................................
.............................. CYCLE   44 ......................................
................................................................................
   1    -50.7582343 -0.507582E+02  0.165E-01    9.33       0.0  T
   2    -50.7582366 -0.225795E-05  0.124E-01    9.33       1.0  T
   3    -50.7582391 -0.255801E-05  0.967E-03    9.33       2.0  T
   4    -50.7582393 -0.166258E-06  0.344E-03    9.33       5.7  T
   5    -50.7582393 -0.114074E-07  0.128E-03    9.33      15.3  T
   6    -50.7582393 -0.195784E-08  0.660E-04    9.33      29.7  T
speedup  0.94
cpu  time for SCC    0.00 s
wall time for SCC    0.01 s
speedup  0.98
cpu  time for grad    0.01 s
wall time for grad    0.01 s
 E :    -50.46401735  G :  0.010173    pred/act E change: -0.313D-04 -0.674D-04
Maxdispl :   0.0761   ||displ|| :   0.0976   Lambda : -0.803D-04
Largest |displ|/coords:  0.0761 (   3)  0.0240 (   8)  0.0236 (   4)
................................................................................
.............................. CYCLE   45 ......................................
................................................................................
   1    -50.7586346 -0.507586E+02  0.436E-02    9.32       0.0  T
   2    -50.7586349 -0.305976E-06  0.327E-02    9.32       1.0  T
   3    -50.7586351 -0.204630E-06  0.366E-03    9.32       5.4  T
   4    -50.7586352 -0.470057E-07  0.116E-03    9.32      16.9  T
   5    -50.7586352 -0.257464E-08  0.409E-04    9.32      47.9  T
speedup  1.11
cpu  time for SCC    0.00 s
wall time for SCC    0.00 s
speedup  0.97
cpu  time for grad    0.01 s
wall time for grad    0.01 s
 E :    -50.46408476  G :  0.007118    pred/act E change: -0.640D-04 -0.674D-04
Maxdispl :   0.2060   ||displ|| :   0.2956   Lambda : -0.201D-03
Largest |displ|/coords:  0.2060 (   3)  0.0839 (   4)  0.0683 (   2)
................................................................................
.............................. CYCLE   46 ......................................
................................................................................
   1    -50.7602881 -0.507603E+02  0.169E-01    9.32       0.0  T
   2    -50.7602912 -0.313035E-05  0.127E-01    9.32       1.0  T
   3    -50.7602938 -0.256350E-05  0.115E-02    9.32       1.7  T
   4    -50.7602942 -0.428780E-06  0.442E-03    9.32       4.4  T
   5    -50.7602942 -0.208820E-07  0.133E-03    9.32      14.7  T
   6    -50.7602942 -0.162306E-08  0.755E-04    9.32      26.0  T
speedup  0.91
cpu  time for SCC    0.01 s
wall time for SCC    0.01 s
speedup  0.97
cpu  time for grad    0.01 s
wall time for grad    0.01 s
 E :    -50.46421660  G :  0.006875    pred/act E change: -0.405D-04 -0.132D-03
Maxdispl :   0.1542   ||displ|| :   0.2274   Lambda : -0.137D-03
Largest |displ|/coords:  0.1542 (   3)  0.0722 (   4)  0.0648 (   8)
................................................................................
.............................. CYCLE   47 ......................................
................................................................................
   1    -50.7607161 -0.507607E+02  0.118E-01    9.32       0.0  T
   2    -50.7607176 -0.151926E-05  0.891E-02    9.31       1.0  T
   3    -50.7607188 -0.115233E-05  0.721E-03    9.31       2.7  T
   4    -50.7607190 -0.216269E-06  0.274E-03    9.31       7.2  T
   5    -50.7607190 -0.106313E-07  0.847E-04    9.31      23.2  T
speedup  1.11
cpu  time for SCC    0.00 s
wall time for SCC    0.00 s
speedup  0.97
cpu  time for grad    0.01 s
wall time for grad    0.01 s
 E :    -50.46431773  G :  0.004500    pred/act E change: -0.109D-03 -0.101D-03
Maxdispl :   0.4475   ||displ|| :   0.5839   Lambda : -0.203D-03
Largest |displ|/coords:  0.4475 (   3)  0.1729 (   4)  0.1382 (  12)
................................................................................
.............................. CYCLE   48 ......................................
................................................................................
   1    -50.7552045 -0.507552E+02  0.284E-01    9.29       0.0  T
   2    -50.7552143 -0.975514E-05  0.213E-01    9.28       1.0  T
   3    -50.7552211 -0.681872E-05  0.198E-02    9.28       1.0  T
   4    -50.7552225 -0.143314E-05  0.665E-03    9.28       3.0  T
   5    -50.7552226 -0.792975E-07  0.259E-03    9.28       7.6  T
   6    -50.7552226 -0.533254E-08  0.137E-03    9.28      14.4  T
speedup  1.11
cpu  time for SCC    0.01 s
wall time for SCC    0.01 s
speedup  0.98
cpu  time for grad    0.01 s
wall time for grad    0.01 s
 E :    -50.46403760  G :  0.025625    pred/act E change: -0.723D-04  0.280D-03
Maxdispl :   0.1323   ||displ|| :   0.1876   Lambda : -0.109D-02
Largest |displ|/coords:  0.1323 (   3)  0.0686 (   5)  0.0442 (  12)
................................................................................
.............................. CYCLE   49 ......................................
................................................................................
   1    -50.7609655 -0.507610E+02  0.119E-01    9.29       0.0  T
   2    -50.7609761 -0.105778E-04  0.884E-02    9.29       1.0  T
   3    -50.7609836 -0.746995E-05  0.198E-02    9.30       1.0  T
   4    -50.7609847 -0.110388E-05  0.651E-03    9.29       3.0  T
   5    -50.7609848 -0.921213E-07  0.230E-03    9.29       8.5  T
   6    -50.7609848 -0.487980E-08  0.121E-03    9.29      16.2  T
speedup  0.93
cpu  time for SCC    0.00 s
wall time for SCC    0.01 s
speedup  0.98
cpu  time for grad    0.01 s
wall time for grad    0.01 s
 E :    -50.46440762  G :  0.010820    pred/act E change: -0.136D-03 -0.370D-03
Maxdispl :   0.1398   ||displ|| :   0.2425   Lambda : -0.312D-03
Largest |displ|/coords:  0.1398 (   3)  0.1219 (  11)  0.0673 (  10)
................................................................................
.............................. CYCLE   50 ......................................
................................................................................
   1    -50.7625042 -0.507625E+02  0.119E-01    9.32       0.0  T
   2    -50.7625093 -0.515469E-05  0.902E-02    9.32       1.0  T
   3    -50.7625150 -0.563723E-05  0.128E-02    9.32       1.5  T
   4    -50.7625154 -0.427468E-06  0.479E-03    9.32       4.1  T
   5    -50.7625154 -0.332249E-07  0.144E-03    9.32      13.6  T
   6    -50.7625154 -0.234390E-08  0.773E-04    9.32      25.4  T
speedup  0.93
cpu  time for SCC    0.00 s
wall time for SCC    0.01 s
speedup  0.98
cpu  time for grad    0.01 s
wall time for grad    0.01 s
 E :    -50.46437827  G :  0.013563    pred/act E change: -0.564D-03  0.293D-04
Maxdispl :   0.1327   ||displ|| :   0.1785   Lambda : -0.285D-03
Largest |displ|/coords:  0.1327 (   3)  0.0566 (   4)  0.0465 (  11)
................................................................................
.............................. CYCLE   51 ......................................
................................................................................
   1    -50.7602920 -0.507603E+02  0.692E-02    9.31       0.0  T
   2    -50.7602933 -0.123983E-05  0.520E-02    9.31       1.0  T
   3    -50.7602944 -0.117816E-05  0.645E-03    9.31       3.0  T
   4    -50.7602946 -0.133515E-06  0.252E-03    9.31       7.8  T
   5    -50.7602946 -0.100418E-07  0.912E-04    9.31      21.5  T
speedup  1.11
cpu  time for SCC    0.00 s
wall time for SCC    0.00 s
speedup  1.05
cpu  time for grad    0.01 s
wall time for grad    0.01 s
 E :    -50.46454262  G :  0.004574    pred/act E change: -0.165D-03 -0.164D-03
Maxdispl :   0.1150   ||displ|| :   0.1624   Lambda : -0.693D-04
Largest |displ|/coords:  0.1150 (   3)  0.0464 (   9)  0.0446 (   4)
................................................................................
.............................. CYCLE   52 ......................................
................................................................................
   1    -50.7595498 -0.507595E+02  0.795E-02    9.29       0.0  T
   2    -50.7595503 -0.575337E-06  0.596E-02    9.29       1.0  T
   3    -50.7595508 -0.504193E-06  0.486E-03    9.28       4.0  T
   4    -50.7595509 -0.650126E-07  0.194E-03    9.29      10.1  T
   5    -50.7595509 -0.497756E-08  0.630E-04    9.29      31.1  T
speedup  1.11
cpu  time for SCC    0.00 s
wall time for SCC    0.00 s
speedup  1.05
cpu  time for grad    0.01 s
wall time for grad    0.01 s
 E :    -50.46458919  G :  0.006023    pred/act E change: -0.147D-03 -0.466D-04
Maxdispl :   0.0991   ||displ|| :   0.1576   Lambda : -0.814D-04
Largest |displ|/coords:  0.0991 (   3)  0.0567 (   9)  0.0504 (  47)

generating ANC from model Hessian ...
 Shifting diagonal of input Hessian by   5.056181971048304E-003
 Lowest  eigenvalues of input Hessian
    0.005000   -0.000000   -0.000000   -0.000000   -0.000000    0.000000
    0.000000    0.005317    0.005404    0.005880    0.006298    0.006730
    0.007328    0.007447    0.008608    0.009032    0.009762    0.010398
 Highest eigenvalues
    1.402363    1.404994    1.421844    2.520524    3.580830    3.598197
 
cpu  time for ANC gen    0.02 s
wall time for ANC gen    0.02 s
................................................................................
.............................. CYCLE   53 ......................................
................................................................................
   1    -50.7590523 -0.507591E+02  0.928E-02    9.28       0.0  T
   2    -50.7590531 -0.763885E-06  0.697E-02    9.28       1.0  T
   3    -50.7590539 -0.861636E-06  0.552E-03    9.27       3.6  T
   4    -50.7590540 -0.530271E-07  0.170E-03    9.27      11.6  T
   5    -50.7590540 -0.374616E-08  0.761E-04    9.27      25.8  T
   6    -50.7590540 -0.106211E-08  0.403E-04    9.27      48.6  T
speedup  0.93
cpu  time for SCC    0.01 s
wall time for SCC    0.01 s
speedup  1.01
cpu  time for grad    0.01 s
wall time for grad    0.01 s
 E :    -50.46465186  G :  0.005685    pred/act E change:  0.000D+00 -0.627D-04
Maxdispl :   0.0805   ||displ|| :   0.1544   Lambda : -0.272D-03
Largest |displ|/coords:  0.0805 (  12)  0.0587 (   7)  0.0534 (   9)
................................................................................
.............................. CYCLE   54 ......................................
................................................................................
   1    -50.7591130 -0.507591E+02  0.191E-01    9.28       0.0  T
   2    -50.7591190 -0.601281E-05  0.145E-01    9.28       1.0  T
   3    -50.7591256 -0.662297E-05  0.119E-02    9.28       1.6  T
   4    -50.7591261 -0.474404E-06  0.389E-03    9.28       5.0  T
   5    -50.7591261 -0.891031E-08  0.131E-03    9.28      15.0  T
   6    -50.7591261 -0.628056E-09  0.477E-04    9.28      41.1  T
speedup  1.11
cpu  time for SCC    0.01 s
wall time for SCC    0.01 s
speedup  1.05
cpu  time for grad    0.01 s
wall time for grad    0.01 s
 E :    -50.46480795  G :  0.008836    pred/act E change:  0.000D+00 -0.156D-03
Maxdispl :   0.0406   ||displ|| :   0.1031   Lambda : -0.136D-03
Largest |displ|/coords:  0.0406 (   1)  0.0399 (   7)  0.0365 (   9)
................................................................................
.............................. CYCLE   55 ......................................
................................................................................
   1    -50.7597839 -0.507598E+02  0.954E-02    9.30       0.0  T
   2    -50.7597849 -0.101267E-05  0.723E-02    9.30       1.0  T
   3    -50.7597860 -0.116876E-05  0.487E-03    9.30       4.0  T
   4    -50.7597861 -0.620523E-07  0.203E-03    9.30       9.7  T
   5    -50.7597861 -0.283896E-08  0.657E-04    9.30      29.9  T
speedup  1.14
cpu  time for SCC    0.00 s
wall time for SCC    0.00 s
speedup  1.04
cpu  time for grad    0.01 s
wall time for grad    0.01 s
 E :    -50.46491506  G :  0.007684    pred/act E change: -0.139D-03 -0.107D-03
Maxdispl :   0.1165   ||displ|| :   0.2419   Lambda : -0.262D-03
Largest |displ|/coords:  0.1165 (   7)  0.1094 (   9)  0.0919 (   1)
................................................................................
.............................. CYCLE   56 ......................................
................................................................................
   1    -50.7604333 -0.507604E+02  0.204E-01    9.32       0.0  T
   2    -50.7604371 -0.377817E-05  0.154E-01    9.32       1.0  T
   3    -50.7604411 -0.399115E-05  0.118E-02    9.32       1.7  T
   4    -50.7604414 -0.313329E-06  0.457E-03    9.32       4.3  T
   5    -50.7604414 -0.154045E-07  0.147E-03    9.32      13.3  T
   6    -50.7604414 -0.184813E-08  0.800E-04    9.32      24.5  T
speedup  0.93
cpu  time for SCC    0.00 s
wall time for SCC    0.01 s
speedup  0.98
cpu  time for grad    0.01 s
wall time for grad    0.01 s
 E :    -50.46509845  G :  0.007837    pred/act E change: -0.686D-04 -0.183D-03
Maxdispl :   0.1088   ||displ|| :   0.2294   Lambda : -0.228D-03
Largest |displ|/coords:  0.1088 (   7)  0.1028 (   1)  0.0887 (   9)
................................................................................
.............................. CYCLE   57 ......................................
................................................................................
   1    -50.7612506 -0.507613E+02  0.178E-01    9.32       0.0  T
   2    -50.7612537 -0.314127E-05  0.134E-01    9.32       1.0  T
   3    -50.7612569 -0.318651E-05  0.119E-02    9.32       1.6  T
   4    -50.7612572 -0.263376E-06  0.414E-03    9.32       4.7  T
   5    -50.7612572 -0.154349E-07  0.125E-03    9.32      15.6  T
   6    -50.7612572 -0.132000E-08  0.720E-04    9.32      27.2  T
speedup  1.13
cpu  time for SCC    0.01 s
wall time for SCC    0.01 s
speedup  1.06
cpu  time for grad    0.01 s
wall time for grad    0.01 s
 E :    -50.46524760  G :  0.005877    pred/act E change: -0.139D-03 -0.149D-03
Maxdispl :   0.2850   ||displ|| :   0.5396   Lambda : -0.418D-03
Largest |displ|/coords:  0.2850 (   7)  0.2219 (   9)  0.1869 (   1)
................................................................................
.............................. CYCLE   58 ......................................
................................................................................
   1    -50.7517424 -0.507517E+02  0.504E-01    9.27       0.0  T
   2    -50.7517879 -0.454980E-04  0.379E-01    9.28       1.0  T
   3    -50.7518241 -0.362230E-04  0.468E-02    9.28       1.0  T
   4    -50.7518298 -0.571281E-05  0.153E-02    9.28       1.3  T
   5    -50.7518301 -0.314271E-06  0.476E-03    9.28       4.1  T
   6    -50.7518301 -0.144745E-07  0.261E-03    9.28       7.5  T
   7    -50.7518302 -0.158196E-07  0.637E-04    9.28      30.8  T
speedup  0.95
cpu  time for SCC    0.01 s
wall time for SCC    0.01 s
speedup  0.99
cpu  time for grad    0.01 s
wall time for grad    0.01 s
 E :    -50.46370915  G :  0.051053    pred/act E change: -0.120D-03  0.154D-02
Maxdispl :   0.1556   ||displ|| :   0.4210   Lambda : -0.940D-02
Largest |displ|/coords:  0.1556 (   7)  0.1545 (   9)  0.1315 (  16)
................................................................................
.............................. CYCLE   59 ......................................
................................................................................
   1    -50.7707980 -0.507708E+02  0.540E-01    9.30       0.0  T
   2    -50.7709905 -0.192535E-03  0.405E-01    9.31       1.0  T
   3    -50.7711327 -0.142130E-03  0.855E-02    9.32       1.0  T
   4    -50.7711525 -0.198414E-04  0.280E-02    9.31       1.0  T
   5    -50.7711544 -0.187041E-05  0.941E-03    9.31       2.1  T
   6    -50.7711544 -0.319755E-07  0.467E-03    9.31       4.2  T
   7    -50.7711545 -0.552665E-07  0.873E-04    9.31      22.5  T
speedup  0.97
cpu  time for SCC    0.01 s
wall time for SCC    0.01 s
speedup  0.99
cpu  time for grad    0.01 s
wall time for grad    0.01 s
 E :    -50.46153169  G :  0.096484    pred/act E change: -0.270D-03  0.218D-02
Maxdispl :   0.1060   ||displ|| :   0.2565   Lambda : -0.119D-01
Largest |displ|/coords:  0.1060 (  16)  0.0805 (   4)  0.0752 (  13)
................................................................................
.............................. CYCLE   60 ......................................
................................................................................
   1    -50.7537755 -0.507538E+02  0.371E-01    9.29       0.0  T
   2    -50.7539173 -0.141824E-03  0.277E-01    9.30       1.0  T
   3    -50.7540113 -0.939276E-04  0.717E-02    9.30       1.0  T
   4    -50.7540255 -0.142155E-04  0.209E-02    9.30       1.0  T
   5    -50.7540266 -0.114935E-05  0.659E-03    9.30       3.0  T
   6    -50.7540267 -0.648543E-07  0.404E-03    9.30       4.8  T
   7    -50.7540267 -0.224279E-07  0.721E-04    9.30      27.2  T
speedup  0.97
cpu  time for SCC    0.01 s
wall time for SCC    0.01 s
speedup  0.99
cpu  time for grad    0.01 s
wall time for grad    0.01 s
 E :    -50.46442269  G :  0.041311    pred/act E change: -0.553D-02 -0.289D-02
Maxdispl :   0.0544   ||displ|| :   0.1424   Lambda : -0.204D-02
Largest |displ|/coords:  0.0544 (   1)  0.0452 (  10)  0.0426 (  16)
................................................................................
.............................. CYCLE   61 ......................................
................................................................................
   1    -50.7614986 -0.507615E+02  0.189E-01    9.30       0.0  T
   2    -50.7615182 -0.195421E-04  0.143E-01    9.31       1.0  T
   3    -50.7615324 -0.142172E-04  0.257E-02    9.31       1.0  T
   4    -50.7615348 -0.244332E-05  0.747E-03    9.31       2.6  T
   5    -50.7615350 -0.122731E-06  0.281E-03    9.31       7.0  T
   6    -50.7615350 -0.489225E-08  0.147E-03    9.31      13.4  T
speedup  1.13
cpu  time for SCC    0.01 s
wall time for SCC    0.01 s
speedup  1.06
cpu  time for grad    0.01 s
wall time for grad    0.01 s
 E :    -50.46537761  G :  0.008810    pred/act E change: -0.634D-02 -0.955D-03
Maxdispl :   0.0810   ||displ|| :   0.0974   Lambda : -0.164D-03
Largest |displ|/coords:  0.0810 (   2)  0.0263 (  14)  0.0235 (   1)
................................................................................
.............................. CYCLE   62 ......................................
................................................................................
   1    -50.7614739 -0.507615E+02  0.735E-02    9.31       0.0  T
   2    -50.7614754 -0.144495E-05  0.556E-02    9.31       1.0  T
   3    -50.7614767 -0.128787E-05  0.658E-03    9.31       3.0  T
   4    -50.7614768 -0.169015E-06  0.220E-03    9.31       8.9  T
   5    -50.7614768 -0.563395E-08  0.852E-04    9.31      23.0  T
speedup  1.09
cpu  time for SCC    0.00 s
wall time for SCC    0.00 s
speedup  1.04
cpu  time for grad    0.01 s
wall time for grad    0.01 s
 E :    -50.46544005  G :  0.004536    pred/act E change: -0.104D-02 -0.624D-04
Maxdispl :   0.0371   ||displ|| :   0.0518   Lambda : -0.565D-04
Largest |displ|/coords:  0.0371 (   2)  0.0198 (  14)  0.0122 (   1)
................................................................................
.............................. CYCLE   63 ......................................
................................................................................
   1    -50.7613091 -0.507613E+02  0.398E-02    9.31       0.0  T
   2    -50.7613094 -0.322018E-06  0.299E-02    9.31       1.0  T
   3    -50.7613097 -0.276427E-06  0.399E-03    9.31       4.9  T
   4    -50.7613097 -0.379469E-07  0.121E-03    9.31      16.2  T
   5    -50.7613098 -0.231834E-08  0.371E-04    9.31      52.8  T
speedup  1.11
cpu  time for SCC    0.00 s
wall time for SCC    0.00 s
speedup  1.05
cpu  time for grad    0.01 s
wall time for grad    0.01 s
 E :    -50.46548681  G :  0.002333    pred/act E change: -0.830D-04 -0.468D-04
Maxdispl :   0.1716   ||displ|| :   0.2217   Lambda : -0.147D-03
Largest |displ|/coords:  0.1716 (   2)  0.0686 (   1)  0.0568 (  14)
................................................................................
.............................. CYCLE   64 ......................................
................................................................................
   1    -50.7602679 -0.507603E+02  0.153E-01    9.31       0.0  T
   2    -50.7602711 -0.316679E-05  0.115E-01    9.31       1.0  T
   3    -50.7602741 -0.298775E-05  0.133E-02    9.31       1.5  T
   4    -50.7602744 -0.337000E-06  0.395E-03    9.31       5.0  T
   5    -50.7602744 -0.188875E-07  0.133E-03    9.31      14.7  T
   6    -50.7602744 -0.102925E-08  0.705E-04    9.31      27.8  T
   7    -50.7602744 -0.936488E-09  0.154E-04    9.31     127.6  T
speedup  1.13
cpu  time for SCC    0.01 s
wall time for SCC    0.01 s
speedup  1.03
cpu  time for grad    0.01 s
wall time for grad    0.01 s
 E :    -50.46557118  G :  0.009019    pred/act E change: -0.283D-04 -0.844D-04
Maxdispl :   0.0828   ||displ|| :   0.1048   Lambda : -0.656D-04
Largest |displ|/coords:  0.0828 (   2)  0.0395 (   1)  0.0201 (   7)
................................................................................
.............................. CYCLE   65 ......................................
................................................................................
   1    -50.7604129 -0.507604E+02  0.620E-02    9.32       0.0  T
   2    -50.7604132 -0.308587E-06  0.466E-02    9.32       1.0  T
   3    -50.7604136 -0.373913E-06  0.435E-03    9.32       4.5  T
   4    -50.7604136 -0.186360E-07  0.117E-03    9.32      16.7  T
   5    -50.7604136 -0.170186E-08  0.506E-04    9.32      38.7  T
speedup  0.87
cpu  time for SCC    0.00 s
wall time for SCC    0.00 s
speedup  0.96
cpu  time for grad    0.01 s
wall time for grad    0.01 s
 E :    -50.46563043  G :  0.007753    pred/act E change: -0.771D-04 -0.593D-04
Maxdispl :   0.2780   ||displ|| :   0.3735   Lambda : -0.262D-03
Largest |displ|/coords:  0.2780 (   2)  0.1558 (   1)  0.0871 (   7)
................................................................................
.............................. CYCLE   66 ......................................
................................................................................
   1    -50.7603682 -0.507604E+02  0.226E-01    9.32       0.0  T
   2    -50.7603719 -0.370339E-05  0.170E-01    9.32       1.0  T
   3    -50.7603762 -0.429506E-05  0.145E-02    9.32       1.4  T
   4    -50.7603764 -0.228661E-06  0.345E-03    9.32       5.7  T
[...]
Largest |displ|/coords:  0.0315 (  37)  0.0208 (   1)  0.0127 (  20)
................................................................................
.............................. CYCLE  170 ......................................
................................................................................
   1    -50.7604013 -0.507604E+02  0.515E-02    9.24       0.0  T
   2    -50.7604019 -0.638235E-06  0.383E-02    9.24       1.0  T
   3    -50.7604022 -0.232628E-06  0.644E-03    9.24       3.0  T
   4    -50.7604023 -0.115742E-06  0.236E-03    9.24       8.3  T
   5    -50.7604023 -0.284748E-08  0.296E-04    9.24      66.3  T
   6    -50.7604023 -0.833396E-10  0.180E-04    9.24     108.7  T
speedup  1.13
cpu  time for SCC    0.01 s
wall time for SCC    0.01 s
speedup  1.01
cpu  time for grad    0.01 s
wall time for grad    0.01 s
 E :    -50.46691374  G :  0.000405    pred/act E change: -0.169D-05 -0.493D-05
Maxdispl :   0.0063   ||displ|| :   0.0088   Lambda : -0.348D-06
Largest |displ|/coords:  0.0063 (   1)  0.0026 (  37)  0.0025 (   5)
................................................................................
.............................. CYCLE  171 ......................................
................................................................................
   1    -50.7603800 -0.507604E+02  0.621E-03    9.25       0.0  T
   2    -50.7603801 -0.614670E-08  0.466E-03    9.25       4.2  T
   3    -50.7603801 -0.419350E-08  0.608E-04    9.25      32.3  T
   4    -50.7603801 -0.979156E-09  0.177E-04    9.25     110.6  T
speedup  1.08
cpu  time for SCC    0.00 s
wall time for SCC    0.00 s
speedup  0.99
cpu  time for grad    0.01 s
wall time for grad    0.01 s
 E :    -50.46691403  G :  0.000291    pred/act E change: -0.586D-05 -0.286D-06
Maxdispl :   0.0134   ||displ|| :   0.0188   Lambda : -0.676D-06
Largest |displ|/coords:  0.0134 (   1)  0.0057 (  37)  0.0042 (  15)
................................................................................
.............................. CYCLE  172 ......................................
................................................................................
   1    -50.7603452 -0.507603E+02  0.133E-02    9.25       0.0  T
   2    -50.7603452 -0.303391E-07  0.100E-02    9.25       2.0  T
   3    -50.7603453 -0.233442E-07  0.134E-03    9.25      14.7  T
   4    -50.7603453 -0.413618E-08  0.407E-04    9.25      48.1  T
   5    -50.7603453 -0.138151E-09  0.831E-05    9.25     236.0  T
speedup  0.89
cpu  time for SCC    0.00 s
wall time for SCC    0.00 s
speedup  1.00
cpu  time for grad    0.01 s
wall time for grad    0.01 s
 E :    -50.46691445  G :  0.000260    pred/act E change: -0.174D-06 -0.418D-06
Maxdispl :   0.0074   ||displ|| :   0.0099   Lambda : -0.153D-06
Largest |displ|/coords:  0.0074 (   1)  0.0024 (   8)  0.0021 (   9)
................................................................................
.............................. CYCLE  173 ......................................
................................................................................
   1    -50.7603403 -0.507603E+02  0.607E-03    9.25       0.0  T
   2    -50.7603403 -0.524734E-08  0.457E-03    9.25       4.3  T
   3    -50.7603403 -0.533896E-08  0.512E-04    9.25      38.3  T
   4    -50.7603403 -0.484242E-09  0.177E-04    9.25     110.5  T
speedup  0.83
cpu  time for SCC    0.00 s
wall time for SCC    0.00 s
speedup  0.99
cpu  time for grad    0.01 s
wall time for grad    0.01 s
 E :    -50.46691457  G :  0.000223    pred/act E change: -0.338D-06 -0.121D-06
Maxdispl :   0.0098   ||displ|| :   0.0145   Lambda : -0.257D-06
Largest |displ|/coords:  0.0098 (   1)  0.0047 (   8)  0.0041 (   9)
................................................................................
.............................. CYCLE  174 ......................................
................................................................................
   1    -50.7603545 -0.507604E+02  0.800E-03    9.25       0.0  T
   2    -50.7603545 -0.108191E-07  0.598E-03    9.25       3.3  T
   3    -50.7603545 -0.114749E-07  0.819E-04    9.25      24.0  T
   4    -50.7603545 -0.785349E-09  0.253E-04    9.25      77.4  T
speedup  1.08
cpu  time for SCC    0.00 s
wall time for SCC    0.00 s
speedup  0.99
cpu  time for grad    0.01 s
wall time for grad    0.01 s
 E :    -50.46691476  G :  0.000144    pred/act E change: -0.765D-07 -0.193D-06
Maxdispl :   0.0085   ||displ|| :   0.0136   Lambda : -0.191D-06
Largest |displ|/coords:  0.0085 (   1)  0.0050 (   8)  0.0047 (  10)
................................................................................
.............................. CYCLE  175 ......................................
................................................................................
   1    -50.7603694 -0.507604E+02  0.680E-03    9.25       0.0  T
   2    -50.7603694 -0.798968E-08  0.508E-03    9.25       3.9  T
   3    -50.7603694 -0.947016E-08  0.685E-04    9.25      28.6  T
   4    -50.7603694 -0.495525E-09  0.165E-04    9.25     118.7  T
speedup  1.11
cpu  time for SCC    0.00 s
wall time for SCC    0.00 s
speedup  0.98
cpu  time for grad    0.01 s
wall time for grad    0.01 s
 E :    -50.46691492  G :  0.000225    pred/act E change: -0.128D-06 -0.160D-06
Maxdispl :   0.0129   ||displ|| :   0.0217   Lambda : -0.265D-06
Largest |displ|/coords:  0.0129 (   1)  0.0083 (  10)  0.0082 (   8)
................................................................................
.............................. CYCLE  176 ......................................
................................................................................
   1    -50.7603828 -0.507604E+02  0.104E-02    9.25       0.0  T
   2    -50.7603828 -0.189734E-07  0.780E-03    9.25       2.5  T
   3    -50.7603828 -0.238889E-07  0.103E-03    9.25      19.1  T
   4    -50.7603828 -0.112342E-08  0.193E-04    9.25     101.5  T
   5    -50.7603828 -0.738396E-10  0.903E-05    9.25     217.1  T
speedup  1.11
cpu  time for SCC    0.00 s
wall time for SCC    0.00 s
speedup  1.00
cpu  time for grad    0.01 s
wall time for grad    0.01 s
 E :    -50.46691512  G :  0.000345    pred/act E change: -0.955D-07 -0.197D-06
Maxdispl :   0.0123   ||displ|| :   0.0215   Lambda : -0.239D-06
Largest |displ|/coords:  0.0123 (   1)  0.0087 (  10)  0.0081 (   8)
................................................................................
.............................. CYCLE  177 ......................................
................................................................................
   1    -50.7603878 -0.507604E+02  0.100E-02    9.24       0.0  T
   2    -50.7603879 -0.194218E-07  0.750E-03    9.24       2.6  T
   3    -50.7603879 -0.231026E-07  0.104E-03    9.24      18.8  T
   4    -50.7603879 -0.142386E-08  0.323E-04    9.24      60.7  T
   5    -50.7603879 -0.165180E-09  0.101E-04    9.24     193.9  T
speedup  1.11
cpu  time for SCC    0.00 s
wall time for SCC    0.00 s
speedup  1.00
cpu  time for grad    0.01 s
wall time for grad    0.01 s
 E :    -50.46691529  G :  0.000337    pred/act E change: -0.133D-06 -0.177D-06
Maxdispl :   0.0087   ||displ|| :   0.0158   Lambda : -0.188D-06
Largest |displ|/coords:  0.0087 (   1)  0.0066 (  10)  0.0056 (   8)
................................................................................
.............................. CYCLE  178 ......................................
................................................................................
   1    -50.7603881 -0.507604E+02  0.740E-03    9.24       0.0  T
   2    -50.7603881 -0.129663E-07  0.550E-03    9.24       3.6  T
   3    -50.7603881 -0.120390E-07  0.897E-04    9.24      21.9  T
   4    -50.7603881 -0.151397E-08  0.310E-04    9.24      63.2  T
speedup  1.08
cpu  time for SCC    0.00 s
wall time for SCC    0.00 s
speedup  0.99
cpu  time for grad    0.01 s
wall time for grad    0.01 s
 E :    -50.46691542  G :  0.000207    pred/act E change: -0.119D-06 -0.128D-06
Maxdispl :   0.0016   ||displ|| :   0.0034   Lambda : -0.821D-07
Largest |displ|/coords:  0.0016 (   2)  0.0014 (   5)  0.0012 (   7)
................................................................................
.............................. CYCLE  179 ......................................
................................................................................
   1    -50.7603865 -0.507604E+02  0.239E-03    9.24       0.0  T
   2    -50.7603865 -0.199230E-08  0.178E-03    9.24      11.0  T
   3    -50.7603865 -0.785050E-09  0.366E-04    9.24      53.6  T
   4    -50.7603865 -0.310628E-09  0.134E-04    9.24     146.6  T
speedup  1.08
cpu  time for SCC    0.00 s
wall time for SCC    0.00 s
speedup  0.99
cpu  time for grad    0.01 s
wall time for grad    0.01 s
 E :    -50.46691548  G :  0.000077    pred/act E change: -0.940D-07 -0.567D-07
Maxdispl :   0.0049   ||displ|| :   0.0071   Lambda : -0.414D-07
Largest |displ|/coords:  0.0049 (   1)  0.0022 (  10)  0.0021 (   5)

   *** GEOMETRY OPTIMIZATION CONVERGED AFTER 179 ITERATIONS ***

------------------------------------------------------------------------
 total energy gain (kcal):     -0.0337
------------------------------------------------------------------------
================
 final structure:
================
$coord
       -0.27317570671728       -1.67801718695006        2.98821498977357      S 
        2.20503063524795       -2.61066462199561        3.65467909988043      O 
       -0.52974620618379        1.04279472113767        2.98395081016298      O 
       -1.17779621710753       -2.76773222701876        0.60802455138971      O 
       -2.13755623689947       -2.66691869527798        5.11743839409951      O 
       -1.47283559904853       -4.28768083646847        5.52508366534213      H 
        3.24285119650861       -4.59276696034419       -1.15824324347666      O 
        1.52795960154214       -4.20411873711376       -0.61111405797574      H 
        4.19476217109431       -4.64941059145973        0.38880128790708      H 
       -4.78533516812175        3.22803869382945        1.75527883602506      O 
       -4.97717141352411        4.52885211484743        3.00216432412632      H 
       -3.26291482680287        2.28036558830086        2.25896218946795      H 
        4.07036578596497        0.01768374332936       -3.17550097330771      O 
        4.14328281252112       -1.79266878280249       -2.78595888846802      H 
        4.46933690475237        0.84204332239419       -1.55769308672313      H 
        4.39482411761165        1.50562891233973        1.64048158467476      O 
        2.87231640171190        2.42406823287368        2.04045330141594      H 
        4.14967695104632       -0.09200868395658        2.51382997150844      H 
       -3.54464238515411        4.37484763267865       -2.94550132613494      O 
       -5.09701383353087        4.58342322005725       -3.85454288393482      H 
       -4.02295856949429        4.10349763900468       -1.15868797093510      H 
       -0.82728333784527        0.09994806310959       -3.47672642305532      N 
       -1.21267652676770       -0.96326258705537       -1.84138048839772      H 
       -1.40764358544614       -0.87501824146979       -5.02290370697810      H 
       -1.75200556433033        1.84729582123956       -3.37125204026676      H 
        1.21034858008853        0.30178044677059       -3.51785787832058      H 
$end
 
 Bond Distances (Angstroems)
 ---------------------------
S1-O2=1.4449         S1-O3=1.4462         S1-O4=1.4657         S1-O5=1.5864         O2-S1=1.4449         O3-S1=1.4462         
O4-S1=1.4657         O5-S1=1.5864         O5-H6=0.9518         H6-O5=0.9518         O7-H8=0.9745         O7-H9=0.9617         
H8-O7=0.9745         H9-O7=0.9617         O10-H11=0.9589       O10-H12=0.9857       H11-O10=0.9589       H12-O10=0.9857       
O13-H14=0.9807       O13-H15=0.9838       H14-O13=0.9807       H15-O13=0.9838       O16-H17=0.9644       O16-H18=0.9722       
H17-O16=0.9644       H18-O16=0.9722       O19-H20=0.9583       O19-H21=0.9893       H20-O19=0.9583       H21-O19=0.9893       
N22-H23=1.0522       N22-H24=1.0149       N22-H25=1.0476       N22-H26=1.0838       H23-N22=1.0522       H24-N22=1.0149       
H25-N22=1.0476       H26-N22=1.0838       
 N  H  Rav=1.0496 sigma=0.0244  Rmin=1.0149  Rmax=1.0838     4
 O  H  Rav=0.9710 sigma=0.0122  Rmin=0.9518  Rmax=0.9893    11
 S  O  Rav=1.4858 sigma=0.0587  Rmin=1.4449  Rmax=1.5864     4
 
 selected bond angles (degree)
 --------------------
O3-S1-O2=115.19                O4-S1-O2=111.83                O4-S1-O3=111.08                O5-S1-O2=106.17                
O5-S1-O3=105.73                O5-S1-O4=106.11                H6-O5-S1=103.20                H9-O7-H8=103.97                
H12-O10-H11=105.41             
 
 selected dihedral angles (degree)
 ---------------------------------
H6-O5-S1-O2=324.59            H6-O5-S1-O3=201.77            H6-O5-S1-O4= 83.71            
 
 CMA Distance (Angstroems)
 ---------------------------
R(CMA):  2.6378

========================================================================
 FINAL SINGLEPOINT CALCULATION ON OPTIMIZED GEOMETRY
========================================================================

 Ncao       : 65
 Nao        : 64
 Nshell     : 38
 Nel        : 80
 T(el)      :   300.0
 intcut     :    25.0
 scfconv/Eh :  0.100E-05
   qconv/e  :  0.100E-03
 intneglect :  0.100E-07
 broydamp   :      0.250
 iter      E             dE          RMSdq      gap      omega  full diag
   1    -50.7603865 -0.507604E+02  0.478E-05    9.24       0.0  T
   2    -50.7603865 -0.145661E-11  0.294E-05    9.24     667.1  T
   3    -50.7603865 -0.717648E-12  0.627E-06    9.24    3129.7  T
speedup  1.07
cpu  time for SCC    0.00 s
wall time for SCC    0.00 s

   *** convergence criteria satisfied after 3 iterations ***

          eigenvalues
 #    :          28         29         30         31         32         33         34         35
 occ. :        2.000      2.000      2.000      2.000      2.000      2.000      2.000      2.000
 eps  :       -13.600    -13.346    -12.700    -12.483    -12.381    -12.269    -12.209    -12.140
 #    :          36         37         38         39         40         41         42         43
 occ. :        2.000      2.000      2.000      2.000      2.000      0.000      0.000      0.000
 eps  :       -12.128    -11.955    -11.907    -11.832    -11.704     -2.460     -0.816     -0.536
 #    :          44         45         46         47         48         49         50         51
 occ. :        0.000      0.000      0.000      0.000      0.000      0.000      0.000      0.000
 eps  :         0.876      1.107      1.430      2.159      3.428      3.552      4.153      4.434


   #   Z            q   n(s)   n(p)   n(d)      C6AA      α(0)
   1  16 S      1.695  1.582  1.777  0.945    88.872    15.867
   2   8 O     -0.748  1.772  4.975  0.000    30.043     7.349
   3   8 O     -0.732  1.763  4.969  0.000    29.589     7.293
   4   8 O     -0.757  1.772  4.985  0.000    30.316     7.382
   5   8 O     -0.594  1.752  4.842  0.000    25.001     6.750
   6   1 H      0.345  0.655  0.000  0.000     0.593     1.205
   7   8 O     -0.612  1.743  4.869  0.000    25.476     6.812
   8   1 H      0.310  0.690  0.000  0.000     0.693     1.307
   9   1 H      0.298  0.702  0.000  0.000     0.727     1.339
  10   8 O     -0.613  1.745  4.868  0.000    25.499     6.815
  11   1 H      0.288  0.712  0.000  0.000     0.757     1.366
  12   1 H      0.329  0.671  0.000  0.000     0.640     1.256
  13   8 O     -0.618  1.759  4.859  0.000    25.606     6.830
  14   1 H      0.325  0.675  0.000  0.000     0.651     1.268
  15   1 H      0.329  0.671  0.000  0.000     0.640     1.257
  16   8 O     -0.611  1.740  4.871  0.000    25.453     6.809
  17   1 H      0.302  0.698  0.000  0.000     0.714     1.328
  18   1 H      0.309  0.691  0.000  0.000     0.694     1.309
  19   8 O     -0.608  1.745  4.863  0.000    25.392     6.801
  20   1 H      0.284  0.716  0.000  0.000     0.772     1.380
  21   1 H      0.336  0.664  0.000  0.000     0.622     1.239
  22   7 N     -0.352  1.280  4.072  0.000    29.043     8.004
  23   1 H      0.282  0.718  0.000  0.000     0.770     1.375
  24   1 H      0.227  0.773  0.000  0.000     0.980     1.551
  25   1 H      0.284  0.716  0.000  0.000     0.762     1.367
  26   1 H      0.300  0.700  0.000  0.000     0.712     1.322

 Mol. C6AA /au·bohr⁶  :       5447.120327
 Mol. C8AA /au·bohr⁸  :     117795.812862
 Mol. α(0) /au        :        106.581000

 
 Wiberg/Mayer (AO) data. WBOs > 0.1 written file <wbo>
 largest (>0.05) Wiberg bond orders for each atom
           total WBO             WBO to atom ...
     1  S   4.841    O    2 1.340    O    3 1.331    O    4 1.246    O    5 0.888
     2  O   1.711    S    1 1.340    O    4 0.109    O    3 0.108    O    5 0.078
     3  O   1.739    S    1 1.331    O    4 0.109    O    2 0.108    H   12 0.069    O    5 0.064
     4  O   1.730    S    1 1.246    O    3 0.109    O    2 0.109    H   23 0.090    O    5 0.069
     5  O   1.968    S    1 0.888    H    6 0.865    O    2 0.078    O    4 0.069    O    3 0.064
     6  H   0.881    O    5 0.865
     7  O   1.864    H    9 0.902    H    8 0.853    H   14 0.053
     8  H   0.904    O    7 0.853
     9  H   0.911    O    7 0.902
    10  O   1.880    H   11 0.913    H   12 0.819    H   21 0.077
    11  H   0.917    O   10 0.913
    12  H   0.892    O   10 0.819    O    3 0.069
    13  O   1.955    H   14 0.840    H   15 0.828    H   26 0.155    N   22 0.072
    14  H   0.894    O   13 0.840    O    7 0.053
    15  H   0.892    O   13 0.828    O   16 0.062
    16  O   1.873    H   17 0.888    H   18 0.861    H   15 0.062
    17  H   0.909    O   16 0.888
    18  H   0.904    O   16 0.861
    19  O   1.895    H   20 0.915    H   21 0.808    H   25 0.089
    20  H   0.919    O   19 0.915
    21  H   0.887    O   19 0.808    O   10 0.077
    22  N   3.519    H   24 0.946    H   25 0.827    H   23 0.824    H   26 0.751    O   13 0.072
    23  H   0.921    N   22 0.824    O    4 0.090
    24  H   0.949    N   22 0.946
    25  H   0.919    N   22 0.827    O   19 0.089
    26  H   0.910    N   22 0.751    O   13 0.155
 MOs/occ written to file <molden.input>
 
molecular dipole:
                 x           y           z       tot (Debye)
 q only:       -1.288       0.345      -1.479
   full:       -1.781      -0.023      -0.404       4.643
molecular quadrupole (traceless):
                xx          xy          yy          xz          yz          zz
 q only:       -6.049      -3.827       0.052       5.733      -2.092       5.997
  q+dip:       -8.577      -5.717       1.197       8.283      -3.549       7.380
   full:       -8.623      -5.975       1.119       8.193      -3.763       7.504

SCC energy    :     -50.7603865
rep           :       0.2931495
ES            :       0.2613845
AES           :      -0.0734140
AXC           :      -0.0087050
disp          :      -0.0189749
XB            :       0.0000000
fix           :       0.0000000
total E       :     -50.4669155
atomizationE  :       4.9972196     3135.80
(atE without considering molecular charge,
 total energy contains solvation terms)
H-L gap (eV)  :          9.2431
optimized geometry written to: xtbopt.xyz


------------------------------------------------------------------------
 * finished run on 2019/09/16 at 11:22:50.452     
------------------------------------------------------------------------
 total:
 * wall-time:     0 d,  0 h,  0 min,  3.829 sec
 *  cpu-time:     0 d,  0 h,  0 min,  3.801 sec
 * ratio c/w:     0.993 speedup
 SCF:
 * wall-time:     0 d,  0 h,  0 min,  0.148 sec
 *  cpu-time:     0 d,  0 h,  0 min,  0.145 sec
 * ratio c/w:     0.977 speedup
 ANC optimizer:
 * wall-time:     0 d,  0 h,  0 min,  3.656 sec
 *  cpu-time:     0 d,  0 h,  0 min,  3.634 sec
 * ratio c/w:     0.994 speedup

