      -----------------------------------------------------------      
     |                   =====================                   |     
     |                           x T B                           |     
     |                   =====================                   |     
     |                         S. Grimme                         |     
     |          Mulliken Center for Theoretical Chemistry        |     
     |                    University of Bonn                     |     
     |                 Version 6.0.1 (SAW181210)                 |     
      -----------------------------------------------------------      

   This program is distributed in the hope that it will be useful,
   but WITHOUT ANY WARRANTY; without even the implied warranty of
   MERCHANTABILITY or FITNESS FOR A PARTICULAR PURPOSE.
   
   FOR NON-COMMERCIAL, ACADEMIA USE ONLY.
   
   Cite this work as:
   S. Grimme, C. Bannwarth, P. Shushkov, J. Comput. Theory Chem., 2017,
   13, 1989-2009.
   C. Bannwarth, S. Ehlert and S. Grimme., ChemRxiv, 2018, preprint.
   http://doi.org/10.26434/chemrxiv.7246238.v1
   
   for sTDA-xTB:
   S. Grimme and C. Bannwarth, J. Chem. Phys., 2016, 145, 054103.
   
   in the mass-spec context:
   V. Asgeirsson, C. Bauer and S. Grimme, Chem. Sci., 2017, 8, 4879.
   
   if GBSA is used:
   P. Shushkov, F. März and S. Grimme, unpublished.
   
   for ANC optimizer:
   S. Grimme, unpublished.
   Rational Function algorithm used in ANCopt:
   F. Eckert, P. Pulay, H.-J. Werner, J. Comput. Chem., 1997, 18, 1473.
   
   with help from (in alphabetical order)
   C. Bannwarth, F. Bohle, G. Brandenburg, E. Caldeweyher, M. Checinski,
   S. Dohm, S. Ehlert, S. Ehrlich, F. März, H. Neugebauer, J. Pisarek,
   P. Pracht, P. Shushkov, and S. Spicher.
   
 * started run on 2019/09/16 at 11:26:59.858     
========================================================================
 # omp threads = 1
========================================================================
number of atoms            : 26
number of electrons        : 80
charge                     : 0
spin                       : .0
first test random number   : .5819

########################################################################
# WARNING! Please study the warnings concerning your input carefully
#  - XTBPATH is not set, using XTBHOME instead
#  - the use of '-opt' is discouraged, please use '--opt' next time
#  - the use of '-chrg' is discouraged, please use '--chrg' next time
#  - the use of '-uhf' is discouraged, please use '--uhf' next time
########################################################################

           ------------------------------------------------- 
          |                 G F N 2 - x T B                 |
          | Geometry, Frequencies, Noncovalent interactions |
          |            JCTC 2018 parametrisation            |
           ------------------------------------------------- 
      method parameters     
 k(s)        :  1.8500
 k(p)        :  2.2300
 k(d)        :  2.2300
 k(f)        :  2.0000
 kEN (H0ij)  : -2.0000
 D4 a1       :  0.5200
 D4 a2       :  5.0000
 D4 s6       :  1.0000
 D4 s8       :  2.7000
 D4 s9       :  5.0000
 alphaj      :  2.0000


            Z     q(EN)     CN     RAES       Cart. coordinates
     1  S   6.0    0.64    4.29    4.22     1.53074    -2.69807     3.46438
     2  O   6.0   -0.33    1.24    1.80     2.70347    -2.11050     0.97287
     3  O   6.0   -0.31    1.20    1.80     1.86579    -0.50614     5.19969
     4  O   6.0   -0.31    1.21    1.80    -1.21646    -3.20514     3.11240
     5  O   6.0   -0.25    2.08    1.84     2.75319    -4.93939     4.55737
     6  H   1.0    0.15    1.21    1.47     4.52331    -4.61352     4.78449
     7  O   6.0   -0.30    2.01    1.83    -2.53120    -1.45421    -4.47682
     8  H   1.0    0.15    0.97    1.43    -3.50171    -2.73159    -5.33766
     9  H   1.0    0.16    1.03    1.43    -3.31667    -1.27122    -2.84459
    10  O   6.0   -0.28    1.98    1.82     2.66660    -1.20820    -4.04421
    11  H   1.0    0.16    1.01    1.43     0.94977    -1.74429    -4.32657
    12  H   1.0    0.17    1.02    1.43     3.08398    -1.79123    -2.37075
    13  O   6.0   -0.28    2.00    1.83     0.15944     3.10125    -5.21000
    14  H   1.0    0.15    0.99    1.43    -1.21352     1.98716    -5.64405
    15  H   1.0    0.16    1.00    1.43     1.66490     2.08692    -5.34908
    16  O   6.0   -0.29    2.01    1.83     0.96797     4.39896     4.51095
    17  H   1.0    0.18    1.05    1.44     1.33545     2.68490     5.00245
    18  H   1.0    0.15    0.97    1.43     1.24039     5.39810     6.00832
    19  O   6.0   -0.31    2.07    1.83    -4.36138    -0.68457     0.20649
    20  H   1.0    0.18    1.06    1.44    -3.37354    -1.77591     1.27783
    21  H   1.0    0.15    0.97    1.43    -6.00630    -0.60804     0.98301
    22  N   5.0   -0.14    3.96    2.76     0.01516     2.33695    -0.09531
    23  H   1.0    0.11    1.05    1.44     0.32922     3.58934     1.35980
    24  H   1.0    0.10    1.03    1.43     0.17392     3.26669    -1.79673
    25  H   1.0    0.11    1.06    1.44     1.32960     0.90516    -0.01363
    26  H   1.0    0.10    1.03    1.43    -1.77211     1.58661     0.06932

  Z AO/shell   Hii/eV     exponent
  1     Wed Apr 25 08:07:45 CEST 2018   EN: 2.200 GM2: 0.406  GM3: 0.0800  RAES: 1.40
     1s    -10.707211    1.230000
  7     Wed Apr 25 08:07:45 CEST 2018   EN: 3.040 GM2: 0.461  GM3:-0.0640  RAES: 1.90
     2s    -16.686243    2.339881
     2p    -12.523956    2.014332
  8     Wed Apr 25 08:07:45 CEST 2018   EN: 3.440 GM2: 0.452  GM3:-0.0517  RAES: 1.80
     2s    -20.229985    2.439742
     2p    -15.503117    2.137023
 16     Tue Apr 24 11:44:34 CEST 2018   EN: 2.580 GM2: 0.340  GM3:-0.0502  RAES: 3.10
     3s    -20.029654    1.981333
     3p    -11.377694    2.025643
     3d     -0.420282    1.702555
 no old-style atom pair restraining (fixing) potential

molecular fragmentation (1/2 indicates fragments):
11111122222222222222222222
# atoms in fragment 1/2:     6    20
 fragment masses (1/2) :       97.07      108.11
CMA distance (Bohr)    :   6.543
constraining FC (au)   :  0.0500
           ------------------------------------------------- 
          |        Self-Consistent Charge Iterations        |
           ------------------------------------------------- 

 Ncao       : 65
 Nao        : 64
 Nshell     : 38
 Nel        : 80
 T(el)      :   300.0
 intcut     :    25.0
 scfconv/Eh :  0.100E-05
   qconv/e  :  0.100E-03
 intneglect :  0.100E-07
 broydamp   :      0.250
 iter      E             dE          RMSdq      gap      omega  full diag
   1    -50.6525296 -0.506525E+02  0.701E+00   10.41       0.0  T
   2    -50.7036831 -0.511536E-01  0.504E+00    9.93       1.0  T
   3    -50.7424129 -0.387297E-01  0.133E+00    8.76       1.0  T
   4    -50.7474726 -0.505971E-02  0.571E-01    9.00       1.0  T
   5    -50.7481847 -0.712143E-03  0.295E-01    8.95       1.0  T
   6    -50.7485767 -0.391999E-03  0.132E-01    8.94       1.0  T
   7    -50.7486717 -0.949428E-04  0.474E-02    8.96       1.0  T
   8    -50.7486809 -0.926179E-05  0.317E-02    8.95       1.0  T
   9    -50.7486875 -0.659781E-05  0.898E-03    8.95       2.2  T
  10    -50.7486880 -0.443200E-06  0.230E-03    8.95       8.5  T
  11    -50.7486880 -0.192595E-07  0.114E-03    8.95      17.2  T
  12    -50.7486880 -0.677552E-08  0.356E-04    8.95      55.2  T
  13    -50.7486880 -0.559588E-09  0.131E-04    8.95     149.5  T
speedup  0.97
cpu  time for SCC    0.01 s
wall time for SCC    0.02 s

   *** convergence criteria satisfied after 13 iterations ***

          eigenvalues
 #    :          28         29         30         31         32         33         34         35
 occ. :        2.000      2.000      2.000      2.000      2.000      2.000      2.000      2.000
 eps  :       -12.886    -12.695    -12.647    -12.262    -11.921    -11.864    -11.791    -11.638
 #    :          36         37         38         39         40         41         42         43
 occ. :        2.000      2.000      2.000      2.000      2.000      0.000      0.000      0.000
 eps  :       -11.484    -11.123    -11.093    -11.005    -10.788     -1.842     -0.703     -0.072
 #    :          44         45         46         47         48         49         50         51
 occ. :        0.000      0.000      0.000      0.000      0.000      0.000      0.000      0.000
 eps  :         1.008      1.253      1.437      2.180      2.951      3.843      4.393      4.791


   #   Z            q   n(s)   n(p)   n(d)      C6AA      α(0)
   1  16 S      1.591  1.586  1.842  0.982    91.282    16.080
   2   8 O     -0.768  1.772  4.995  0.000    30.622     7.419
   3   8 O     -0.762  1.779  4.984  0.000    30.465     7.400
   4   8 O     -0.736  1.770  4.966  0.000    29.695     7.306
   5   8 O     -0.540  1.718  4.823  0.000    23.768     6.582
   6   1 H      0.360  0.640  0.000  0.000     0.557     1.168
   7   8 O     -0.610  1.740  4.869  0.000    25.420     6.805
   8   1 H      0.280  0.720  0.000  0.000     0.783     1.390
   9   1 H      0.329  0.671  0.000  0.000     0.641     1.257
  10   8 O     -0.638  1.749  4.889  0.000    26.111     6.897
  11   1 H      0.307  0.693  0.000  0.000     0.701     1.315
  12   1 H      0.310  0.690  0.000  0.000     0.691     1.305
  13   8 O     -0.612  1.744  4.867  0.000    25.468     6.811
  14   1 H      0.308  0.692  0.000  0.000     0.698     1.312
  15   1 H      0.322  0.678  0.000  0.000     0.660     1.276
  16   8 O     -0.622  1.731  4.891  0.000    25.713     6.844
  17   1 H      0.333  0.667  0.000  0.000     0.630     1.247
  18   1 H      0.283  0.717  0.000  0.000     0.774     1.382
  19   8 O     -0.619  1.733  4.885  0.000    25.635     6.833
  20   1 H      0.347  0.653  0.000  0.000     0.595     1.212
  21   1 H      0.294  0.706  0.000  0.000     0.739     1.350
  22   7 N     -0.320  1.253  4.067  0.000    28.208     7.888
  23   1 H      0.292  0.708  0.000  0.000     0.738     1.346
  24   1 H      0.292  0.708  0.000  0.000     0.738     1.346
  25   1 H      0.294  0.706  0.000  0.000     0.731     1.340
  26   1 H      0.283  0.717  0.000  0.000     0.765     1.370

 Mol. C6AA /au·bohr⁶  :       5436.613561
 Mol. C8AA /au·bohr⁸  :     117892.754899
 Mol. α(0) /au        :        106.480157

 
 Wiberg/Mayer (AO) data. WBOs > 0.1 written file <wbo>
 largest (>0.05) Wiberg bond orders for each atom
           total WBO             WBO to atom ...
     1  S   4.924    O    4 1.325    O    3 1.297    O    2 1.264    O    5 0.999
     2  O   1.676    S    1 1.264    O    4 0.112    O    3 0.111    O    5 0.071
     3  O   1.670    S    1 1.297    O    4 0.114    O    2 0.111    O    5 0.073    H   17 0.051
     4  O   1.703    S    1 1.325    O    3 0.114    O    2 0.112    H   20 0.061    O    5 0.054
     5  O   2.050    S    1 0.999    H    6 0.847    O    3 0.073    O    2 0.071    O    4 0.054
     6  H   0.870    O    5 0.847
     7  O   1.851    H    8 0.916    H    9 0.841
     8  H   0.921    O    7 0.916
     9  H   0.892    O    7 0.841
    10  O   1.824    H   11 0.872    H   12 0.866
    11  H   0.906    O   10 0.872
    12  H   0.904    O   10 0.866
    13  O   1.875    H   14 0.887    H   15 0.869    H   24 0.059
    14  H   0.905    O   13 0.887
    15  H   0.897    O   13 0.869
    16  O   1.834    H   18 0.907    H   17 0.835
    17  H   0.889    O   16 0.835    O    3 0.051
    18  H   0.920    O   16 0.907
    19  O   1.883    H   21 0.902    H   20 0.814
    20  H   0.880    O   19 0.814    O    4 0.061
    21  H   0.913    O   19 0.902
    22  N   3.556    H   26 0.867    H   23 0.863    H   25 0.852    H   24 0.851
    23  H   0.915    N   22 0.863
    24  H   0.915    N   22 0.851    O   13 0.059
    25  H   0.914    N   22 0.852
    26  H   0.920    N   22 0.867
 MOs/occ written to file <molden.input>
 
molecular dipole:
                 x           y           z       tot (Debye)
 q only:       -0.960       1.132      -0.600
   full:       -0.952       0.060       0.270       2.521
molecular quadrupole (traceless):
                xx          xy          yy          xz          yz          zz
 q only:        8.844      -1.451      -0.051       9.446       7.774      -8.792
  q+dip:       10.332      -2.093      -2.077      14.218       8.830      -8.255
   full:       10.566      -2.242      -2.165      14.523       8.670      -8.401

SCC energy    :     -50.7486880
rep           :       0.3086653
ES            :       0.2905442
AES           :      -0.0738936
AXC           :      -0.0093354
disp          :      -0.0179028
XB            :       0.0000000
fix           :       0.0000000
total E       :     -50.4397233
atomizationE  :       4.9700275     3118.74
(atE without considering molecular charge,
 total energy contains solvation terms)
H-L gap (eV)  :          8.9455
           ------------------------------------------------- 
          |                 ===============                 |
          |                   A N C O P T                   |
          |                 ===============                 |
          |          Approximate Normal Coordinate          |
          |           Rational Function Optimizer           |
           ------------------------------------------------- 
dumping coords to <xtbopt.coord> and <xtbopt.log>
 optlevel               2
 Maxcycle             520
 Maxmicro              25
 Econv         1.000000000000000E-007
 Gconv         2.000000000000000E-004
 Maxdispl       1.00000000000000     
 Hlow          5.000000000000000E-003
 S6             20.0000000000000     
 Nvar               72

generating ANC from model Hessian ...
 Shifting diagonal of input Hessian by   4.996569362023259E-003
 Lowest  eigenvalues of input Hessian
   -0.000000   -0.000000   -0.000000   -0.000000    0.000000    0.000000
    0.005000    0.005143    0.005234    0.005660    0.006105    0.006310
    0.006725    0.007322    0.008031    0.008760    0.009467    0.009791
 Highest eigenvalues
    1.425789    1.429837    1.455005    3.143077    3.213780    3.316173
 
cpu  time for ANC gen    0.02 s
wall time for ANC gen    0.02 s
................................................................................
.............................. CYCLE    1 ......................................
................................................................................
   1    -50.7486880 -0.507487E+02  0.839E-05    8.95       0.0  T
   2    -50.7486880 -0.135358E-10  0.660E-05    8.95     297.0  T
   3    -50.7486880 -0.170033E-10  0.290E-05    8.95     676.9  T
speedup  0.65
cpu  time for SCC    0.00 s
wall time for SCC    0.00 s
speedup  0.88
cpu  time for grad    0.01 s
wall time for grad    0.01 s
 E :    -50.43972327  G :  0.155660    pred/act E change:  0.000D+00  0.502D-07
Maxdispl :   0.1963   ||displ|| :   0.3349   Lambda : -0.137D-01
Largest |displ|/coords:  0.1963 (  27)  0.0862 (  20)  0.0851 (  25)
................................................................................
.............................. CYCLE    2 ......................................
................................................................................
   1    -50.7499464 -0.507499E+02  0.293E-01    8.99       0.0  T
   2    -50.7500762 -0.129709E-03  0.220E-01    9.02       1.0  T
   3    -50.7501196 -0.434395E-04  0.789E-02    9.07       1.0  T
   4    -50.7501332 -0.136490E-04  0.146E-02    9.07       1.3  T
   5    -50.7501337 -0.470818E-06  0.472E-03    9.06       4.2  T
   6    -50.7501337 -0.381874E-07  0.251E-03    9.06       7.8  T
speedup  0.93
cpu  time for SCC    0.00 s
wall time for SCC    0.01 s
speedup  1.00
cpu  time for grad    0.01 s
wall time for grad    0.01 s
 E :    -50.45060139  G :  0.101958    pred/act E change:  0.000D+00 -0.109D-01
Maxdispl :   0.1467   ||displ|| :   0.3091   Lambda : -0.783D-02
Largest |displ|/coords:  0.1467 (  27)  0.1011 (  28)  0.0942 (  16)
................................................................................
.............................. CYCLE    3 ......................................
................................................................................
   1    -50.7539014 -0.507539E+02  0.197E-01    9.12       0.0  T
   2    -50.7540403 -0.138865E-03  0.147E-01    9.15       1.0  T
   3    -50.7540866 -0.463450E-04  0.764E-02    9.19       1.0  T
   4    -50.7540908 -0.415969E-05  0.139E-02    9.19       1.4  T
   5    -50.7540911 -0.302417E-06  0.415E-03    9.19       4.7  T
   6    -50.7540911 -0.351598E-07  0.214E-03    9.19       9.1  T
speedup  1.11
cpu  time for SCC    0.01 s
wall time for SCC    0.01 s
speedup  0.99
cpu  time for grad    0.01 s
wall time for grad    0.01 s
 E :    -50.45674117  G :  0.061451    pred/act E change: -0.759D-02 -0.614D-02
Maxdispl :   0.1223   ||displ|| :   0.2610   Lambda : -0.368D-02
Largest |displ|/coords:  0.1223 (  27)  0.0829 (   5)  0.0806 (  25)
................................................................................
.............................. CYCLE    4 ......................................
................................................................................
   1    -50.7547554 -0.507548E+02  0.190E-01    9.17       0.0  T
   2    -50.7548387 -0.833187E-04  0.144E-01    9.19       1.0  T
   3    -50.7548655 -0.268108E-04  0.608E-02    9.21       1.0  T
   4    -50.7548712 -0.573093E-05  0.125E-02    9.20       1.6  T
   5    -50.7548715 -0.234351E-06  0.331E-03    9.20       5.9  T
   6    -50.7548715 -0.203516E-07  0.169E-03    9.20      11.6  T
speedup  0.91
cpu  time for SCC    0.00 s
wall time for SCC    0.01 s
speedup  0.98
cpu  time for grad    0.01 s
wall time for grad    0.01 s
 E :    -50.45943586  G :  0.033222    pred/act E change: -0.429D-02 -0.269D-02
Maxdispl :   0.2108   ||displ|| :   0.3308   Lambda : -0.234D-02
Largest |displ|/coords:  0.2108 (   5)  0.1018 (   6)  0.0907 (  33)
................................................................................
.............................. CYCLE    5 ......................................
................................................................................
   1    -50.7572234 -0.507572E+02  0.223E-01    9.14       0.0  T
   2    -50.7572854 -0.619300E-04  0.169E-01    9.16       1.0  T
   3    -50.7573037 -0.183794E-04  0.542E-02    9.19       1.0  T
   4    -50.7573114 -0.764767E-05  0.134E-02    9.19       1.5  T
   5    -50.7573116 -0.216341E-06  0.292E-03    9.18       6.7  T
   6    -50.7573116 -0.116646E-07  0.133E-03    9.18      14.8  T
speedup  1.11
cpu  time for SCC    0.01 s
wall time for SCC    0.01 s
speedup  1.00
cpu  time for grad    0.01 s
wall time for grad    0.01 s
 E :    -50.46049019  G :  0.011776    pred/act E change: -0.197D-02 -0.105D-02
Maxdispl :   0.2872   ||displ|| :   0.4479   Lambda : -0.193D-02
Largest |displ|/coords:  0.2872 (   3)  0.1343 (   7)  0.1328 (   1)
................................................................................
.............................. CYCLE    6 ......................................
................................................................................
   1    -50.7483358 -0.507483E+02  0.619E-01    9.10       0.0  T
   2    -50.7484416 -0.105846E-03  0.473E-01    9.11       1.0  T
   3    -50.7485161 -0.744473E-04  0.560E-02    9.16       1.0  T
   4    -50.7485325 -0.164483E-04  0.199E-02    9.15       1.0  T
   5    -50.7485332 -0.697429E-06  0.500E-03    9.14       3.9  T
   6    -50.7485332 -0.101130E-07  0.245E-03    9.14       8.0  T
   7    -50.7485332 -0.133973E-07  0.782E-04    9.14      25.1  T
speedup  0.97
cpu  time for SCC    0.01 s
wall time for SCC    0.01 s
speedup  1.01
cpu  time for grad    0.01 s
wall time for grad    0.01 s
 E :    -50.45848514  G :  0.051342    pred/act E change: -0.130D-02  0.201D-02
Maxdispl :   0.2668   ||displ|| :   0.4741   Lambda : -0.106D-01
Largest |displ|/coords:  0.2668 (   2)  0.2650 (   3)  0.1250 (   7)
................................................................................
.............................. CYCLE    7 ......................................
................................................................................
   1    -50.7585942 -0.507586E+02  0.698E-01    9.18       0.0  T
   2    -50.7588167 -0.222482E-03  0.531E-01    9.18       1.0  T
   3    -50.7589559 -0.139271E-03  0.861E-02    9.17       1.0  T
   4    -50.7589923 -0.363861E-04  0.242E-02    9.17       1.0  T
   5    -50.7589938 -0.148337E-05  0.825E-03    9.17       2.4  T
   6    -50.7589938 -0.329925E-07  0.397E-03    9.17       4.9  T
   7    -50.7589938 -0.237813E-07  0.895E-04    9.17      21.9  T
speedup  0.97
cpu  time for SCC    0.01 s
wall time for SCC    0.01 s
speedup  1.00
cpu  time for grad    0.01 s
wall time for grad    0.01 s
 E :    -50.46012441  G :  0.030770    pred/act E change: -0.116D-02 -0.164D-02
Maxdispl :   0.0792   ||displ|| :   0.2031   Lambda : -0.147D-02
Largest |displ|/coords:  0.0792 (   1)  0.0771 (   7)  0.0647 (  12)
................................................................................
.............................. CYCLE    8 ......................................
................................................................................
   1    -50.7604714 -0.507605E+02  0.197E-01    9.18       0.0  T
   2    -50.7604799 -0.854379E-05  0.149E-01    9.18       1.0  T
   3    -50.7604869 -0.695625E-05  0.163E-02    9.17       1.2  T
   4    -50.7604880 -0.110723E-05  0.583E-03    9.18       3.4  T
   5    -50.7604880 -0.468874E-07  0.180E-03    9.18      10.9  T
speedup  1.14
cpu  time for SCC    0.00 s
wall time for SCC    0.00 s
speedup  0.99
cpu  time for grad    0.01 s
wall time for grad    0.01 s
 E :    -50.46084236  G :  0.016650    pred/act E change: -0.651D-02 -0.718D-03
Maxdispl :   0.0953   ||displ|| :   0.1961   Lambda : -0.742D-03
Largest |displ|/coords:  0.0953 (   5)  0.0664 (   1)  0.0634 (   7)
................................................................................
.............................. CYCLE    9 ......................................
................................................................................
   1    -50.7555011 -0.507555E+02  0.167E-01    9.10       0.0  T
   2    -50.7555134 -0.123067E-04  0.126E-01    9.12       1.0  T
   3    -50.7555218 -0.844475E-05  0.200E-02    9.15       1.0  T
   4    -50.7555236 -0.176590E-05  0.717E-03    9.14       2.7  T
   5    -50.7555237 -0.109656E-06  0.215E-03    9.14       9.1  T
   6    -50.7555237 -0.344951E-08  0.121E-03    9.14      16.3  T
speedup  0.94
cpu  time for SCC    0.01 s
wall time for SCC    0.01 s
speedup  0.98
cpu  time for grad    0.01 s
wall time for grad    0.01 s
 E :    -50.46113134  G :  0.011973    pred/act E change: -0.766D-03 -0.289D-03
Maxdispl :   0.0553   ||displ|| :   0.0941   Lambda : -0.245D-03
Largest |displ|/coords:  0.0553 (   5)  0.0394 (  17)  0.0305 (   2)
................................................................................
.............................. CYCLE   10 ......................................
................................................................................
   1    -50.7560665 -0.507561E+02  0.719E-02    9.16       0.0  T
   2    -50.7560688 -0.226119E-05  0.539E-02    9.16       1.0  T
   3    -50.7560698 -0.102831E-05  0.848E-03    9.14       2.3  T
   4    -50.7560702 -0.376062E-06  0.311E-03    9.15       6.3  T
   5    -50.7560702 -0.172178E-07  0.825E-04    9.15      23.8  T
   6    -50.7560702 -0.626457E-09  0.446E-04    9.15      44.0  T
speedup  1.13
cpu  time for SCC    0.01 s
wall time for SCC    0.01 s
speedup  1.01
cpu  time for grad    0.01 s
wall time for grad    0.01 s
 E :    -50.46126347  G :  0.008066    pred/act E change: -0.385D-03 -0.132D-03
Maxdispl :   0.0840   ||displ|| :   0.1293   Lambda : -0.186D-03
Largest |displ|/coords:  0.0840 (   5)  0.0455 (   1)  0.0362 (   2)
................................................................................
.............................. CYCLE   11 ......................................
................................................................................
   1    -50.7562771 -0.507563E+02  0.831E-02    9.14       0.0  T
   2    -50.7562784 -0.125643E-05  0.628E-02    9.14       1.0  T
   3    -50.7562797 -0.129643E-05  0.579E-03    9.14       3.4  T
   4    -50.7562798 -0.119153E-06  0.296E-03    9.14       6.6  T
   5    -50.7562798 -0.909917E-08  0.789E-04    9.14      24.9  T
speedup  0.91
cpu  time for SCC    0.00 s
wall time for SCC    0.00 s
speedup  0.99
cpu  time for grad    0.01 s
wall time for grad    0.01 s
 E :    -50.46139554  G :  0.006816    pred/act E change: -0.123D-03 -0.132D-03
Maxdispl :   0.1884   ||displ|| :   0.2945   Lambda : -0.314D-03
Largest |displ|/coords:  0.1884 (   5)  0.1154 (   1)  0.0705 (   2)
................................................................................
.............................. CYCLE   12 ......................................
................................................................................
   1    -50.7565133 -0.507565E+02  0.169E-01    9.14       0.0  T
   2    -50.7565182 -0.491609E-05  0.128E-01    9.15       1.0  T
   3    -50.7565245 -0.625219E-05  0.117E-02    9.15       1.7  T
   4    -50.7565248 -0.278115E-06  0.475E-03    9.15       4.1  T
   5    -50.7565248 -0.261289E-07  0.177E-03    9.15      11.1  T
   6    -50.7565248 -0.457993E-08  0.101E-03    9.15      19.3  T
speedup  1.13
cpu  time for SCC    0.01 s
wall time for SCC    0.01 s
speedup  1.00
cpu  time for grad    0.01 s
wall time for grad    0.01 s
 E :    -50.46160987  G :  0.006753    pred/act E change: -0.946D-04 -0.214D-03
Maxdispl :   0.1625   ||displ|| :   0.2459   Lambda : -0.192D-03
Largest |displ|/coords:  0.1625 (   5)  0.0782 (   1)  0.0686 (   2)
................................................................................
.............................. CYCLE   13 ......................................
................................................................................
   1    -50.7564190 -0.507564E+02  0.159E-01    9.14       0.0  T
   2    -50.7564233 -0.430284E-05  0.120E-01    9.15       1.0  T
   3    -50.7564281 -0.480913E-05  0.113E-02    9.15       1.7  T
   4    -50.7564284 -0.352937E-06  0.490E-03    9.15       4.0  T
   5    -50.7564284 -0.260597E-07  0.161E-03    9.15      12.1  T
   6    -50.7564284 -0.329747E-08  0.973E-04    9.15      20.2  T
speedup  0.93
cpu  time for SCC    0.00 s
wall time for SCC    0.01 s
speedup  0.99
cpu  time for grad    0.01 s
wall time for grad    0.01 s
 E :    -50.46169876  G :  0.008301    pred/act E change: -0.171D-03 -0.889D-04
Maxdispl :   0.0614   ||displ|| :   0.1344   Lambda : -0.147D-03
Largest |displ|/coords:  0.0614 (   1)  0.0563 (   5)  0.0446 (   6)
................................................................................
.............................. CYCLE   14 ......................................
................................................................................
   1    -50.7576543 -0.507577E+02  0.837E-02    9.20       0.0  T
   2    -50.7576560 -0.174930E-05  0.631E-02    9.20       1.0  T
   3    -50.7576581 -0.207411E-05  0.819E-03    9.20       2.4  T
   4    -50.7576582 -0.136607E-06  0.221E-03    9.20       8.9  T
   5    -50.7576582 -0.683344E-08  0.105E-03    9.20      18.7  T
speedup  1.14
cpu  time for SCC    0.00 s
wall time for SCC    0.00 s
speedup  1.05
cpu  time for grad    0.01 s
wall time for grad    0.01 s
 E :    -50.46176744  G :  0.005655    pred/act E change: -0.102D-03 -0.687D-04
Maxdispl :   0.0333   ||displ|| :   0.0593   Lambda : -0.770D-04
Largest |displ|/coords:  0.0333 (   4)  0.0223 (   2)  0.0165 (  24)
................................................................................
.............................. CYCLE   15 ......................................
................................................................................
   1    -50.7593711 -0.507594E+02  0.565E-02    9.23       0.0  T
   2    -50.7593717 -0.659795E-06  0.426E-02    9.22       1.0  T
   3    -50.7593722 -0.477084E-06  0.491E-03    9.21       4.0  T
   4    -50.7593723 -0.922730E-07  0.150E-03    9.22      13.0  T
   5    -50.7593723 -0.362196E-08  0.504E-04    9.22      38.9  T
speedup  1.14
cpu  time for SCC    0.00 s
wall time for SCC    0.00 s
speedup  0.98
cpu  time for grad    0.01 s
wall time for grad    0.01 s
 E :    -50.46180364  G :  0.003654    pred/act E change: -0.748D-04 -0.362D-04
Maxdispl :   0.0556   ||displ|| :   0.1337   Lambda : -0.855D-04
Largest |displ|/coords:  0.0556 (   2)  0.0487 (   5)  0.0476 (   4)
................................................................................
.............................. CYCLE   16 ......................................
................................................................................
   1    -50.7574481 -0.507574E+02  0.121E-01    9.21       0.0  T
   2    -50.7574504 -0.227920E-05  0.913E-02    9.21       1.0  T
   3    -50.7574527 -0.228932E-05  0.800E-03    9.21       2.5  T
   4    -50.7574529 -0.228052E-06  0.283E-03    9.21       6.9  T
   5    -50.7574529 -0.111768E-07  0.105E-03    9.21      18.8  T
   6    -50.7574529 -0.121432E-08  0.559E-04    9.21      35.1  T
   7    -50.7574529 -0.740044E-09  0.129E-04    9.21     151.7  T
speedup  0.98
cpu  time for SCC    0.01 s
wall time for SCC    0.01 s
speedup  0.97
cpu  time for grad    0.01 s
wall time for grad    0.01 s
 E :    -50.46181713  G :  0.007996    pred/act E change: -0.386D-04 -0.135D-04
Maxdispl :   0.0435   ||displ|| :   0.0735   Lambda : -0.102D-03
Largest |displ|/coords:  0.0435 (   5)  0.0249 (   2)  0.0223 (  26)
................................................................................
.............................. CYCLE   17 ......................................
................................................................................
   1    -50.7592708 -0.507593E+02  0.551E-02    9.21       0.0  T
   2    -50.7592723 -0.148239E-05  0.414E-02    9.21       1.0  T
   3    -50.7592735 -0.121837E-05  0.688E-03    9.21       2.9  T
   4    -50.7592737 -0.181224E-06  0.194E-03    9.21      10.1  T
   5    -50.7592737 -0.482086E-08  0.793E-04    9.21      24.7  T
speedup  0.89
cpu  time for SCC    0.00 s
wall time for SCC    0.00 s
speedup  0.98
cpu  time for grad    0.01 s
wall time for grad    0.01 s
 E :    -50.46183746  G :  0.005634    pred/act E change: -0.435D-04 -0.203D-04
Maxdispl :   0.0196   ||displ|| :   0.0500   Lambda : -0.763D-04
Largest |displ|/coords:  0.0196 (   1)  0.0179 (   5)  0.0146 (  13)
................................................................................
.............................. CYCLE   18 ......................................
................................................................................
   1    -50.7591208 -0.507591E+02  0.521E-02    9.21       0.0  T
   2    -50.7591218 -0.102022E-05  0.397E-02    9.21       1.0  T
   3    -50.7591225 -0.718177E-06  0.505E-03    9.21       3.9  T
   4    -50.7591227 -0.177330E-06  0.174E-03    9.21      11.3  T
   5    -50.7591227 -0.492035E-08  0.566E-04    9.21      34.7  T
speedup  0.87
cpu  time for SCC    0.00 s
wall time for SCC    0.00 s
speedup  0.97
cpu  time for grad    0.01 s
wall time for grad    0.01 s
 E :    -50.46186995  G :  0.002453    pred/act E change: -0.512D-04 -0.325D-04
Maxdispl :   0.0268   ||displ|| :   0.0623   Lambda : -0.307D-04
Largest |displ|/coords:  0.0268 (   4)  0.0211 (   2)  0.0198 (  19)
................................................................................
.............................. CYCLE   19 ......................................
................................................................................
   1    -50.7582974 -0.507583E+02  0.526E-02    9.22       0.0  T
   2    -50.7582979 -0.415315E-06  0.397E-02    9.22       1.0  T
   3    -50.7582982 -0.351296E-06  0.330E-03    9.21       5.9  T
   4    -50.7582983 -0.574992E-07  0.107E-03    9.21      18.3  T
   5    -50.7582983 -0.157303E-08  0.442E-04    9.21      44.3  T
   6    -50.7582983 -0.225178E-09  0.204E-04    9.21      96.2  T
speedup  0.96
cpu  time for SCC    0.00 s
wall time for SCC    0.01 s
speedup  0.96
cpu  time for grad    0.01 s
wall time for grad    0.01 s
 E :    -50.46189046  G :  0.002745    pred/act E change: -0.383D-04 -0.205D-04
Maxdispl :   0.0455   ||displ|| :   0.1091   Lambda : -0.365D-04
Largest |displ|/coords:  0.0455 (   4)  0.0376 (  12)  0.0365 (  19)
................................................................................
.............................. CYCLE   20 ......................................
................................................................................
   1    -50.7576602 -0.507577E+02  0.897E-02    9.21       0.0  T
   2    -50.7576613 -0.109521E-05  0.678E-02    9.21       1.0  T
   3    -50.7576623 -0.103623E-05  0.554E-03    9.20       3.5  T
   4    -50.7576624 -0.127014E-06  0.183E-03    9.20      10.7  T
   5    -50.7576625 -0.412560E-08  0.701E-04    9.20      28.0  T
   6    -50.7576625 -0.527280E-09  0.340E-04    9.20      57.6  T
speedup  0.94
cpu  time for SCC    0.01 s
wall time for SCC    0.01 s
speedup  1.02
cpu  time for grad    0.01 s
wall time for grad    0.01 s
 E :    -50.46191480  G :  0.004632    pred/act E change: -0.154D-04 -0.243D-04
Maxdispl :   0.0656   ||displ|| :   0.1447   Lambda : -0.498D-04
Largest |displ|/coords:  0.0656 (   4)  0.0517 (  12)  0.0462 (  19)
................................................................................
.............................. CYCLE   21 ......................................
................................................................................
   1    -50.7569520 -0.507570E+02  0.102E-01    9.20       0.0  T
   2    -50.7569532 -0.118074E-05  0.770E-02    9.20       1.0  T
   3    -50.7569544 -0.113102E-05  0.639E-03    9.20       3.1  T
   4    -50.7569545 -0.136099E-06  0.214E-03    9.20       9.1  T
   5    -50.7569545 -0.440542E-08  0.771E-04    9.20      25.4  T
speedup  1.09
cpu  time for SCC    0.00 s
wall time for SCC    0.00 s
speedup  0.96
cpu  time for grad    0.01 s
wall time for grad    0.01 s
 E :    -50.46194928  G :  0.004432    pred/act E change: -0.184D-04 -0.345D-04
Maxdispl :   0.0561   ||displ|| :   0.1436   Lambda : -0.487D-04
Largest |displ|/coords:  0.0561 (  12)  0.0548 (   4)  0.0452 (  19)
................................................................................
.............................. CYCLE   22 ......................................
................................................................................
   1    -50.7571411 -0.507571E+02  0.100E-01    9.19       0.0  T
   2    -50.7571423 -0.113177E-05  0.754E-02    9.19       1.0  T
   3    -50.7571433 -0.108013E-05  0.745E-03    9.18       2.6  T
   4    -50.7571435 -0.124302E-06  0.212E-03    9.18       9.2  T
   5    -50.7571435 -0.545256E-08  0.755E-04    9.18      26.0  T
speedup  0.89
cpu  time for SCC    0.00 s
wall time for SCC    0.00 s
speedup  0.98
cpu  time for grad    0.01 s
wall time for grad    0.01 s
 E :    -50.46198465  G :  0.003357    pred/act E change: -0.254D-04 -0.354D-04
Maxdispl :   0.0667   ||displ|| :   0.1700   Lambda : -0.461D-04
Largest |displ|/coords:  0.0667 (  12)  0.0574 (   4)  0.0547 (  19)
................................................................................
.............................. CYCLE   23 ......................................
................................................................................
   1    -50.7569385 -0.507569E+02  0.122E-01    9.18       0.0  T
   2    -50.7569403 -0.175655E-05  0.919E-02    9.18       1.0  T
   3    -50.7569420 -0.170140E-05  0.979E-03    9.17       2.0  T
   4    -50.7569422 -0.199664E-06  0.282E-03    9.17       7.0  T
   5    -50.7569422 -0.970596E-08  0.966E-04    9.17      20.3  T
   6    -50.7569422 -0.846200E-09  0.476E-04    9.17      41.2  T
speedup  0.91
cpu  time for SCC    0.00 s
wall time for SCC    0.01 s
speedup  1.01
cpu  time for grad    0.01 s
wall time for grad    0.01 s
 E :    -50.46201742  G :  0.003201    pred/act E change: -0.249D-04 -0.328D-04
Maxdispl :   0.0663   ||displ|| :   0.1572   Lambda : -0.499D-04
Largest |displ|/coords:  0.0663 (  12)  0.0561 (   8)  0.0448 (  19)
................................................................................
.............................. CYCLE   24 ......................................
................................................................................
   1    -50.7582343 -0.507582E+02  0.108E-01    9.17       0.0  T
   2    -50.7582358 -0.150684E-05  0.802E-02    9.17       1.0  T
   3    -50.7582369 -0.113854E-05  0.109E-02    9.17       1.8  T
   4    -50.7582371 -0.210661E-06  0.290E-03    9.17       6.8  T
   5    -50.7582371 -0.926798E-08  0.847E-04    9.17      23.1  T
   6    -50.7582371 -0.603208E-09  0.494E-04    9.17      39.7  T
speedup  0.93
cpu  time for SCC    0.00 s
wall time for SCC    0.01 s
speedup  0.95
cpu  time for grad    0.01 s
wall time for grad    0.01 s
 E :    -50.46204585  G :  0.002858    pred/act E change: -0.237D-04 -0.284D-04
Maxdispl :   0.1317   ||displ|| :   0.3459   Lambda : -0.662D-04
Largest |displ|/coords:  0.1317 (  12)  0.1169 (  19)  0.1095 (   5)
................................................................................
.............................. CYCLE   25 ......................................
................................................................................
   1    -50.7549746 -0.507550E+02  0.267E-01    9.12       0.0  T
   2    -50.7549860 -0.114003E-04  0.200E-01    9.12       1.0  T
   3    -50.7549951 -0.912714E-05  0.244E-02    9.12       1.0  T
   4    -50.7549967 -0.153594E-05  0.700E-03    9.12       2.8  T
   5    -50.7549967 -0.795755E-07  0.249E-03    9.12       7.9  T
   6    -50.7549967 -0.544113E-08  0.135E-03    9.12      14.5  T
   7    -50.7549967 -0.388403E-08  0.293E-04    9.12      66.9  T
   8    -50.7549967 -0.242785E-09  0.840E-05    9.12     233.6  T
speedup  0.99
cpu  time for SCC    0.01 s
wall time for SCC    0.01 s
speedup  0.97
cpu  time for grad    0.01 s
wall time for grad    0.02 s
 E :    -50.46201289  G :  0.010590    pred/act E change: -0.256D-04  0.330D-04
Maxdispl :   0.0674   ||displ|| :   0.1854   Lambda : -0.174D-03
Largest |displ|/coords:  0.0674 (   4)  0.0641 (  12)  0.0635 (   1)

generating ANC from model Hessian ...
 Shifting diagonal of input Hessian by   5.002469849379378E-003
 Lowest  eigenvalues of input Hessian
    0.005000   -0.000000   -0.000000   -0.000000    0.000000    0.000000
    0.000000    0.005367    0.005717    0.005872    0.006405    0.006821
    0.007196    0.007628    0.008419    0.009830    0.009947    0.010662
 Highest eigenvalues
    1.417621    1.418849    1.420298    2.627506    3.432571    3.648959
 
cpu  time for ANC gen    0.02 s
wall time for ANC gen    0.02 s
................................................................................
.............................. CYCLE   26 ......................................
................................................................................
   1    -50.7586980 -0.507587E+02  0.145E-01    9.17       0.0  T
   2    -50.7587023 -0.432824E-05  0.109E-01    9.17       1.0  T
   3    -50.7587057 -0.337393E-05  0.133E-02    9.18       1.5  T
   4    -50.7587063 -0.573234E-06  0.374E-03    9.18       5.2  T
   5    -50.7587063 -0.316713E-07  0.146E-03    9.18      13.4  T
   6    -50.7587063 -0.171007E-08  0.778E-04    9.18      25.2  T
   7    -50.7587063 -0.160262E-08  0.163E-04    9.18     120.4  T
speedup  0.97
cpu  time for SCC    0.01 s
wall time for SCC    0.01 s
speedup  1.01
cpu  time for grad    0.01 s
wall time for grad    0.01 s
 E :    -50.46208157  G :  0.002787    pred/act E change:  0.000D+00 -0.687D-04
Maxdispl :   0.0245   ||displ|| :   0.0421   Lambda : -0.284D-04
Largest |displ|/coords:  0.0245 (  12)  0.0136 (   7)  0.0127 (  10)
................................................................................
.............................. CYCLE   27 ......................................
................................................................................
   1    -50.7582644 -0.507583E+02  0.336E-02    9.18       0.0  T
   2    -50.7582647 -0.257868E-06  0.255E-02    9.18       1.0  T
   3    -50.7582649 -0.248290E-06  0.272E-03    9.18       7.2  T
   4    -50.7582650 -0.308692E-07  0.100E-03    9.18      19.6  T
   5    -50.7582650 -0.122141E-08  0.330E-04    9.18      59.4  T
speedup  0.87
cpu  time for SCC    0.00 s
wall time for SCC    0.00 s
speedup  1.01
cpu  time for grad    0.01 s
wall time for grad    0.01 s
 E :    -50.46209767  G :  0.001411    pred/act E change:  0.000D+00 -0.161D-04
Maxdispl :   0.0237   ||displ|| :   0.0494   Lambda : -0.172D-04
Largest |displ|/coords:  0.0237 (   4)  0.0209 (   2)  0.0174 (   1)
................................................................................
.............................. CYCLE   28 ......................................
................................................................................
   1    -50.7578669 -0.507579E+02  0.296E-02    9.18       0.0  T
   2    -50.7578671 -0.195536E-06  0.223E-02    9.18       1.0  T
   3    -50.7578672 -0.119126E-06  0.262E-03    9.18       7.5  T
   4    -50.7578672 -0.349247E-07  0.106E-03    9.18      18.4  T
   5    -50.7578672 -0.160829E-08  0.296E-04    9.18      66.3  T
   6    -50.7578672 -0.994334E-10  0.169E-04    9.18     115.8  T
speedup  1.13
cpu  time for SCC    0.01 s
wall time for SCC    0.01 s
speedup  1.02
cpu  time for grad    0.01 s
wall time for grad    0.01 s
 E :    -50.46211047  G :  0.001098    pred/act E change: -0.142D-04 -0.128D-04
Maxdispl :   0.0489   ||displ|| :   0.0990   Lambda : -0.218D-04
Largest |displ|/coords:  0.0489 (   2)  0.0402 (   1)  0.0393 (   4)
................................................................................
.............................. CYCLE   29 ......................................
................................................................................
   1    -50.7575144 -0.507575E+02  0.541E-02    9.18       0.0  T
   2    -50.7575149 -0.503922E-06  0.408E-02    9.18       1.0  T
   3    -50.7575153 -0.362587E-06  0.416E-03    9.19       4.7  T
   4    -50.7575154 -0.803565E-07  0.189E-03    9.19      10.4  T
   5    -50.7575154 -0.393617E-08  0.488E-04    9.19      40.2  T
   6    -50.7575154 -0.274383E-09  0.290E-04    9.19      67.6  T
speedup  0.94
cpu  time for SCC    0.00 s
wall time for SCC    0.01 s
speedup  1.02
cpu  time for grad    0.01 s
wall time for grad    0.01 s
 E :    -50.46212570  G :  0.002026    pred/act E change: -0.864D-05 -0.152D-04
Maxdispl :   0.0592   ||displ|| :   0.1263   Lambda : -0.202D-04
Largest |displ|/coords:  0.0592 (   2)  0.0572 (   4)  0.0495 (   1)
................................................................................
.............................. CYCLE   30 ......................................
................................................................................
   1    -50.7573942 -0.507574E+02  0.649E-02    9.19       0.0  T
   2    -50.7573947 -0.554137E-06  0.489E-02    9.19       1.0  T
   3    -50.7573952 -0.454090E-06  0.450E-03    9.19       4.4  T
   4    -50.7573952 -0.765358E-07  0.218E-03    9.19       9.0  T
   5    -50.7573952 -0.455959E-08  0.515E-04    9.19      38.1  T
   6    -50.7573952 -0.302123E-09  0.331E-04    9.19      59.3  T
speedup  1.13
cpu  time for SCC    0.01 s
wall time for SCC    0.01 s
speedup  1.03
cpu  time for grad    0.01 s
wall time for grad    0.01 s
 E :    -50.46214092  G :  0.002364    pred/act E change: -0.110D-04 -0.152D-04
Maxdispl :   0.1036   ||displ|| :   0.2092   Lambda : -0.307D-04
Largest |displ|/coords:  0.1036 (   2)  0.0961 (   6)  0.0906 (   4)
................................................................................
.............................. CYCLE   31 ......................................
................................................................................
   1    -50.7572888 -0.507573E+02  0.104E-01    9.19       0.0  T
   2    -50.7572901 -0.132343E-05  0.786E-02    9.19       1.0  T
   3    -50.7572913 -0.124689E-05  0.702E-03    9.19       2.8  T
   4    -50.7572915 -0.150973E-06  0.327E-03    9.19       6.0  T
   5    -50.7572915 -0.953374E-08  0.791E-04    9.19      24.8  T
   6    -50.7572915 -0.628916E-09  0.518E-04    9.19      37.9  T
speedup  0.93
cpu  time for SCC    0.01 s
wall time for SCC    0.01 s
speedup  0.95
cpu  time for grad    0.01 s
wall time for grad    0.01 s
 E :    -50.46216413  G :  0.002810    pred/act E change: -0.102D-04 -0.232D-04
Maxdispl :   0.1397   ||displ|| :   0.2709   Lambda : -0.425D-04
Largest |displ|/coords:  0.1397 (   6)  0.1318 (   4)  0.1182 (   2)
................................................................................
.............................. CYCLE   32 ......................................
................................................................................
   1    -50.7571683 -0.507572E+02  0.131E-01    9.19       0.0  T
   2    -50.7571703 -0.198878E-05  0.984E-02    9.19       1.0  T
   3    -50.7571721 -0.179483E-05  0.905E-03    9.19       2.2  T
   4    -50.7571723 -0.244012E-06  0.373E-03    9.19       5.3  T
   5    -50.7571723 -0.139671E-07  0.102E-03    9.19      19.3  T
   6    -50.7571723 -0.973380E-09  0.634E-04    9.19      30.9  T
   7    -50.7571723 -0.676138E-09  0.128E-04    9.19     153.1  T
speedup  0.97
cpu  time for SCC    0.01 s
wall time for SCC    0.01 s
speedup  1.03
cpu  time for grad    0.01 s
wall time for grad    0.01 s
 E :    -50.46219660  G :  0.003401    pred/act E change: -0.161D-04 -0.325D-04
Maxdispl :   0.1750   ||displ|| :   0.3009   Lambda : -0.591D-04
Largest |displ|/coords:  0.1750 (   6)  0.1432 (   4)  0.1211 (   2)
................................................................................
.............................. CYCLE   33 ......................................
................................................................................
   1    -50.7575037 -0.507575E+02  0.135E-01    9.18       0.0  T
   2    -50.7575059 -0.224168E-05  0.101E-01    9.18       1.0  T
   3    -50.7575078 -0.187933E-05  0.101E-02    9.18       1.9  T
   4    -50.7575081 -0.310362E-06  0.340E-03    9.18       5.8  T
   5    -50.7575081 -0.123817E-07  0.114E-03    9.18      17.3  T
   6    -50.7575081 -0.111135E-08  0.614E-04    9.18      31.9  T
   7    -50.7575081 -0.608559E-09  0.138E-04    9.18     142.5  T
speedup  1.11
cpu  time for SCC    0.01 s
wall time for SCC    0.01 s
speedup  1.03
cpu  time for grad    0.01 s
wall time for grad    0.01 s
 E :    -50.46223910  G :  0.003498    pred/act E change: -0.228D-04 -0.425D-04
Maxdispl :   0.1857   ||displ|| :   0.3045   Lambda : -0.531D-04
Largest |displ|/coords:  0.1857 (   6)  0.1613 (   4)  0.1028 (   2)
................................................................................
.............................. CYCLE   34 ......................................
................................................................................
   1    -50.7565713 -0.507566E+02  0.154E-01    9.18       0.0  T
   2    -50.7565740 -0.270505E-05  0.116E-01    9.18       1.0  T
   3    -50.7565765 -0.256607E-05  0.991E-03    9.17       2.0  T
   4    -50.7565769 -0.324012E-06  0.346E-03    9.17       5.7  T
   5    -50.7565769 -0.168481E-07  0.136E-03    9.17      14.4  T
   6    -50.7565769 -0.137371E-08  0.632E-04    9.17      31.0  T
   7    -50.7565769 -0.107758E-08  0.126E-04    9.17     155.3  T
speedup  0.98
cpu  time for SCC    0.01 s
wall time for SCC    0.01 s
speedup  0.97
cpu  time for grad    0.01 s
wall time for grad    0.01 s
 E :    -50.46227339  G :  0.006240    pred/act E change: -0.322D-04 -0.343D-04
Maxdispl :   0.2075   ||displ|| :   0.3098   Lambda : -0.138D-03
Largest |displ|/coords:  0.2075 (   6)  0.1422 (   4)  0.0984 (   7)
................................................................................
.............................. CYCLE   35 ......................................
................................................................................
   1    -50.7594270 -0.507594E+02  0.122E-01    9.19       0.0  T
   2    -50.7594306 -0.356084E-05  0.913E-02    9.18       1.0  T
   3    -50.7594327 -0.211177E-05  0.124E-02    9.16       1.6  T
   4    -50.7594333 -0.577007E-06  0.407E-03    9.17       4.8  T
   5    -50.7594333 -0.246549E-07  0.120E-03    9.17      16.4  T
   6    -50.7594333 -0.104453E-08  0.696E-04    9.17      28.2  T
speedup  0.93
cpu  time for SCC    0.00 s
wall time for SCC    0.01 s
speedup  0.98
cpu  time for grad    0.01 s
wall time for grad    0.01 s
 E :    -50.46227088  G :  0.007958    pred/act E change: -0.290D-04  0.251D-05
Maxdispl :   0.1221   ||displ|| :   0.2083   Lambda : -0.166D-03
Largest |displ|/coords:  0.1221 (   6)  0.1166 (   4)  0.0664 (   2)
................................................................................
.............................. CYCLE   36 ......................................
................................................................................
   1    -50.7565339 -0.507565E+02  0.142E-01    9.17       0.0  T
   2    -50.7565377 -0.378911E-05  0.108E-01    9.17       1.0  T
   3    -50.7565415 -0.377000E-05  0.994E-03    9.18       2.0  T
   4    -50.7565419 -0.407598E-06  0.298E-03    9.18       6.6  T
   5    -50.7565419 -0.793485E-08  0.152E-03    9.18      12.9  T
speedup  1.11
cpu  time for SCC    0.00 s
wall time for SCC    0.00 s
speedup  0.98
cpu  time for grad    0.01 s
wall time for grad    0.01 s
 E :    -50.46232554  G :  0.011049    pred/act E change: -0.754D-04 -0.547D-04
Maxdispl :   0.1151   ||displ|| :   0.1866   Lambda : -0.200D-03
Largest |displ|/coords:  0.1151 (   6)  0.0873 (   4)  0.0569 (   3)
................................................................................
.............................. CYCLE   37 ......................................
................................................................................
   1    -50.7552445 -0.507552E+02  0.105E-01    9.17       0.0  T
   2    -50.7552498 -0.528187E-05  0.788E-02    9.17       1.0  T
   3    -50.7552528 -0.305542E-05  0.147E-02    9.18       1.3  T
   4    -50.7552536 -0.771042E-06  0.404E-03    9.18       4.8  T
   5    -50.7552536 -0.344509E-07  0.137E-03    9.18      14.4  T
   6    -50.7552536 -0.916096E-09  0.755E-04    9.18      26.0  T
speedup  0.94
cpu  time for SCC    0.00 s
wall time for SCC    0.01 s
speedup  1.00
cpu  time for grad    0.01 s
wall time for grad    0.01 s
 E :    -50.46231078  G :  0.012021    pred/act E change: -0.864D-04  0.148D-04
Maxdispl :   0.0982   ||displ|| :   0.1518   Lambda : -0.220D-03
Largest |displ|/coords:  0.0982 (   2)  0.0696 (   6)  0.0356 (  12)
................................................................................
.............................. CYCLE   38 ......................................
................................................................................
   1    -50.7575370 -0.507575E+02  0.107E-01    9.19       0.0  T
   2    -50.7575409 -0.392257E-05  0.799E-02    9.18       1.0  T
   3    -50.7575436 -0.275018E-05  0.117E-02    9.18       1.7  T
   4    -50.7575442 -0.549742E-06  0.303E-03    9.18       6.5  T
   5    -50.7575442 -0.165412E-07  0.130E-03    9.18      15.1  T
   6    -50.7575442 -0.147045E-08  0.689E-04    9.18      28.4  T
speedup  1.09
cpu  time for SCC    0.01 s
wall time for SCC    0.01 s
speedup  1.06
cpu  time for grad    0.01 s
wall time for grad    0.01 s
 E :    -50.46239297  G :  0.002811    pred/act E change: -0.103D-03 -0.822D-04
Maxdispl :   0.2480   ||displ|| :   0.3675   Lambda : -0.997D-04
Largest |displ|/coords:  0.2480 (   6)  0.1800 (   4)  0.0951 (   3)
................................................................................
.............................. CYCLE   39 ......................................
................................................................................
   1    -50.7567775 -0.507568E+02  0.170E-01    9.19       0.0  T
   2    -50.7567813 -0.378682E-05  0.128E-01    9.19       1.0  T
   3    -50.7567848 -0.348722E-05  0.112E-02    9.17       1.8  T
   4    -50.7567853 -0.481078E-06  0.399E-03    9.18       4.9  T
   5    -50.7567853 -0.208917E-07  0.160E-03    9.18      12.3  T
   6    -50.7567853 -0.160175E-08  0.673E-04    9.18      29.2  T
   7    -50.7567853 -0.151464E-08  0.157E-04    9.18     124.7  T
speedup  0.97
cpu  time for SCC    0.01 s
wall time for SCC    0.01 s
speedup  0.95
cpu  time for grad    0.01 s
wall time for grad    0.01 s
 E :    -50.46243587  G :  0.007319    pred/act E change: -0.112D-03 -0.429D-04
Maxdispl :   0.0581   ||displ|| :   0.1186   Lambda : -0.778D-04
Largest |displ|/coords:  0.0581 (   6)  0.0578 (   4)  0.0418 (   7)
................................................................................
.............................. CYCLE   40 ......................................
................................................................................
   1    -50.7568793 -0.507569E+02  0.801E-02    9.18       0.0  T
   2    -50.7568810 -0.161213E-05  0.605E-02    9.18       1.0  T
   3    -50.7568823 -0.134034E-05  0.729E-03    9.18       2.7  T
   4    -50.7568825 -0.206731E-06  0.176E-03    9.18      11.1  T
   5    -50.7568825 -0.290382E-08  0.824E-04    9.18      23.8  T
speedup  0.89
cpu  time for SCC    0.00 s
wall time for SCC    0.00 s
speedup  0.98
cpu  time for grad    0.01 s
wall time for grad    0.01 s
 E :    -50.46245705  G :  0.007675    pred/act E change: -0.566D-04 -0.212D-04
Maxdispl :   0.0362   ||displ|| :   0.0770   Lambda : -0.111D-03
Largest |displ|/coords:  0.0362 (   9)  0.0313 (   4)  0.0199 (  13)
................................................................................
.............................. CYCLE   41 ......................................
................................................................................
   1    -50.7564340 -0.507564E+02  0.645E-02    9.17       0.0  T
   2    -50.7564354 -0.139434E-05  0.483E-02    9.17       1.0  T
   3    -50.7564362 -0.780757E-06  0.820E-03    9.18       2.4  T
   4    -50.7564364 -0.208701E-06  0.213E-03    9.18       9.2  T
   5    -50.7564364 -0.797505E-08  0.577E-04    9.17      34.0  T
speedup  1.09
cpu  time for SCC    0.00 s
wall time for SCC    0.00 s
speedup  1.06
cpu  time for grad    0.01 s
wall time for grad    0.01 s
 E :    -50.46252044  G :  0.004039    pred/act E change: -0.394D-04 -0.634D-04
Maxdispl :   0.1425   ||displ|| :   0.2370   Lambda : -0.689D-04
Largest |displ|/coords:  0.1425 (   4)  0.1303 (   6)  0.0828 (   3)
................................................................................
.............................. CYCLE   42 ......................................
................................................................................
   1    -50.7553426 -0.507553E+02  0.124E-01    9.17       0.0  T
   2    -50.7553440 -0.135903E-05  0.939E-02    9.17       1.0  T
   3    -50.7553458 -0.179621E-05  0.658E-03    9.17       3.0  T
   4    -50.7553458 -0.632743E-07  0.247E-03    9.17       8.0  T
   5    -50.7553458 -0.745948E-08  0.100E-03    9.17      19.6  T
speedup  1.11
cpu  time for SCC    0.00 s
wall time for SCC    0.00 s
speedup  0.98
cpu  time for grad    0.01 s
wall time for grad    0.01 s
 E :    -50.46256021  G :  0.007082    pred/act E change: -0.557D-04 -0.398D-04
Maxdispl :   0.1054   ||displ|| :   0.1850   Lambda : -0.123D-03
Largest |displ|/coords:  0.1054 (   3)  0.0711 (   8)  0.0653 (   4)
................................................................................
.............................. CYCLE   43 ......................................
................................................................................
   1    -50.7580630 -0.507581E+02  0.114E-01    9.18       0.0  T
   2    -50.7580662 -0.322770E-05  0.856E-02    9.17       1.0  T
   3    -50.7580691 -0.287222E-05  0.120E-02    9.17       1.6  T
   4    -50.7580695 -0.405272E-06  0.400E-03    9.17       4.9  T
   5    -50.7580695 -0.238560E-07  0.138E-03    9.17      14.2  T
   6    -50.7580695 -0.215035E-08  0.805E-04    9.17      24.4  T
speedup  0.93
cpu  time for SCC    0.00 s
wall time for SCC    0.01 s
speedup  0.99
cpu  time for grad    0.01 s
wall time for grad    0.01 s
 E :    -50.46258786  G :  0.008800    pred/act E change: -0.364D-04 -0.277D-04
Maxdispl :   0.1310   ||displ|| :   0.2099   Lambda : -0.114D-03
Largest |displ|/coords:  0.1310 (   4)  0.0969 (   6)  0.0670 (   3)
................................................................................
.............................. CYCLE   44 ......................................
................................................................................
   1    -50.7570879 -0.507571E+02  0.106E-01    9.17       0.0  T
   2    -50.7570896 -0.174207E-05  0.801E-02    9.17       1.0  T
   3    -50.7570912 -0.155984E-05  0.702E-03    9.16       2.8  T
   4    -50.7570914 -0.218004E-06  0.233E-03    9.16       8.4  T
   5    -50.7570914 -0.602634E-08  0.105E-03    9.16      18.7  T
speedup  0.89
cpu  time for SCC    0.00 s
wall time for SCC    0.00 s
speedup  0.98
cpu  time for grad    0.01 s
wall time for grad    0.01 s
 E :    -50.46266006  G :  0.005785    pred/act E change: -0.635D-04 -0.722D-04
Maxdispl :   0.1445   ||displ|| :   0.2802   Lambda : -0.996D-04
Largest |displ|/coords:  0.1445 (   4)  0.1432 (   6)  0.1072 (   2)
................................................................................
.............................. CYCLE   45 ......................................
................................................................................
   1    -50.7553922 -0.507554E+02  0.147E-01    9.17       0.0  T
   2    -50.7553952 -0.303144E-05  0.111E-01    9.17       1.0  T
   3    -50.7553981 -0.291759E-05  0.911E-03    9.17       2.2  T
   4    -50.7553984 -0.327786E-06  0.322E-03    9.16       6.1  T
   5    -50.7553984 -0.124508E-07  0.135E-03    9.16      14.5  T
   6    -50.7553984 -0.129718E-08  0.599E-04    9.16      32.8  T
speedup  1.13
cpu  time for SCC    0.01 s
wall time for SCC    0.01 s
speedup  0.99
cpu  time for grad    0.01 s
wall time for grad    0.01 s
 E :    -50.46267426  G :  0.009997    pred/act E change: -0.595D-04 -0.142D-04
Maxdispl :   0.0646   ||displ|| :   0.0933   Lambda : -0.137D-03
Largest |displ|/coords:  0.0646 (   6)  0.0300 (   4)  0.0263 (   7)
................................................................................
.............................. CYCLE   46 ......................................
................................................................................
   1    -50.7584381 -0.507584E+02  0.625E-02    9.17       0.0  T
   2    -50.7584400 -0.190906E-05  0.464E-02    9.17       1.0  T
   3    -50.7584414 -0.139932E-05  0.878E-03    9.17       2.2  T
   4    -50.7584416 -0.205297E-06  0.171E-03    9.17      11.5  T
   5    -50.7584416 -0.384326E-08  0.806E-04    9.17      24.3  T
speedup  0.87
cpu  time for SCC    0.00 s
wall time for SCC    0.00 s
speedup  0.96
cpu  time for grad    0.01 s
wall time for grad    0.01 s
 E :    -50.46270224  G :  0.006797    pred/act E change: -0.537D-04 -0.280D-04
Maxdispl :   0.0962   ||displ|| :   0.1718   Lambda : -0.147D-03
Largest |displ|/coords:  0.0962 (   4)  0.0892 (   3)  0.0566 (   8)
................................................................................
.............................. CYCLE   47 ......................................
................................................................................
   1    -50.7581953 -0.507582E+02  0.114E-01    9.16       0.0  T
   2    -50.7581982 -0.289759E-05  0.858E-02    9.16       1.0  T
   3    -50.7582009 -0.265159E-05  0.104E-02    9.16       1.9  T
   4    -50.7582013 -0.362729E-06  0.335E-03    9.16       5.8  T
   5    -50.7582013 -0.177397E-07  0.140E-03    9.16      14.0  T
   6    -50.7582013 -0.214342E-08  0.728E-04    9.16      26.9  T
speedup  0.93
cpu  time for SCC    0.01 s
wall time for SCC    0.01 s
speedup  0.99
cpu  time for grad    0.01 s
wall time for grad    0.01 s
 E :    -50.46276417  G :  0.006679    pred/act E change: -0.691D-04 -0.619D-04
Maxdispl :   0.0591   ||displ|| :   0.1195   Lambda : -0.651D-04
Largest |displ|/coords:  0.0591 (   4)  0.0541 (   3)  0.0474 (   6)
................................................................................
.............................. CYCLE   48 ......................................
................................................................................
   1    -50.7575050 -0.507575E+02  0.765E-02    9.16       0.0  T
   2    -50.7575057 -0.684096E-06  0.577E-02    9.16       1.0  T
   3    -50.7575065 -0.788504E-06  0.478E-03    9.16       4.1  T
   4    -50.7575065 -0.464135E-07  0.156E-03    9.16      12.6  T
   5    -50.7575065 -0.282330E-08  0.637E-04    9.16      30.8  T
speedup  1.11
cpu  time for SCC    0.00 s
wall time for SCC    0.00 s
speedup  1.06
cpu  time for grad    0.01 s
wall time for grad    0.01 s
 E :    -50.46280864  G :  0.005065    pred/act E change: -0.755D-04 -0.445D-04
Maxdispl :   0.0990   ||displ|| :   0.1793   Lambda : -0.629D-04
Largest |displ|/coords:  0.0990 (   4)  0.0797 (   3)  0.0583 (   2)
................................................................................
.............................. CYCLE   49 ......................................
................................................................................
   1    -50.7571400 -0.507571E+02  0.105E-01    9.15       0.0  T
   2    -50.7571411 -0.115908E-05  0.787E-02    9.15       1.0  T
   3    -50.7571425 -0.134226E-05  0.778E-03    9.16       2.5  T
   4    -50.7571426 -0.823634E-07  0.204E-03    9.15       9.6  T
   5    -50.7571426 -0.562070E-08  0.912E-04    9.15      21.5  T
speedup  1.14
cpu  time for SCC    0.00 s
wall time for SCC    0.00 s
speedup  0.98
cpu  time for grad    0.01 s
wall time for grad    0.01 s
 E :    -50.46285375  G :  0.005621    pred/act E change: -0.330D-04 -0.451D-04
Maxdispl :   0.0806   ||displ|| :   0.1669   Lambda : -0.820D-04
Largest |displ|/coords:  0.0806 (   3)  0.0784 (   4)  0.0500 (   2)
................................................................................
.............................. CYCLE   50 ......................................
................................................................................
   1    -50.7578244 -0.507578E+02  0.118E-01    9.14       0.0  T
   2    -50.7578260 -0.162347E-05  0.880E-02    9.14       1.0  T
   3    -50.7578278 -0.174147E-05  0.110E-02    9.14       1.8  T
   4    -50.7578279 -0.113957E-06  0.169E-03    9.14      11.6  T
   5    -50.7578279 -0.415718E-08  0.968E-04    9.14      20.3  T
speedup  0.89
cpu  time for SCC    0.00 s
wall time for SCC    0.00 s
speedup  0.98
cpu  time for grad    0.01 s
wall time for grad    0.01 s
 E :    -50.46290384  G :  0.004368    pred/act E change: -0.325D-04 -0.501D-04
Maxdispl :   0.2609   ||displ|| :   0.4476   Lambda : -0.119D-03
Largest |displ|/coords:  0.2609 (   4)  0.2177 (   3)  0.1259 (   6)
................................................................................
.............................. CYCLE   51 ......................................
................................................................................
   1    -50.7540278 -0.507540E+02  0.262E-01    9.09       0.0  T
   2    -50.7540360 -0.821550E-05  0.196E-01    9.10       1.0  T
   3    -50.7540454 -0.943646E-05  0.214E-02    9.11       1.0  T
   4    -50.7540460 -0.628204E-06  0.633E-03    9.10       3.1  T
   5    -50.7540461 -0.545195E-07  0.265E-03    9.10       7.4  T
   6    -50.7540461 -0.807231E-08  0.145E-03    9.10      13.5  T
speedup  1.13
cpu  time for SCC    0.01 s
wall time for SCC    0.01 s
speedup  1.06
cpu  time for grad    0.01 s
wall time for grad    0.01 s
 E :    -50.46286770  G :  0.013968    pred/act E change: -0.422D-04  0.361D-04
Maxdispl :   0.1160   ||displ|| :   0.1928   Lambda : -0.299D-03
Largest |displ|/coords:  0.1160 (   4)  0.0772 (   3)  0.0615 (   6)
................................................................................
.............................. CYCLE   52 ......................................
................................................................................
   1    -50.7585511 -0.507586E+02  0.126E-01    9.14       0.0  T
   2    -50.7585548 -0.371039E-05  0.949E-02    9.14       1.0  T
   3    -50.7585577 -0.293549E-05  0.116E-02    9.13       1.7  T
   4    -50.7585582 -0.459170E-06  0.365E-03    9.14       5.4  T
   5    -50.7585582 -0.246931E-07  0.141E-03    9.14      13.9  T
   6    -50.7585582 -0.147501E-08  0.752E-04    9.14      26.1  T
speedup  0.94
cpu  time for SCC    0.00 s
wall time for SCC    0.01 s
speedup  0.99
cpu  time for grad    0.01 s
wall time for grad    0.01 s
 E :    -50.46294123  G :  0.009761    pred/act E change: -0.713D-04 -0.735D-04
Maxdispl :   0.0365   ||displ|| :   0.0762   Lambda : -0.155D-03
Largest |displ|/coords:  0.0365 (   1)  0.0325 (  11)  0.0192 (   9)

generating ANC from model Hessian ...
 Shifting diagonal of input Hessian by   5.118988688540937E-003
 Lowest  eigenvalues of input Hessian
    0.005000   -0.000000   -0.000000    0.000000    0.000000    0.000000
    0.000000    0.005154    0.005407    0.005941    0.006248    0.006655
    0.006923    0.007067    0.007799    0.009300    0.010452    0.011468
 Highest eigenvalues
    1.414053    1.415242    1.425411    2.620631    3.420612    3.644301
 
cpu  time for ANC gen    0.02 s
wall time for ANC gen    0.02 s
................................................................................
.............................. CYCLE   53 ......................................
................................................................................
   1    -50.7585584 -0.507586E+02  0.683E-02    9.15       0.0  T
   2    -50.7585612 -0.277817E-05  0.510E-02    9.15       1.0  T
   3    -50.7585639 -0.274030E-05  0.106E-02    9.14       1.9  T
   4    -50.7585642 -0.266520E-06  0.250E-03    9.14       7.8  T
   5    -50.7585642 -0.838676E-08  0.110E-03    9.14      17.8  T
   6    -50.7585642 -0.180309E-08  0.441E-04    9.14      44.5  T
   7    -50.7585642 -0.268180E-09  0.162E-04    9.14     120.9  T
speedup  0.97
cpu  time for SCC    0.01 s
wall time for SCC    0.01 s
speedup  0.97
cpu  time for grad    0.01 s
wall time for grad    0.01 s
 E :    -50.46293542  G :  0.008144    pred/act E change:  0.000D+00  0.581D-05
Maxdispl :   0.0504   ||displ|| :   0.1062   Lambda : -0.150D-03
Largest |displ|/coords:  0.0504 (   2)  0.0437 (   8)  0.0374 (   4)
................................................................................
.............................. CYCLE   54 ......................................
................................................................................
   1    -50.7580935 -0.507581E+02  0.107E-01    9.15       0.0  T
   2    -50.7580955 -0.203565E-05  0.814E-02    9.15       1.0  T
   3    -50.7580982 -0.264930E-05  0.617E-03    9.15       3.2  T
   4    -50.7580983 -0.103342E-06  0.213E-03    9.15       9.2  T
   5    -50.7580983 -0.317196E-08  0.102E-03    9.15      19.2  T
speedup  0.89
cpu  time for SCC    0.00 s
wall time for SCC    0.00 s
speedup  0.98
cpu  time for grad    0.01 s
wall time for grad    0.01 s
 E :    -50.46304194  G :  0.001987    pred/act E change:  0.000D+00 -0.107D-03
Maxdispl :   0.0970   ||displ|| :   0.1636   Lambda : -0.106D-03
Largest |displ|/coords:  0.0970 (   2)  0.0664 (   8)  0.0538 (   4)
................................................................................
.............................. CYCLE   55 ......................................
................................................................................
   1    -50.7569400 -0.507569E+02  0.141E-01    9.17       0.0  T
   2    -50.7569432 -0.320608E-05  0.106E-01    9.17       1.0  T
   3    -50.7569467 -0.351338E-05  0.860E-03    9.16       2.3  T
   4    -50.7569470 -0.279067E-06  0.342E-03    9.17       5.7  T
   5    -50.7569470 -0.109328E-07  0.139E-03    9.17      14.2  T
   6    -50.7569470 -0.215925E-08  0.644E-04    9.17      30.5  T
   7    -50.7569470 -0.110832E-08  0.113E-04    9.17     173.8  T
speedup  0.97
cpu  time for SCC    0.01 s
wall time for SCC    0.01 s
speedup  0.97
cpu  time for grad    0.01 s
wall time for grad    0.01 s
 E :    -50.46305125  G :  0.011317    pred/act E change: -0.760D-04 -0.931D-05
Maxdispl :   0.0263   ||displ|| :   0.0510   Lambda : -0.112D-03
Largest |displ|/coords:  0.0263 (   8)  0.0208 (  12)  0.0189 (   6)
................................................................................
.............................. CYCLE   56 ......................................
................................................................................
   1    -50.7580067 -0.507580E+02  0.589E-02    9.16       0.0  T
   2    -50.7580080 -0.129920E-05  0.446E-02    9.16       1.0  T
   3    -50.7580090 -0.106617E-05  0.619E-03    9.16       3.2  T
   4    -50.7580092 -0.173213E-06  0.166E-03    9.16      11.8  T
   5    -50.7580092 -0.450412E-08  0.747E-04    9.16      26.2  T
speedup  0.89
cpu  time for SCC    0.00 s
wall time for SCC    0.00 s
speedup  0.97
cpu  time for grad    0.01 s
wall time for grad    0.01 s
 E :    -50.46311155  G :  0.004027    pred/act E change: -0.542D-04 -0.603D-04
Maxdispl :   0.0706   ||displ|| :   0.0906   Lambda : -0.451D-04
Largest |displ|/coords:  0.0706 (   2)  0.0319 (   3)  0.0298 (   4)
................................................................................
.............................. CYCLE   57 ......................................
................................................................................
   1    -50.7580999 -0.507581E+02  0.530E-02    9.16       0.0  T
   2    -50.7581001 -0.243567E-06  0.399E-02    9.16       1.0  T
   3    -50.7581004 -0.283276E-06  0.274E-03    9.15       7.2  T
   4    -50.7581004 -0.158164E-07  0.851E-04    9.16      23.0  T
speedup  0.83
cpu  time for SCC    0.00 s
wall time for SCC    0.00 s
speedup  0.96
cpu  time for grad    0.01 s
wall time for grad    0.01 s
 E :    -50.46315218  G :  0.002771    pred/act E change: -0.564D-04 -0.406D-04
Maxdispl :   0.3780   ||displ|| :   0.4909   Lambda : -0.218D-03
Largest |displ|/coords:  0.3780 (   2)  0.1745 (   3)  0.1727 (   4)
................................................................................
.............................. CYCLE   58 ......................................
................................................................................
   1    -50.7560193 -0.507560E+02  0.285E-01    9.14       0.0  T
   2    -50.7560271 -0.778020E-05  0.216E-01    9.15       1.0  T
   3    -50.7560371 -0.994653E-05  0.140E-02    9.15       1.4  T
   4    -50.7560374 -0.367357E-06  0.613E-03    9.15       3.2  T
   5    -50.7560375 -0.329256E-07  0.225E-03    9.15       8.7  T
   6    -50.7560375 -0.677618E-08  0.108E-03    9.15      18.2  T
   7    -50.7560375 -0.199494E-08  0.228E-04    9.15      85.8  T
   8    -50.7560375 -0.964135E-10  0.615E-05    9.15     319.1  T
speedup  0.97
cpu  time for SCC    0.01 s
wall time for SCC    0.01 s
speedup  1.03
cpu  time for grad    0.02 s
wall time for grad    0.02 s
 E :    -50.46329047  G :  0.009618    pred/act E change: -0.228D-04 -0.138D-03
Maxdispl :   0.1516   ||displ|| :   0.1931   Lambda : -0.133D-03
Largest |displ|/coords:  0.1516 (   2)  0.0609 (   4)  0.0591 (   3)
................................................................................
.............................. CYCLE   59 ......................................
................................................................................
   1    -50.7571482 -0.507571E+02  0.799E-02    9.15       0.0  T
   2    -50.7571492 -0.961536E-06  0.603E-02    9.15       1.0  T
   3    -50.7571501 -0.947833E-06  0.556E-03    9.15       3.5  T
   4    -50.7571502 -0.971112E-07  0.180E-03    9.15      10.9  T
   5    -50.7571502 -0.333844E-08  0.674E-04    9.15      29.1  T
speedup  1.11
cpu  time for SCC    0.00 s
wall time for SCC    0.00 s
speedup  1.06
cpu  time for grad    0.01 s
wall time for grad    0.01 s
 E :    -50.46339363  G :  0.005737    pred/act E change: -0.135D-03 -0.103D-03
Maxdispl :   0.4459   ||displ|| :   0.5545   Lambda : -0.258D-03
Largest |displ|/coords:  0.4459 (   2)  0.2107 (   4)  0.1614 (   3)
................................................................................
.............................. CYCLE   60 ......................................
................................................................................
   1    -50.7561967 -0.507562E+02  0.259E-01    9.12       0.0  T
   2    -50.7562060 -0.929288E-05  0.196E-01    9.12       1.0  T
   3    -50.7562171 -0.110964E-04  0.165E-02    9.14       1.2  T
   4    -50.7562178 -0.691120E-06  0.690E-03    9.13       2.8  T
   5    -50.7562178 -0.498652E-07  0.252E-03    9.13       7.8  T
   6    -50.7562178 -0.750769E-08  0.130E-03    9.13      15.1  T
speedup  1.09
cpu  time for SCC    0.01 s
wall time for SCC    0.01 s
speedup  0.97
cpu  time for grad    0.01 s
wall time for grad    0.01 s
 E :    -50.46349367  G :  0.016463    pred/act E change: -0.689D-04 -0.100D-03
Maxdispl :   0.0893   ||displ|| :   0.1674   Lambda : -0.399D-03
Largest |displ|/coords:  0.0893 (   8)  0.0692 (   2)  0.0644 (   4)
................................................................................
.............................. CYCLE   61 ......................................
................................................................................
   1    -50.7611060 -0.507611E+02  0.998E-02    9.13       0.0  T
   2    -50.7611120 -0.608908E-05  0.743E-02    9.13       1.0  T
   3    -50.7611159 -0.382494E-05  0.144E-02    9.12       1.4  T
   4    -50.7611166 -0.719989E-06  0.367E-03    9.12       5.3  T
   5    -50.7611166 -0.341853E-07  0.136E-03    9.13      14.4  T
   6    -50.7611166 -0.120752E-08  0.734E-04    9.13      26.7  T
speedup  0.93
cpu  time for SCC    0.01 s
wall time for SCC    0.01 s
speedup  0.98
cpu  time for grad    0.01 s
wall time for grad    0.01 s
 E :    -50.46360164  G :  0.012431    pred/act E change: -0.169D-03 -0.108D-03
Maxdispl :   0.1965   ||displ|| :   0.3172   Lambda : -0.319D-03
Largest |displ|/coords:  0.1965 (   2)  0.1298 (   4)  0.1131 (   3)
................................................................................
.............................. CYCLE   62 ......................................
................................................................................
   1    -50.7573671 -0.507574E+02  0.197E-01    9.09       0.0  T
   2    -50.7573725 -0.535962E-05  0.149E-01    9.10       1.0  T
   3    -50.7573784 -0.595288E-05  0.115E-02    9.10       1.7  T
   4    -50.7573789 -0.439096E-06  0.490E-03    9.10       4.0  T
   5    -50.7573789 -0.245919E-07  0.171E-03    9.10      11.5  T
   6    -50.7573789 -0.332182E-08  0.873E-04    9.10      22.5  T
speedup  1.11
cpu  time for SCC    0.01 s
wall time for SCC    0.01 s
speedup  1.05
cpu  time for grad    0.01 s
wall time for grad    0.01 s
 E :    -50.46379519  G :  0.008622    pred/act E change: -0.205D-03 -0.194D-03
Maxdispl :   0.1571   ||displ|| :   0.2762   Lambda : -0.287D-03
Largest |displ|/coords:  0.1571 (   2)  0.1467 (   4)  0.0623 (   1)
................................................................................
.............................. CYCLE   63 ......................................
................................................................................
   1    -50.7568338 -0.507568E+02  0.170E-01    9.08       0.0  T
   2    -50.7568389 -0.512705E-05  0.129E-01    9.08       1.0  T
   3    -50.7568455 -0.656998E-05  0.108E-02    9.08       1.8  T
   4    -50.7568458 -0.308455E-06  0.400E-03    9.08       4.9  T
   5    -50.7568458 -0.170716E-07  0.174E-03    9.08      11.3  T
   6    -50.7568458 -0.558422E-08  0.677E-04    9.08      29.0  T
speedup  1.11
cpu  time for SCC    0.01 s
wall time for SCC    0.01 s
speedup  1.04
cpu  time for grad    0.01 s
wall time for grad    0.01 s
 E :    -50.46389829  G :  0.016185    pred/act E change: -0.176D-03 -0.103D-03
Maxdispl :   0.0768   ||displ|| :   0.1268   Lambda : -0.275D-03
Largest |displ|/coords:  0.0768 (   2)  0.0475 (   4)  0.0321 (   6)
................................................................................
.............................. CYCLE   64 ......................................
................................................................................
   1    -50.7591626 -0.507592E+02  0.859E-02    9.10       0.0  T
   2    -50.7591643 -0.175142E-05  0.645E-02    9.10       1.0  T
   3    -50.7591656 -0.132505E-05  0.844E-03    9.09       2.3  T
   4    -50.7591659 -0.226737E-06  0.239E-03    9.09       8.2  T
   5    -50.7591659 -0.115900E-07  0.852E-04    9.09      23.0  T
speedup  1.11
cpu  time for SCC    0.00 s
wall time for SCC    0.00 s
speedup  1.05
cpu  time for grad    0.01 s
wall time for grad    0.01 s
 E :    -50.46411126  G :  0.009564    pred/act E change: -0.155D-03 -0.213D-03
Maxdispl :   0.3359   ||displ|| :   0.5603   Lambda : -0.720D-03
Largest |displ|/coords:  0.3359 (   4)  0.1732 (   6)  0.1599 (   5)
................................................................................
.............................. CYCLE   65 ......................................
................................................................................
   1    -50.7549348 -0.507549E+02  0.391E-01    9.01       0.0  T
   2    -50.7549551 -0.203286E-04  0.295E-01    9.01       1.0  T
   3    -50.7549753 -0.202035E-04  0.267E-02    9.00       1.0  T
   4    -50.7549773 -0.197623E-05  0.887E-03    9.00       2.2  T
   5    -50.7549774 -0.137303E-06  0.352E-03    9.00       5.6  T
   6    -50.7549775 -0.148283E-07  0.168E-03    9.00      11.7  T
   7    -50.7549775 -0.727420E-08  0.398E-04    9.00      49.2  T
speedup  0.97
cpu  time for SCC    0.01 s
wall time for SCC    0.01 s
speedup  1.04
cpu  time for grad    0.01 s
wall time for grad    0.01 s
 E :    -50.46412116  G :  0.025442    pred/act E change: -0.140D-03 -0.990D-05
Maxdispl :   0.1795   ||displ|| :   0.2302   Lambda : -0.122D-02
Largest |displ|/coords:  0.1795 (   2)  0.0631 (  12)  0.0575 (   7)
................................................................................
.............................. CYCLE   66 ......................................
................................................................................
   1    -50.7608676 -0.507609E+02  0.128E-01    9.07       0.0  T
   2    -50.7608746 -0.702981E-05  0.955E-02    9.07       1.0  T
   3    -50.7608800 -0.545585E-05  0.168E-02    9.07       1.2  T
   4    -50.7608808 -0.792412E-06  0.466E-03    9.07       4.2  T
   5    -50.7608809 -0.288515E-07  0.184E-03    9.07      10.7  T
speedup  1.11
cpu  time for SCC    0.00 s
wall time for SCC    0.00 s
speedup  0.97
cpu  time for grad    0.01 s
wall time for grad    0.01 s
 E :    -50.46472438  G :  0.010263    pred/act E change: -0.473D-03 -0.603D-03
[...]
Largest |displ|/coords:  0.0137 (   2)  0.0107 (   3)  0.0096 (   1)
................................................................................
.............................. CYCLE  189 ......................................
................................................................................
   1    -50.7660228 -0.507660E+02  0.171E-02    9.07       0.0  T
   2    -50.7660228 -0.282947E-07  0.129E-02    9.07       1.5  T
   3    -50.7660229 -0.356918E-07  0.101E-03    9.07      19.5  T
   4    -50.7660229 -0.149751E-08  0.310E-04    9.07      63.2  T
   5    -50.7660229 -0.118810E-09  0.115E-04    9.07     170.1  T
speedup  1.11
cpu  time for SCC    0.00 s
wall time for SCC    0.00 s
speedup  1.00
cpu  time for grad    0.01 s
wall time for grad    0.01 s
 E :    -50.46815797  G :  0.000377    pred/act E change: -0.130D-05 -0.109D-05
Maxdispl :   0.0191   ||displ|| :   0.0335   Lambda : -0.112D-05
Largest |displ|/coords:  0.0191 (   2)  0.0146 (   3)  0.0130 (   1)
................................................................................
.............................. CYCLE  190 ......................................
................................................................................
   1    -50.7659953 -0.507660E+02  0.234E-02    9.07       0.0  T
   2    -50.7659954 -0.517342E-07  0.177E-02    9.06       1.1  T
   3    -50.7659954 -0.667642E-07  0.126E-03    9.06      15.6  T
   4    -50.7659954 -0.206067E-08  0.394E-04    9.06      49.8  T
   5    -50.7659954 -0.161343E-09  0.165E-04    9.06     119.1  T
speedup  1.11
cpu  time for SCC    0.00 s
wall time for SCC    0.00 s
speedup  1.01
cpu  time for grad    0.01 s
wall time for grad    0.01 s
 E :    -50.46815877  G :  0.000399    pred/act E change: -0.795D-06 -0.799D-06
Maxdispl :   0.0206   ||displ|| :   0.0328   Lambda : -0.896D-06
Largest |displ|/coords:  0.0206 (   2)  0.0151 (   3)  0.0129 (   1)
................................................................................
.............................. CYCLE  191 ......................................
................................................................................
   1    -50.7659788 -0.507660E+02  0.202E-02    9.06       0.0  T
   2    -50.7659788 -0.413326E-07  0.153E-02    9.06       1.3  T
   3    -50.7659789 -0.554469E-07  0.104E-03    9.06      18.9  T
   4    -50.7659789 -0.131037E-08  0.365E-04    9.06      53.7  T
   5    -50.7659789 -0.143544E-09  0.131E-04    9.06     149.2  T
speedup  0.91
cpu  time for SCC    0.00 s
wall time for SCC    0.00 s
speedup  1.01
cpu  time for grad    0.01 s
wall time for grad    0.01 s
 E :    -50.46815941  G :  0.000332    pred/act E change: -0.562D-06 -0.642D-06
Maxdispl :   0.0210   ||displ|| :   0.0300   Lambda : -0.681D-06
Largest |displ|/coords:  0.0210 (   2)  0.0138 (   3)  0.0117 (   1)
................................................................................
.............................. CYCLE  192 ......................................
................................................................................
   1    -50.7659722 -0.507660E+02  0.159E-02    9.06       0.0  T
   2    -50.7659723 -0.246486E-07  0.121E-02    9.06       1.6  T
   3    -50.7659723 -0.304901E-07  0.753E-04    9.06      26.0  T
   4    -50.7659723 -0.132211E-08  0.323E-04    9.06      60.6  T
speedup  0.81
cpu  time for SCC    0.00 s
wall time for SCC    0.00 s
speedup  0.99
cpu  time for grad    0.01 s
wall time for grad    0.01 s
 E :    -50.46815990  G :  0.000282    pred/act E change: -0.448D-06 -0.492D-06
Maxdispl :   0.0205   ||displ|| :   0.0273   Lambda : -0.608D-06
Largest |displ|/coords:  0.0205 (   2)  0.0118 (   3)  0.0095 (   1)
................................................................................
.............................. CYCLE  193 ......................................
................................................................................
   1    -50.7659939 -0.507660E+02  0.117E-02    9.06       0.0  T
   2    -50.7659939 -0.153597E-07  0.882E-03    9.06       2.2  T
   3    -50.7659939 -0.164630E-07  0.649E-04    9.06      30.2  T
   4    -50.7659939 -0.143336E-08  0.278E-04    9.06      70.5  T
speedup  1.11
cpu  time for SCC    0.00 s
wall time for SCC    0.00 s
speedup  1.06
cpu  time for grad    0.01 s
wall time for grad    0.01 s
 E :    -50.46816037  G :  0.000319    pred/act E change: -0.341D-06 -0.470D-06
Maxdispl :   0.0307   ||displ|| :   0.0392   Lambda : -0.730D-06
Largest |displ|/coords:  0.0307 (   2)  0.0162 (   3)  0.0133 (   1)
................................................................................
.............................. CYCLE  194 ......................................
................................................................................
   1    -50.7659946 -0.507660E+02  0.164E-02    9.06       0.0  T
   2    -50.7659947 -0.273147E-07  0.123E-02    9.06       1.6  T
   3    -50.7659947 -0.280460E-07  0.103E-03    9.06      18.9  T
   4    -50.7659947 -0.287013E-08  0.383E-04    9.06      51.2  T
   5    -50.7659947 -0.155943E-09  0.112E-04    9.06     174.5  T
speedup  1.11
cpu  time for SCC    0.00 s
wall time for SCC    0.00 s
speedup  1.01
cpu  time for grad    0.01 s
wall time for grad    0.01 s
 E :    -50.46816089  G :  0.000321    pred/act E change: -0.304D-06 -0.518D-06
Maxdispl :   0.0225   ||displ|| :   0.0289   Lambda : -0.527D-06
Largest |displ|/coords:  0.0225 (   2)  0.0104 (   3)  0.0077 (   1)
................................................................................
.............................. CYCLE  195 ......................................
................................................................................
   1    -50.7660268 -0.507660E+02  0.122E-02    9.06       0.0  T
   2    -50.7660268 -0.181739E-07  0.916E-03    9.06       2.1  T
   3    -50.7660268 -0.177308E-07  0.106E-03    9.06      18.5  T
   4    -50.7660268 -0.194655E-08  0.295E-04    9.06      66.5  T
   5    -50.7660268 -0.103910E-09  0.837E-05    9.06     234.4  T
speedup  1.11
cpu  time for SCC    0.00 s
wall time for SCC    0.00 s
speedup  1.01
cpu  time for grad    0.01 s
wall time for grad    0.01 s
 E :    -50.46816124  G :  0.000329    pred/act E change: -0.366D-06 -0.353D-06
Maxdispl :   0.0136   ||displ|| :   0.0172   Lambda : -0.329D-06
Largest |displ|/coords:  0.0136 (   2)  0.0054 (   3)  0.0041 (  11)
................................................................................
.............................. CYCLE  196 ......................................
................................................................................
   1    -50.7660272 -0.507660E+02  0.783E-03    9.06       0.0  T
   2    -50.7660272 -0.835555E-08  0.587E-03    9.06       3.3  T
   3    -50.7660272 -0.799902E-08  0.748E-04    9.06      26.2  T
   4    -50.7660272 -0.911278E-09  0.210E-04    9.06      93.3  T
speedup  1.08
cpu  time for SCC    0.00 s
wall time for SCC    0.00 s
speedup  0.98
cpu  time for grad    0.01 s
wall time for grad    0.01 s
 E :    -50.46816146  G :  0.000267    pred/act E change: -0.264D-06 -0.223D-06
Maxdispl :   0.0042   ||displ|| :   0.0075   Lambda : -0.182D-06
Largest |displ|/coords:  0.0042 (   2)  0.0025 (  11)  0.0024 (   6)
................................................................................
.............................. CYCLE  197 ......................................
................................................................................
   1    -50.7660246 -0.507660E+02  0.466E-03    9.06       0.0  T
   2    -50.7660246 -0.395226E-08  0.352E-03    9.06       5.6  T
   3    -50.7660246 -0.347011E-08  0.451E-04    9.06      43.4  T
   4    -50.7660246 -0.468731E-09  0.150E-04    9.06     130.6  T
speedup  1.08
cpu  time for SCC    0.00 s
wall time for SCC    0.00 s
speedup  0.99
cpu  time for grad    0.01 s
wall time for grad    0.01 s
 E :    -50.46816159  G :  0.000179    pred/act E change: -0.164D-06 -0.129D-06
Maxdispl :   0.0062   ||displ|| :   0.0081   Lambda : -0.108D-06
Largest |displ|/coords:  0.0062 (   2)  0.0031 (   3)  0.0018 (   8)
................................................................................
.............................. CYCLE  198 ......................................
................................................................................
   1    -50.7660031 -0.507660E+02  0.458E-03    9.06       0.0  T
   2    -50.7660031 -0.262818E-08  0.346E-03    9.06       5.7  T
   3    -50.7660031 -0.263660E-08  0.283E-04    9.06      69.3  T
   4    -50.7660031 -0.269303E-09  0.127E-04    9.06     153.8  T
speedup  0.81
cpu  time for SCC    0.00 s
wall time for SCC    0.00 s
speedup  0.99
cpu  time for grad    0.01 s
wall time for grad    0.01 s
 E :    -50.46816167  G :  0.000145    pred/act E change: -0.911D-07 -0.755D-07
Maxdispl :   0.0030   ||displ|| :   0.0051   Lambda : -0.674D-07
Largest |displ|/coords:  0.0030 (   2)  0.0018 (   1)  0.0017 (   3)

   *** GEOMETRY OPTIMIZATION CONVERGED AFTER 198 ITERATIONS ***

------------------------------------------------------------------------
 total energy gain (kcal):     -0.0070
------------------------------------------------------------------------
================
 final structure:
================
$coord
        0.61150119245663       -2.62479903521995        2.40742104119661      S 
        2.41054325034872       -1.40798471095654        0.70199068786442      O 
        0.07105526137709       -1.04305326028480        4.57483736905611      O 
       -1.63215272755725       -3.49944431304412        1.10627344220246      O 
        1.97382124929106       -5.08721302754022        3.42289327374425      O 
        3.43502568717440       -4.45006599690823        4.25739971603245      H 
       -1.91623977238146       -3.25993459073495       -3.93317155614390      O 
       -1.84764694446430       -3.36687768029385       -2.08789078007150      H 
       -2.49995076253182       -4.87682957330766       -4.50240843291591      H 
        2.66864936643331       -1.05184860983850       -4.52935559065421      O 
        1.07830122707572       -1.97298639847143       -4.68661109540343      H 
        3.10514294690297       -1.23016669031096       -2.76099510734720      H 
        0.63605554133419        3.47028481525460       -5.05725419333579      O 
       -0.78917182505639        3.15217184302281       -6.13002190248084      H 
        1.63968064803186        1.88212725965561       -5.06774309591493      H 
        0.97510590566821        3.93475321946563        4.73543618349777      O 
        0.67839836440343        2.10869581179603        4.79781997212488      H 
        1.62911167536807        4.39821081128133        6.35729878688247      H 
       -4.24290875101783        0.73874355840837        1.80969448741849      O 
       -3.65725959650527       -0.98347005959642        1.49586328610621      H 
       -3.99019293686669        0.99627092753233        3.59029395560362      H 
       -0.07561457265132        2.88382448371332       -0.12466590220127      N 
        0.50465390302949        4.21124475530091        1.15900041042898      H 
        0.07655881813860        3.46636242977839       -2.02259710272564      H 
        1.07186648243262        1.28765028055787        0.12685693911919      H 
       -1.91433364853497        2.32433376954702        0.35963522707464      H 
$end
 
 Bond Distances (Angstroems)
 ---------------------------
S1-O2=1.4613         S1-O3=1.4484         S1-O4=1.4484         S1-O5=1.5832         O2-S1=1.4613         O3-S1=1.4484         
O4-S1=1.4484         O5-S1=1.5832         O5-H6=0.9521         H6-O5=0.9521         O7-H8=0.9788         O7-H9=0.9582         
H8-O7=0.9788         H9-O7=0.9582         O10-H11=0.9761       O10-H12=0.9685       H11-O10=0.9761       H12-O10=0.9685       
O13-H14=0.9589       O13-H15=0.9942       H14-O13=0.9589       H15-O13=0.9942       O16-H17=0.9795       O16-H18=0.9574       
H17-O16=0.9795       H18-O16=0.9574       O19-H20=0.9768       O19-H21=0.9614       H20-O19=0.9768       H21-O19=0.9614       
N22-H23=1.0243       N22-H24=1.0537       N22-H25=1.0488       N22-H26=1.0488       H23-N22=1.0243       H24-N22=1.0537       
H25-N22=1.0488       H26-N22=1.0488       
 N  H  Rav=1.0439 sigma=0.0115  Rmin=1.0243  Rmax=1.0537     4
 O  H  Rav=0.9693 sigma=0.0122  Rmin=0.9521  Rmax=0.9942    11
 S  O  Rav=1.4853 sigma=0.0567  Rmin=1.4484  Rmax=1.5832     4
 
 selected bond angles (degree)
 --------------------
O3-S1-O2=111.29                O4-S1-O2=112.41                O4-S1-O3=113.53                O5-S1-O2=106.00                
O5-S1-O3=107.26                O5-S1-O4=105.76                H6-O5-S1=103.64                H9-O7-H8=105.90                
H12-O10-H11=103.85             
 
 selected dihedral angles (degree)
 ---------------------------------
H6-O5-S1-O2= 60.24            H6-O5-S1-O3=301.26            H6-O5-S1-O4=179.78            
 
 CMA Distance (Angstroems)
 ---------------------------
R(CMA):  2.8130

========================================================================
 FINAL SINGLEPOINT CALCULATION ON OPTIMIZED GEOMETRY
========================================================================

 Ncao       : 65
 Nao        : 64
 Nshell     : 38
 Nel        : 80
 T(el)      :   300.0
 intcut     :    25.0
 scfconv/Eh :  0.100E-05
   qconv/e  :  0.100E-03
 intneglect :  0.100E-07
 broydamp   :      0.250
 iter      E             dE          RMSdq      gap      omega  full diag
   1    -50.7660031 -0.507660E+02  0.430E-05    9.06       0.0  T
   2    -50.7660031 -0.152767E-11  0.276E-05    9.06     711.0  T
   3    -50.7660031 -0.738964E-12  0.515E-06    9.06    3809.7  T
speedup  1.11
cpu  time for SCC    0.00 s
wall time for SCC    0.00 s

   *** convergence criteria satisfied after 3 iterations ***

          eigenvalues
 #    :          28         29         30         31         32         33         34         35
 occ. :        2.000      2.000      2.000      2.000      2.000      2.000      2.000      2.000
 eps  :       -13.490    -13.389    -12.646    -12.565    -12.483    -12.305    -12.275    -12.194
 #    :          36         37         38         39         40         41         42         43
 occ. :        2.000      2.000      2.000      2.000      2.000      0.000      0.000      0.000
 eps  :       -12.075    -12.017    -11.948    -11.893    -11.627     -2.565     -0.706     -0.475
 #    :          44         45         46         47         48         49         50         51
 occ. :        0.000      0.000      0.000      0.000      0.000      0.000      0.000      0.000
 eps  :         0.776      1.082      1.606      2.439      2.875      3.655      3.889      4.644


   #   Z            q   n(s)   n(p)   n(d)      C6AA      α(0)
   1  16 S      1.688  1.583  1.779  0.950    89.036    15.881
   2   8 O     -0.755  1.770  4.985  0.000    30.257     7.375
   3   8 O     -0.751  1.770  4.981  0.000    30.150     7.362
   4   8 O     -0.730  1.768  4.962  0.000    29.549     7.288
   5   8 O     -0.584  1.750  4.834  0.000    24.778     6.720
   6   1 H      0.345  0.655  0.000  0.000     0.592     1.205
   7   8 O     -0.613  1.741  4.872  0.000    25.491     6.814
   8   1 H      0.322  0.678  0.000  0.000     0.660     1.276
   9   1 H      0.284  0.716  0.000  0.000     0.771     1.379
  10   8 O     -0.621  1.755  4.867  0.000    25.707     6.843
  11   1 H      0.320  0.680  0.000  0.000     0.663     1.279
  12   1 H      0.309  0.691  0.000  0.000     0.693     1.308
  13   8 O     -0.609  1.751  4.859  0.000    25.415     6.804
  14   1 H      0.287  0.713  0.000  0.000     0.760     1.369
  15   1 H      0.339  0.661  0.000  0.000     0.614     1.231
  16   8 O     -0.622  1.738  4.884  0.000    25.712     6.844
  17   1 H      0.320  0.680  0.000  0.000     0.665     1.281
  18   1 H      0.279  0.721  0.000  0.000     0.789     1.395
  19   8 O     -0.599  1.739  4.861  0.000    25.172     6.772
  20   1 H      0.320  0.680  0.000  0.000     0.664     1.280
  21   1 H      0.304  0.696  0.000  0.000     0.710     1.323
  22   7 N     -0.358  1.275  4.082  0.000    29.195     8.025
  23   1 H      0.272  0.728  0.000  0.000     0.803     1.404
  24   1 H      0.295  0.705  0.000  0.000     0.730     1.338
  25   1 H      0.278  0.722  0.000  0.000     0.783     1.386
  26   1 H      0.281  0.719  0.000  0.000     0.773     1.377

 Mol. C6AA /au·bohr⁶  :       5444.846700
 Mol. C8AA /au·bohr⁸  :     117781.333750
 Mol. α(0) /au        :        106.559938

 
 Wiberg/Mayer (AO) data. WBOs > 0.1 written file <wbo>
 largest (>0.05) Wiberg bond orders for each atom
           total WBO             WBO to atom ...
     1  S   4.848    O    3 1.326    O    4 1.317    O    2 1.265    O    5 0.898
     2  O   1.720    S    1 1.265    O    3 0.109    O    4 0.109    H   25 0.086    O    5 0.072
     3  O   1.704    S    1 1.326    O    2 0.109    O    4 0.108    O    5 0.076    H   17 0.053
     4  O   1.751    S    1 1.317    O    2 0.109    O    3 0.108    O    5 0.061    H    8 0.054    H   20 0.050
     5  O   1.978    S    1 0.898    H    6 0.864    O    3 0.076    O    2 0.072    O    4 0.061
     6  H   0.881    O    5 0.864
     7  O   1.852    H    9 0.915    H    8 0.839
     8  H   0.897    O    7 0.839    O    4 0.054
     9  H   0.919    O    7 0.915
    10  O   1.886    H   12 0.874    H   11 0.849    H   15 0.082
    11  H   0.897    O   10 0.849
    12  H   0.904    O   10 0.874
    13  O   1.906    H   14 0.914    H   15 0.802    H   24 0.101
    14  H   0.917    O   13 0.914
    15  H   0.885    O   13 0.802    O   10 0.082
    16  O   1.821    H   18 0.915    H   17 0.841
    17  H   0.898    O   16 0.841    O    3 0.053
    18  H   0.922    O   16 0.915
    19  O   1.909    H   21 0.902    H   20 0.842    H   26 0.087
    20  H   0.898    O   19 0.842    O    4 0.050
    21  H   0.908    O   19 0.902
    22  N   3.528    H   23 0.898    H   26 0.829    H   25 0.827    H   24 0.809
    23  H   0.926    N   22 0.898
    24  H   0.913    N   22 0.809    O   13 0.101
    25  H   0.923    N   22 0.827    O    2 0.086
    26  H   0.921    N   22 0.829    O   19 0.087
 MOs/occ written to file <molden.input>
 
molecular dipole:
                 x           y           z       tot (Debye)
 q only:        0.014       1.152       0.023
   full:        0.144       0.127       0.831       2.168
molecular quadrupole (traceless):
                xx          xy          yy          xz          yz          zz
 q only:       -2.457      -2.114       0.595       9.721       3.976       1.862
  q+dip:       -4.605      -1.910      -0.216      13.545       4.907       4.821
   full:       -4.951      -1.960       0.018      14.235       4.938       4.933

SCC energy    :     -50.7660031
rep           :       0.2975266
ES            :       0.2614883
AES           :      -0.0747996
AXC           :      -0.0085590
disp          :      -0.0191142
XB            :       0.0000000
fix           :       0.0000000
total E       :     -50.4681617
atomizationE  :       4.9984658     3136.58
(atE without considering molecular charge,
 total energy contains solvation terms)
H-L gap (eV)  :          9.0616
optimized geometry written to: xtbopt.xyz


------------------------------------------------------------------------
 * finished run on 2019/09/16 at 11:27:04.210     
------------------------------------------------------------------------
 total:
 * wall-time:     0 d,  0 h,  0 min,  4.350 sec
 *  cpu-time:     0 d,  0 h,  0 min,  4.282 sec
 * ratio c/w:     0.984 speedup
 SCF:
 * wall-time:     0 d,  0 h,  0 min,  0.196 sec
 *  cpu-time:     0 d,  0 h,  0 min,  0.151 sec
 * ratio c/w:     0.771 speedup
 ANC optimizer:
 * wall-time:     0 d,  0 h,  0 min,  4.128 sec
 *  cpu-time:     0 d,  0 h,  0 min,  4.106 sec
 * ratio c/w:     0.995 speedup

