      -----------------------------------------------------------      
     |                   =====================                   |     
     |                           x T B                           |     
     |                   =====================                   |     
     |                         S. Grimme                         |     
     |          Mulliken Center for Theoretical Chemistry        |     
     |                    University of Bonn                     |     
     |                 Version 6.0.1 (SAW181210)                 |     
      -----------------------------------------------------------      

   This program is distributed in the hope that it will be useful,
   but WITHOUT ANY WARRANTY; without even the implied warranty of
   MERCHANTABILITY or FITNESS FOR A PARTICULAR PURPOSE.
   
   FOR NON-COMMERCIAL, ACADEMIA USE ONLY.
   
   Cite this work as:
   S. Grimme, C. Bannwarth, P. Shushkov, J. Comput. Theory Chem., 2017,
   13, 1989-2009.
   C. Bannwarth, S. Ehlert and S. Grimme., ChemRxiv, 2018, preprint.
   http://doi.org/10.26434/chemrxiv.7246238.v1
   
   for sTDA-xTB:
   S. Grimme and C. Bannwarth, J. Chem. Phys., 2016, 145, 054103.
   
   in the mass-spec context:
   V. Asgeirsson, C. Bauer and S. Grimme, Chem. Sci., 2017, 8, 4879.
   
   if GBSA is used:
   P. Shushkov, F. März and S. Grimme, unpublished.
   
   for ANC optimizer:
   S. Grimme, unpublished.
   Rational Function algorithm used in ANCopt:
   F. Eckert, P. Pulay, H.-J. Werner, J. Comput. Chem., 1997, 18, 1473.
   
   with help from (in alphabetical order)
   C. Bannwarth, F. Bohle, G. Brandenburg, E. Caldeweyher, M. Checinski,
   S. Dohm, S. Ehlert, S. Ehrlich, F. März, H. Neugebauer, J. Pisarek,
   P. Pracht, P. Shushkov, and S. Spicher.
   
 * started run on 2019/09/16 at 12:30:47.169     
========================================================================
 # omp threads = 1
========================================================================
number of atoms            : 26
number of electrons        : 80
charge                     : 0
spin                       : .0
first test random number   : .7473

########################################################################
# WARNING! Please study the warnings concerning your input carefully
#  - XTBPATH is not set, using XTBHOME instead
#  - the use of '-opt' is discouraged, please use '--opt' next time
#  - the use of '-chrg' is discouraged, please use '--chrg' next time
#  - the use of '-uhf' is discouraged, please use '--uhf' next time
########################################################################

           ------------------------------------------------- 
          |                 G F N 2 - x T B                 |
          | Geometry, Frequencies, Noncovalent interactions |
          |            JCTC 2018 parametrisation            |
           ------------------------------------------------- 
      method parameters     
 k(s)        :  1.8500
 k(p)        :  2.2300
 k(d)        :  2.2300
 k(f)        :  2.0000
 kEN (H0ij)  : -2.0000
 D4 a1       :  0.5200
 D4 a2       :  5.0000
 D4 s6       :  1.0000
 D4 s8       :  2.7000
 D4 s9       :  5.0000
 alphaj      :  2.0000


            Z     q(EN)     CN     RAES       Cart. coordinates
     1  S   6.0    0.64    4.27    4.19    -2.46373     2.34931    -1.66116
     2  O   6.0   -0.32    1.21    1.80    -3.38190     1.69711     0.91949
     3  O   6.0   -0.33    1.20    1.80    -0.06412     3.80896    -1.46255
     4  O   6.0   -0.33    1.24    1.80    -2.00603    -0.01514    -3.11992
     5  O   6.0   -0.25    2.08    1.84    -4.37630     3.88499    -2.96355
     6  H   1.0    0.15    1.21    1.47    -4.67181     5.40866    -2.02430
     7  O   6.0   -0.28    2.04    1.83     3.48618     2.13413     1.83508
     8  H   1.0    0.16    1.01    1.43     4.41046     1.07267     0.68024
     9  H   1.0    0.17    1.03    1.43     2.41804     3.17059     0.78654
    10  O   6.0   -0.29    2.00    1.83     4.47389    -1.75032    -1.35368
    11  H   1.0    0.16    1.02    1.43     4.36827    -0.81280    -2.91076
    12  H   1.0    0.16    1.01    1.43     3.16166    -3.00793    -1.45895
    13  O   6.0   -0.31    2.06    1.83    -0.08318    -4.22629    -1.18790
    14  H   1.0    0.17    1.06    1.44    -0.87856    -2.80342    -1.99871
    15  H   1.0    0.15    0.97    1.43    -0.74137    -5.69511    -2.03878
    16  O   6.0   -0.29    2.03    1.83    -3.90364    -0.53245     5.35351
    17  H   1.0    0.15    0.97    1.43    -5.42522    -0.06297     6.23611
    18  H   1.0    0.17    1.05    1.44    -3.95426     0.38797     3.78352
    19  O   6.0   -0.28    2.01    1.83     2.71194     1.11384    -5.12816
    20  H   1.0    0.16    1.01    1.43     1.07145     0.32439    -5.11408
    21  H   1.0    0.16    0.99    1.43     2.50415     2.67229    -4.21020
    22  N   5.0   -0.14    3.93    2.69     0.66882    -1.82370     3.40765
    23  H   1.0    0.11    1.07    1.44    -1.03258    -1.35547     4.22647
    24  H   1.0    0.10    1.05    1.44     0.34683    -2.80769     1.76068
    25  H   1.0    0.11    1.06    1.44     1.66512    -0.20100     3.00931
    26  H   1.0    0.09    0.99    1.43     1.69589    -2.93062     4.63413

  Z AO/shell   Hii/eV     exponent
  1     Wed Apr 25 08:07:45 CEST 2018   EN: 2.200 GM2: 0.406  GM3: 0.0800  RAES: 1.40
     1s    -10.707211    1.230000
  7     Wed Apr 25 08:07:45 CEST 2018   EN: 3.040 GM2: 0.461  GM3:-0.0640  RAES: 1.90
     2s    -16.686243    2.339881
     2p    -12.523956    2.014332
  8     Wed Apr 25 08:07:45 CEST 2018   EN: 3.440 GM2: 0.452  GM3:-0.0517  RAES: 1.80
     2s    -20.229985    2.439742
     2p    -15.503117    2.137023
 16     Tue Apr 24 11:44:34 CEST 2018   EN: 2.580 GM2: 0.340  GM3:-0.0502  RAES: 3.10
     3s    -20.029654    1.981333
     3p    -11.377694    2.025643
     3d     -0.420282    1.702555
 no old-style atom pair restraining (fixing) potential

molecular fragmentation (1/2 indicates fragments):
11111122222222222222222222
# atoms in fragment 1/2:     6    20
 fragment masses (1/2) :       97.07      108.11
CMA distance (Bohr)    :   5.293
constraining FC (au)   :  0.0500
           ------------------------------------------------- 
          |        Self-Consistent Charge Iterations        |
           ------------------------------------------------- 

 Ncao       : 65
 Nao        : 64
 Nshell     : 38
 Nel        : 80
 T(el)      :   300.0
 intcut     :    25.0
 scfconv/Eh :  0.100E-05
   qconv/e  :  0.100E-03
 intneglect :  0.100E-07
 broydamp   :      0.250
 iter      E             dE          RMSdq      gap      omega  full diag
   1    -50.6536165 -0.506536E+02  0.700E+00   10.42       0.0  T
   2    -50.7047338 -0.511173E-01  0.504E+00    9.95       1.0  T
   3    -50.7435529 -0.388191E-01  0.131E+00    8.66       1.0  T
   4    -50.7487399 -0.518701E-02  0.574E-01    9.03       1.0  T
   5    -50.7495063 -0.766416E-03  0.295E-01    8.97       1.0  T
   6    -50.7499054 -0.399068E-03  0.135E-01    8.96       1.0  T
   7    -50.7500055 -0.100069E-03  0.511E-02    8.98       1.0  T
   8    -50.7500169 -0.113902E-04  0.316E-02    8.97       1.0  T
   9    -50.7500226 -0.577850E-05  0.129E-02    8.97       1.5  T
  10    -50.7500237 -0.109018E-05  0.253E-03    8.96       7.8  T
  11    -50.7500238 -0.228714E-07  0.128E-03    8.96      15.3  T
  12    -50.7500238 -0.889180E-08  0.371E-04    8.96      52.8  T
  13    -50.7500238 -0.638110E-09  0.128E-04    8.96     153.4  T
speedup  0.98
cpu  time for SCC    0.02 s
wall time for SCC    0.02 s

   *** convergence criteria satisfied after 13 iterations ***

          eigenvalues
 #    :          28         29         30         31         32         33         34         35
 occ. :        2.000      2.000      2.000      2.000      2.000      2.000      2.000      2.000
 eps  :       -13.087    -12.715    -12.410    -12.173    -11.927    -11.645    -11.609    -11.511
 #    :          36         37         38         39         40         41         42         43
 occ. :        2.000      2.000      2.000      2.000      2.000      0.000      0.000      0.000
 eps  :       -11.285    -11.173    -11.113    -11.084    -10.901     -1.936     -0.994     -0.130
 #    :          44         45         46         47         48         49         50         51
 occ. :        0.000      0.000      0.000      0.000      0.000      0.000      0.000      0.000
 eps  :         0.847      1.271      1.623      2.347      2.768      3.747      4.069      5.494


   #   Z            q   n(s)   n(p)   n(d)      C6AA      α(0)
   1  16 S      1.618  1.583  1.827  0.972    90.655    16.025
   2   8 O     -0.778  1.772  5.006  0.000    30.923     7.456
   3   8 O     -0.765  1.780  4.985  0.000    30.539     7.409
   4   8 O     -0.747  1.771  4.977  0.000    30.033     7.348
   5   8 O     -0.551  1.721  4.830  0.000    24.013     6.615
   6   1 H      0.359  0.641  0.000  0.000     0.559     1.170
   7   8 O     -0.627  1.744  4.883  0.000    25.830     6.859
   8   1 H      0.323  0.677  0.000  0.000     0.655     1.271
   9   1 H      0.321  0.679  0.000  0.000     0.662     1.278
  10   8 O     -0.645  1.751  4.895  0.000    26.300     6.922
  11   1 H      0.315  0.685  0.000  0.000     0.676     1.292
  12   1 H      0.301  0.699  0.000  0.000     0.719     1.332
  13   8 O     -0.615  1.732  4.884  0.000    25.554     6.823
  14   1 H      0.343  0.657  0.000  0.000     0.605     1.222
  15   1 H      0.292  0.708  0.000  0.000     0.744     1.355
  16   8 O     -0.618  1.729  4.889  0.000    25.613     6.831
  17   1 H      0.287  0.713  0.000  0.000     0.763     1.372
  18   1 H      0.337  0.663  0.000  0.000     0.618     1.235
  19   8 O     -0.605  1.737  4.868  0.000    25.303     6.789
  20   1 H      0.305  0.695  0.000  0.000     0.706     1.320
  21   1 H      0.304  0.696  0.000  0.000     0.709     1.323
  22   7 N     -0.310  1.253  4.057  0.000    27.961     7.854
  23   1 H      0.306  0.694  0.000  0.000     0.696     1.307
  24   1 H      0.298  0.702  0.000  0.000     0.719     1.329
  25   1 H      0.309  0.691  0.000  0.000     0.688     1.299
  26   1 H      0.243  0.757  0.000  0.000     0.911     1.495

 Mol. C6AA /au·bohr⁶  :       5443.815438
 Mol. C8AA /au·bohr⁸  :     117990.764881
 Mol. α(0) /au        :        106.528706

 
 Wiberg/Mayer (AO) data. WBOs > 0.1 written file <wbo>
 largest (>0.05) Wiberg bond orders for each atom
           total WBO             WBO to atom ...
     1  S   4.900    O    4 1.298    O    3 1.289    O    2 1.289    O    5 0.986
     2  O   1.647    S    1 1.289    O    3 0.112    O    4 0.110    O    5 0.072
     3  O   1.669    S    1 1.289    O    4 0.112    O    2 0.112    O    5 0.074
     4  O   1.702    S    1 1.298    O    3 0.112    O    2 0.110    H   14 0.057    O    5 0.053
     5  O   2.038    S    1 0.986    H    6 0.847    O    3 0.074    O    2 0.072    O    4 0.053
     6  H   0.871    O    5 0.847
     7  O   1.898    H    9 0.856    H    8 0.856    H   25 0.096
     8  H   0.895    O    7 0.856
     9  H   0.897    O    7 0.856
    10  O   1.828    H   12 0.872    H   11 0.850
    11  H   0.900    O   10 0.850
    12  H   0.910    O   10 0.872
    13  O   1.880    H   15 0.902    H   14 0.820    H   24 0.055
    14  H   0.882    O   13 0.820    O    4 0.057
    15  H   0.914    O   13 0.902
    16  O   1.837    H   17 0.902    H   18 0.834    H   23 0.052
    17  H   0.918    O   16 0.902
    18  H   0.886    O   16 0.834
    19  O   1.867    H   21 0.890    H   20 0.880
    20  H   0.907    O   19 0.880
    21  H   0.908    O   19 0.890
    22  N   3.553    H   26 0.938    H   24 0.850    H   23 0.845    H   25 0.804
    23  H   0.906    N   22 0.845    O   16 0.052
    24  H   0.911    N   22 0.850    O   13 0.055
    25  H   0.905    N   22 0.804    O    7 0.096
    26  H   0.941    N   22 0.938
 MOs/occ written to file <molden.input>
 
molecular dipole:
                 x           y           z       tot (Debye)
 q only:       -0.606      -1.431       2.077
   full:       -1.743      -0.881       1.353       6.039
molecular quadrupole (traceless):
                xx          xy          yy          xz          yz          zz
 q only:       -6.902      -6.538       7.823       1.358      -3.985      -0.921
  q+dip:       -7.284      -9.473      11.118       2.036      -4.000      -3.834
   full:       -7.348      -9.893      11.375       2.196      -4.128      -4.027

SCC energy    :     -50.7500238
rep           :       0.3088230
ES            :       0.2930532
AES           :      -0.0754163
AXC           :      -0.0094373
disp          :      -0.0190394
XB            :       0.0000000
fix           :       0.0000000
total E       :     -50.4408477
atomizationE  :       4.9711518     3119.44
(atE without considering molecular charge,
 total energy contains solvation terms)
H-L gap (eV)  :          8.9646
           ------------------------------------------------- 
          |                 ===============                 |
          |                   A N C O P T                   |
          |                 ===============                 |
          |          Approximate Normal Coordinate          |
          |           Rational Function Optimizer           |
           ------------------------------------------------- 
dumping coords to <xtbopt.coord> and <xtbopt.log>
 optlevel               2
 Maxcycle             520
 Maxmicro              25
 Econv         1.000000000000000E-007
 Gconv         2.000000000000000E-004
 Maxdispl       1.00000000000000     
 Hlow          5.000000000000000E-003
 S6             20.0000000000000     
 Nvar               72

generating ANC from model Hessian ...
 Shifting diagonal of input Hessian by   4.958916515978649E-003
 Lowest  eigenvalues of input Hessian
   -0.000000   -0.000000   -0.000000    0.000000    0.000000    0.000000
    0.005000    0.005540    0.005740    0.005811    0.006240    0.006888
    0.007423    0.007521    0.008341    0.008480    0.009365    0.009746
 Highest eigenvalues
    1.429437    1.440723    1.454297    3.143265    3.211489    3.315456
 
cpu  time for ANC gen    0.02 s
wall time for ANC gen    0.02 s
................................................................................
.............................. CYCLE    1 ......................................
................................................................................
   1    -50.7500238 -0.507500E+02  0.855E-05    8.96       0.0  T
   2    -50.7500238 -0.137277E-10  0.676E-05    8.96     290.1  T
   3    -50.7500238 -0.176144E-10  0.292E-05    8.96     671.7  T
speedup  1.07
cpu  time for SCC    0.00 s
wall time for SCC    0.00 s
speedup  0.96
cpu  time for grad    0.01 s
wall time for grad    0.01 s
 E :    -50.44084760  G :  0.163055    pred/act E change:  0.000D+00  0.544D-07
Maxdispl :   0.1292   ||displ|| :   0.3315   Lambda : -0.142D-01
Largest |displ|/coords:  0.1292 (  27)  0.1204 (  24)  0.1080 (  22)
................................................................................
.............................. CYCLE    2 ......................................
................................................................................
   1    -50.7502298 -0.507502E+02  0.319E-01    9.03       0.0  T
   2    -50.7503502 -0.120414E-03  0.243E-01    9.06       1.0  T
   3    -50.7503954 -0.451769E-04  0.715E-02    9.11       1.0  T
   4    -50.7504126 -0.172322E-04  0.169E-02    9.10       1.2  T
   5    -50.7504132 -0.630459E-06  0.453E-03    9.10       4.3  T
   6    -50.7504133 -0.289034E-07  0.247E-03    9.10       8.0  T
speedup  0.93
cpu  time for SCC    0.00 s
wall time for SCC    0.01 s
speedup  0.98
cpu  time for grad    0.01 s
wall time for grad    0.01 s
 E :    -50.45181652  G :  0.105213    pred/act E change:  0.000D+00 -0.110D-01
Maxdispl :   0.1141   ||displ|| :   0.2971   Lambda : -0.824D-02
Largest |displ|/coords:  0.1141 (  17)  0.1065 (  30)  0.0955 (  22)
................................................................................
.............................. CYCLE    3 ......................................
................................................................................
   1    -50.7556360 -0.507556E+02  0.170E-01    9.16       0.0  T
   2    -50.7557414 -0.105373E-03  0.131E-01    9.17       1.0  T
   3    -50.7557768 -0.353417E-04  0.732E-02    9.16       1.0  T
   4    -50.7557796 -0.283506E-05  0.140E-02    9.15       1.4  T
   5    -50.7557799 -0.294605E-06  0.426E-03    9.15       4.6  T
   6    -50.7557799 -0.354000E-07  0.187E-03    9.15      10.5  T
speedup  0.94
cpu  time for SCC    0.00 s
wall time for SCC    0.01 s
speedup  0.98
cpu  time for grad    0.01 s
wall time for grad    0.01 s
 E :    -50.45838072  G :  0.061906    pred/act E change: -0.789D-02 -0.656D-02
Maxdispl :   0.1020   ||displ|| :   0.2930   Lambda : -0.445D-02
Largest |displ|/coords:  0.1020 (  17)  0.0845 (  10)  0.0816 (   4)
................................................................................
.............................. CYCLE    4 ......................................
................................................................................
   1    -50.7574987 -0.507575E+02  0.163E-01    9.11       0.0  T
   2    -50.7575704 -0.717798E-04  0.124E-01    9.11       1.0  T
   3    -50.7575941 -0.236559E-04  0.592E-02    9.10       1.0  T
   4    -50.7575975 -0.338976E-05  0.126E-02    9.10       1.6  T
   5    -50.7575977 -0.200906E-06  0.356E-03    9.10       5.5  T
   6    -50.7575977 -0.261814E-07  0.160E-03    9.10      12.2  T
speedup  1.09
cpu  time for SCC    0.01 s
wall time for SCC    0.01 s
speedup  1.04
cpu  time for grad    0.01 s
wall time for grad    0.01 s
 E :    -50.46174100  G :  0.029760    pred/act E change: -0.448D-02 -0.336D-02
Maxdispl :   0.1681   ||displ|| :   0.4163   Lambda : -0.303D-02
Largest |displ|/coords:  0.1681 (  17)  0.1369 (   4)  0.1275 (  10)
................................................................................
.............................. CYCLE    5 ......................................
................................................................................
   1    -50.7574211 -0.507574E+02  0.253E-01    8.98       0.0  T
   2    -50.7574866 -0.654695E-04  0.193E-01    8.98       1.0  T
   3    -50.7575059 -0.192453E-04  0.530E-02    8.98       1.0  T
   4    -50.7575165 -0.106213E-04  0.150E-02    8.98       1.3  T
   5    -50.7575167 -0.222947E-06  0.289E-03    8.98       6.8  T
   6    -50.7575167 -0.168999E-07  0.159E-03    8.98      12.4  T
speedup  1.11
cpu  time for SCC    0.01 s
wall time for SCC    0.01 s
speedup  1.04
cpu  time for grad    0.01 s
wall time for grad    0.01 s
 E :    -50.46357943  G :  0.015349    pred/act E change: -0.242D-02 -0.184D-02
Maxdispl :   0.1705   ||displ|| :   0.3703   Lambda : -0.118D-02
Largest |displ|/coords:  0.1705 (   4)  0.1361 (  10)  0.1108 (   7)
................................................................................
.............................. CYCLE    6 ......................................
................................................................................
   1    -50.7567088 -0.507567E+02  0.189E-01    8.92       0.0  T
   2    -50.7567258 -0.169438E-04  0.142E-01    8.94       1.0  T
   3    -50.7567337 -0.794289E-05  0.240E-02    8.97       1.0  T
   4    -50.7567366 -0.286461E-05  0.795E-03    8.97       2.5  T
   5    -50.7567367 -0.774232E-07  0.196E-03    8.96      10.0  T
   6    -50.7567367 -0.300412E-08  0.109E-03    8.96      18.0  T
speedup  0.94
cpu  time for SCC    0.01 s
wall time for SCC    0.01 s
speedup  0.97
cpu  time for grad    0.01 s
wall time for grad    0.01 s
 E :    -50.46401726  G :  0.016528    pred/act E change: -0.178D-02 -0.438D-03
Maxdispl :   0.2229   ||displ|| :   0.4029   Lambda : -0.134D-02
Largest |displ|/coords:  0.2229 (   3)  0.1661 (  10)  0.1229 (  17)
................................................................................
.............................. CYCLE    7 ......................................
................................................................................
   1    -50.7518378 -0.507518E+02  0.391E-01    8.89       0.0  T
   2    -50.7518735 -0.357329E-04  0.297E-01    8.90       1.0  T
   3    -50.7519011 -0.276166E-04  0.311E-02    8.94       1.0  T
   4    -50.7519064 -0.523064E-05  0.109E-02    8.93       1.8  T
   5    -50.7519066 -0.198444E-06  0.313E-03    8.93       6.3  T
   6    -50.7519066 -0.623642E-08  0.167E-03    8.92      11.7  T
   7    -50.7519066 -0.636993E-08  0.418E-04    8.93      47.0  T
speedup  1.11
cpu  time for SCC    0.01 s
wall time for SCC    0.01 s
speedup  1.05
cpu  time for grad    0.01 s
wall time for grad    0.01 s
 E :    -50.46411389  G :  0.027235    pred/act E change: -0.669D-03 -0.966D-04
Maxdispl :   0.0991   ||displ|| :   0.2059   Lambda : -0.175D-02
Largest |displ|/coords:  0.0991 (   4)  0.0592 (   7)  0.0556 (   3)
................................................................................
.............................. CYCLE    8 ......................................
................................................................................
   1    -50.7573212 -0.507573E+02  0.239E-01    8.92       0.0  T
   2    -50.7573431 -0.219082E-04  0.181E-01    8.92       1.0  T
   3    -50.7573563 -0.132252E-04  0.269E-02    8.92       1.0  T
   4    -50.7573598 -0.353554E-05  0.763E-03    8.92       2.6  T
   5    -50.7573600 -0.120694E-06  0.236E-03    8.92       8.3  T
   6    -50.7573600 -0.223992E-08  0.122E-03    8.92      16.0  T
speedup  1.09
cpu  time for SCC    0.01 s
wall time for SCC    0.01 s
speedup  1.04
cpu  time for grad    0.01 s
wall time for grad    0.01 s
 E :    -50.46474982  G :  0.012376    pred/act E change: -0.778D-03 -0.636D-03
Maxdispl :   0.1268   ||displ|| :   0.1982   Lambda : -0.672D-03
Largest |displ|/coords:  0.1268 (   4)  0.0702 (   3)  0.0626 (  19)
................................................................................
.............................. CYCLE    9 ......................................
................................................................................
   1    -50.7561016 -0.507561E+02  0.184E-01    8.98       0.0  T
   2    -50.7561097 -0.807288E-05  0.138E-01    8.98       1.0  T
   3    -50.7561151 -0.540087E-05  0.169E-02    8.98       1.2  T
   4    -50.7561163 -0.120861E-05  0.613E-03    8.98       3.2  T
   5    -50.7561163 -0.691194E-07  0.198E-03    8.98       9.9  T
   6    -50.7561163 -0.262440E-08  0.107E-03    8.98      18.3  T
speedup  1.11
cpu  time for SCC    0.01 s
wall time for SCC    0.01 s
speedup  1.04
cpu  time for grad    0.01 s
wall time for grad    0.01 s
 E :    -50.46490449  G :  0.016902    pred/act E change: -0.910D-03 -0.155D-03
Maxdispl :   0.1280   ||displ|| :   0.1912   Lambda : -0.603D-03
Largest |displ|/coords:  0.1280 (   3)  0.0813 (   1)  0.0424 (  13)
................................................................................
.............................. CYCLE   10 ......................................
................................................................................
   1    -50.7571718 -0.507572E+02  0.132E-01    9.00       0.0  T
   2    -50.7571775 -0.571757E-05  0.992E-02    9.01       1.0  T
   3    -50.7571817 -0.420275E-05  0.134E-02    9.02       1.5  T
   4    -50.7571825 -0.830027E-06  0.433E-03    9.01       4.5  T
   5    -50.7571826 -0.297988E-07  0.170E-03    9.01      11.5  T
   6    -50.7571826 -0.290741E-08  0.877E-04    9.01      22.4  T
speedup  0.94
cpu  time for SCC    0.01 s
wall time for SCC    0.01 s
speedup  0.97
cpu  time for grad    0.01 s
wall time for grad    0.01 s
 E :    -50.46513549  G :  0.007239    pred/act E change: -0.349D-03 -0.231D-03
Maxdispl :   0.1160   ||displ|| :   0.2530   Lambda : -0.480D-03
Largest |displ|/coords:  0.1160 (   4)  0.0990 (   3)  0.0822 (   2)
................................................................................
.............................. CYCLE   11 ......................................
................................................................................
   1    -50.7538089 -0.507538E+02  0.209E-01    8.98       0.0  T
   2    -50.7538199 -0.109693E-04  0.158E-01    8.99       1.0  T
   3    -50.7538291 -0.921067E-05  0.179E-02    9.00       1.1  T
   4    -50.7538305 -0.147012E-05  0.477E-03    9.00       4.1  T
   5    -50.7538306 -0.379869E-07  0.198E-03    9.00       9.9  T
   6    -50.7538306 -0.524879E-08  0.101E-03    9.00      19.4  T
speedup  0.94
cpu  time for SCC    0.00 s
wall time for SCC    0.01 s
speedup  0.97
cpu  time for grad    0.01 s
wall time for grad    0.01 s
 E :    -50.46525548  G :  0.014451    pred/act E change: -0.313D-03 -0.120D-03
Maxdispl :   0.0443   ||displ|| :   0.1072   Lambda : -0.368D-03
Largest |displ|/coords:  0.0443 (   4)  0.0394 (   3)  0.0377 (  12)
................................................................................
.............................. CYCLE   12 ......................................
................................................................................
   1    -50.7562303 -0.507562E+02  0.860E-02    9.02       0.0  T
   2    -50.7562337 -0.345840E-05  0.647E-02    9.02       1.0  T
   3    -50.7562360 -0.225663E-05  0.111E-02    9.02       1.8  T
   4    -50.7562365 -0.478280E-06  0.276E-03    9.02       7.1  T
   5    -50.7562365 -0.136210E-07  0.100E-03    9.02      19.5  T
speedup  1.06
cpu  time for SCC    0.00 s
wall time for SCC    0.00 s
speedup  1.01
cpu  time for grad    0.01 s
wall time for grad    0.01 s
 E :    -50.46545944  G :  0.008055    pred/act E change: -0.255D-03 -0.204D-03
Maxdispl :   0.0890   ||displ|| :   0.1633   Lambda : -0.224D-03
Largest |displ|/coords:  0.0890 (   4)  0.0591 (  13)  0.0456 (  14)
................................................................................
.............................. CYCLE   13 ......................................
................................................................................
   1    -50.7566658 -0.507567E+02  0.885E-02    9.05       0.0  T
   2    -50.7566676 -0.173932E-05  0.652E-02    9.05       1.0  T
   3    -50.7566683 -0.716804E-06  0.108E-02    9.04       1.8  T
   4    -50.7566686 -0.292089E-06  0.283E-03    9.04       6.9  T
   5    -50.7566686 -0.979063E-08  0.772E-04    9.04      25.4  T
speedup  1.11
cpu  time for SCC    0.01 s
wall time for SCC    0.00 s
speedup  1.04
cpu  time for grad    0.01 s
wall time for grad    0.01 s
 E :    -50.46560878  G :  0.005953    pred/act E change: -0.186D-03 -0.149D-03
Maxdispl :   0.1278   ||displ|| :   0.2958   Lambda : -0.253D-03
Largest |displ|/coords:  0.1278 (   4)  0.1018 (  12)  0.0991 (   3)
................................................................................
.............................. CYCLE   14 ......................................
................................................................................
   1    -50.7558430 -0.507558E+02  0.181E-01    9.05       0.0  T
   2    -50.7558497 -0.664090E-05  0.135E-01    9.05       1.0  T
   3    -50.7558547 -0.508475E-05  0.197E-02    9.06       1.0  T
   4    -50.7558556 -0.873540E-06  0.576E-03    9.05       3.4  T
   5    -50.7558557 -0.400875E-07  0.172E-03    9.05      11.4  T
   6    -50.7558557 -0.312379E-08  0.977E-04    9.05      20.1  T
speedup  0.93
cpu  time for SCC    0.00 s
wall time for SCC    0.01 s
speedup  0.97
cpu  time for grad    0.01 s
wall time for grad    0.01 s
 E :    -50.46579343  G :  0.008459    pred/act E change: -0.115D-03 -0.185D-03
Maxdispl :   0.1263   ||displ|| :   0.3665   Lambda : -0.302D-03
Largest |displ|/coords:  0.1263 (  12)  0.1246 (   3)  0.1188 (  13)
................................................................................
.............................. CYCLE   15 ......................................
................................................................................
   1    -50.7543421 -0.507543E+02  0.238E-01    9.01       0.0  T
   2    -50.7543541 -0.120644E-04  0.178E-01    9.01       1.0  T
   3    -50.7543645 -0.103982E-04  0.255E-02    9.01       1.0  T
   4    -50.7543660 -0.144679E-05  0.811E-03    9.01       2.4  T
   5    -50.7543660 -0.771671E-07  0.238E-03    9.01       8.2  T
   6    -50.7543661 -0.692588E-08  0.141E-03    9.01      13.9  T
speedup  0.93
cpu  time for SCC    0.01 s
wall time for SCC    0.01 s
speedup  0.97
cpu  time for grad    0.01 s
wall time for grad    0.01 s
 E :    -50.46597607  G :  0.010646    pred/act E change: -0.138D-03 -0.183D-03
Maxdispl :   0.1520   ||displ|| :   0.2576   Lambda : -0.279D-03
Largest |displ|/coords:  0.1520 (  10)  0.0901 (  12)  0.0803 (  14)
................................................................................
.............................. CYCLE   16 ......................................
................................................................................
   1    -50.7560084 -0.507560E+02  0.158E-01    8.97       0.0  T
   2    -50.7560141 -0.568909E-05  0.117E-01    8.97       1.0  T
   3    -50.7560192 -0.504676E-05  0.185E-02    8.96       1.1  T
   4    -50.7560198 -0.616352E-06  0.656E-03    8.96       3.0  T
   5    -50.7560198 -0.490679E-07  0.169E-03    8.96      11.6  T
   6    -50.7560198 -0.340300E-08  0.108E-03    8.96      18.1  T
speedup  0.93
cpu  time for SCC    0.00 s
wall time for SCC    0.01 s
speedup  0.97
cpu  time for grad    0.01 s
wall time for grad    0.01 s
 E :    -50.46609631  G :  0.011010    pred/act E change: -0.171D-03 -0.120D-03
Maxdispl :   0.1022   ||displ|| :   0.2071   Lambda : -0.265D-03
Largest |displ|/coords:  0.1022 (  10)  0.0780 (  14)  0.0731 (  13)
................................................................................
.............................. CYCLE   17 ......................................
................................................................................
   1    -50.7549635 -0.507550E+02  0.153E-01    8.94       0.0  T
   2    -50.7549700 -0.653134E-05  0.114E-01    8.94       1.0  T
   3    -50.7549745 -0.449755E-05  0.184E-02    8.94       1.1  T
   4    -50.7549753 -0.813019E-06  0.559E-03    8.94       3.5  T
   5    -50.7549754 -0.507698E-07  0.161E-03    8.94      12.2  T
   6    -50.7549754 -0.228314E-08  0.944E-04    8.94      20.8  T
speedup  0.93
cpu  time for SCC    0.01 s
wall time for SCC    0.01 s
speedup  0.97
cpu  time for grad    0.01 s
wall time for grad    0.01 s
 E :    -50.46621509  G :  0.012455    pred/act E change: -0.149D-03 -0.119D-03
Maxdispl :   0.1182   ||displ|| :   0.1797   Lambda : -0.301D-03
Largest |displ|/coords:  0.1182 (   4)  0.0704 (   3)  0.0465 (   6)
................................................................................
.............................. CYCLE   18 ......................................
................................................................................
   1    -50.7590691 -0.507591E+02  0.815E-02    9.02       0.0  T
   2    -50.7590772 -0.809975E-05  0.585E-02    9.01       1.0  T
   3    -50.7590811 -0.386884E-05  0.199E-02    9.01       1.0  T
   4    -50.7590817 -0.588748E-06  0.497E-03    9.01       3.9  T
   5    -50.7590818 -0.735797E-07  0.141E-03    9.01      13.9  T
   6    -50.7590818 -0.200010E-08  0.827E-04    9.01      23.7  T
speedup  0.93
cpu  time for SCC    0.00 s
wall time for SCC    0.01 s
speedup  0.96
cpu  time for grad    0.01 s
wall time for grad    0.01 s
 E :    -50.46626679  G :  0.011091    pred/act E change: -0.138D-03 -0.517D-04
Maxdispl :   0.0708   ||displ|| :   0.1609   Lambda : -0.256D-03
Largest |displ|/coords:  0.0708 (  12)  0.0674 (   9)  0.0528 (  10)
................................................................................
.............................. CYCLE   19 ......................................
................................................................................
   1    -50.7568931 -0.507569E+02  0.106E-01    9.01       0.0  T
   2    -50.7568978 -0.470243E-05  0.794E-02    9.01       1.0  T
   3    -50.7569003 -0.251125E-05  0.137E-02    9.01       1.4  T
   4    -50.7569010 -0.702105E-06  0.361E-03    9.01       5.4  T
   5    -50.7569011 -0.344803E-07  0.117E-03    9.01      16.7  T
   6    -50.7569011 -0.821913E-09  0.676E-04    9.01      29.0  T
speedup  0.91
cpu  time for SCC    0.00 s
wall time for SCC    0.01 s
speedup  0.96
cpu  time for grad    0.01 s
wall time for grad    0.01 s
 E :    -50.46639790  G :  0.006236    pred/act E change: -0.155D-03 -0.131D-03
Maxdispl :   0.1051   ||displ|| :   0.1910   Lambda : -0.171D-03
Largest |displ|/coords:  0.1051 (  10)  0.0624 (  14)  0.0593 (  13)
................................................................................
.............................. CYCLE   20 ......................................
................................................................................
   1    -50.7548023 -0.507548E+02  0.119E-01    8.98       0.0  T
   2    -50.7548053 -0.302139E-05  0.894E-02    8.98       1.0  T
   3    -50.7548078 -0.253764E-05  0.111E-02    8.98       1.8  T
   4    -50.7548082 -0.418358E-06  0.367E-03    8.98       5.3  T
   5    -50.7548083 -0.190056E-07  0.127E-03    8.98      15.4  T
   6    -50.7548083 -0.222555E-08  0.726E-04    8.98      27.0  T
speedup  0.94
cpu  time for SCC    0.00 s
wall time for SCC    0.01 s
speedup  0.98
cpu  time for grad    0.01 s
wall time for grad    0.01 s
 E :    -50.46646696  G :  0.007673    pred/act E change: -0.131D-03 -0.691D-04
Maxdispl :   0.0537   ||displ|| :   0.1226   Lambda : -0.120D-03
Largest |displ|/coords:  0.0537 (   1)  0.0525 (   4)  0.0463 (  10)
................................................................................
.............................. CYCLE   21 ......................................
................................................................................
   1    -50.7562988 -0.507563E+02  0.577E-02    9.01       0.0  T
   2    -50.7563002 -0.142218E-05  0.428E-02    9.01       1.0  T
   3    -50.7563009 -0.660108E-06  0.901E-03    9.01       2.2  T
   4    -50.7563011 -0.225990E-06  0.221E-03    9.01       8.9  T
   5    -50.7563011 -0.804516E-08  0.665E-04    9.01      29.5  T
speedup  0.89
cpu  time for SCC    0.00 s
wall time for SCC    0.00 s
speedup  0.96
cpu  time for grad    0.01 s
wall time for grad    0.01 s
 E :    -50.46655156  G :  0.005993    pred/act E change: -0.886D-04 -0.846D-04
Maxdispl :   0.1051   ||displ|| :   0.2615   Lambda : -0.151D-03
Largest |displ|/coords:  0.1051 (  10)  0.0901 (   4)  0.0873 (   7)
................................................................................
.............................. CYCLE   22 ......................................
................................................................................
   1    -50.7560911 -0.507561E+02  0.139E-01    9.04       0.0  T
   2    -50.7560972 -0.614721E-05  0.104E-01    9.04       1.0  T
   3    -50.7561009 -0.367110E-05  0.191E-02    9.03       1.0  T
   4    -50.7561019 -0.102125E-05  0.493E-03    9.04       4.0  T
   5    -50.7561020 -0.283521E-07  0.155E-03    9.04      12.6  T
   6    -50.7561020 -0.275630E-08  0.844E-04    9.04      23.2  T
speedup  0.93
cpu  time for SCC    0.01 s
wall time for SCC    0.01 s
speedup  0.97
cpu  time for grad    0.01 s
wall time for grad    0.01 s
 E :    -50.46663877  G :  0.003185    pred/act E change: -0.609D-04 -0.872D-04
Maxdispl :   0.0876   ||displ|| :   0.1866   Lambda : -0.677D-04
Largest |displ|/coords:  0.0876 (  10)  0.0783 (   1)  0.0556 (  12)
................................................................................
.............................. CYCLE   23 ......................................
................................................................................
   1    -50.7567433 -0.507567E+02  0.950E-02    9.06       0.0  T
   2    -50.7567460 -0.268109E-05  0.708E-02    9.06       1.0  T
   3    -50.7567472 -0.119575E-05  0.122E-02    9.06       1.6  T
   4    -50.7567477 -0.483260E-06  0.354E-03    9.06       5.5  T
   5    -50.7567477 -0.137656E-07  0.942E-04    9.06      20.8  T
   6    -50.7567477 -0.117611E-08  0.564E-04    9.06      34.8  T
speedup  0.94
cpu  time for SCC    0.00 s
wall time for SCC    0.01 s
speedup  1.01
cpu  time for grad    0.01 s
wall time for grad    0.01 s
 E :    -50.46668059  G :  0.003149    pred/act E change: -0.805D-04 -0.418D-04
Maxdispl :   0.0725   ||displ|| :   0.1636   Lambda : -0.451D-04
Largest |displ|/coords:  0.0725 (  10)  0.0663 (   1)  0.0450 (  14)
................................................................................
.............................. CYCLE   24 ......................................
................................................................................
   1    -50.7563811 -0.507564E+02  0.922E-02    9.05       0.0  T
   2    -50.7563831 -0.198875E-05  0.687E-02    9.05       1.0  T
   3    -50.7563846 -0.149792E-05  0.987E-03    9.06       2.0  T
   4    -50.7563849 -0.280274E-06  0.396E-03    9.06       5.0  T
   5    -50.7563849 -0.162470E-07  0.962E-04    9.06      20.4  T
   6    -50.7563849 -0.117048E-08  0.629E-04    9.06      31.2  T
speedup  0.94
cpu  time for SCC    0.00 s
wall time for SCC    0.01 s
speedup  0.94
cpu  time for grad    0.01 s
wall time for grad    0.01 s
 E :    -50.46670858  G :  0.004052    pred/act E change: -0.350D-04 -0.280D-04
Maxdispl :   0.0695   ||displ|| :   0.1378   Lambda : -0.532D-04
Largest |displ|/coords:  0.0695 (   1)  0.0518 (  10)  0.0469 (   3)
................................................................................
.............................. CYCLE   25 ......................................
................................................................................
   1    -50.7578907 -0.507579E+02  0.731E-02    9.09       0.0  T
   2    -50.7578920 -0.129606E-05  0.538E-02    9.09       1.0  T
   3    -50.7578929 -0.957951E-06  0.923E-03    9.09       2.1  T
   4    -50.7578931 -0.151507E-06  0.316E-03    9.09       6.2  T
   5    -50.7578931 -0.120953E-07  0.767E-04    9.09      25.6  T
   6    -50.7578931 -0.709271E-09  0.514E-04    9.09      38.1  T
speedup  0.94
cpu  time for SCC    0.00 s
wall time for SCC    0.01 s
speedup  0.96
cpu  time for grad    0.01 s
wall time for grad    0.01 s
 E :    -50.46673778  G :  0.004909    pred/act E change: -0.232D-04 -0.292D-04
Maxdispl :   0.1545   ||displ|| :   0.3279   Lambda : -0.851D-04
Largest |displ|/coords:  0.1545 (  10)  0.0956 (   3)  0.0918 (   1)

generating ANC from model Hessian ...
 Shifting diagonal of input Hessian by   4.746945310851857E-003
 Lowest  eigenvalues of input Hessian
   -0.000000   -0.000000   -0.000000   -0.000000    0.000000    0.000000
    0.005000    0.005428    0.005929    0.006116    0.006884    0.007579
    0.007974    0.008871    0.009097    0.009947    0.011076    0.011833
 Highest eigenvalues
    1.391501    1.407878    1.437264    2.575751    3.520605    3.564496
 
cpu  time for ANC gen    0.02 s
wall time for ANC gen    0.02 s
................................................................................
.............................. CYCLE   26 ......................................
................................................................................
   1    -50.7544675 -0.507545E+02  0.197E-01    9.01       0.0  T
   2    -50.7544747 -0.721309E-05  0.146E-01    9.01       1.0  T
   3    -50.7544809 -0.621390E-05  0.204E-02    9.01       1.0  T
   4    -50.7544817 -0.741568E-06  0.750E-03    9.01       2.6  T
   5    -50.7544817 -0.594871E-07  0.185E-03    9.01      10.6  T
   6    -50.7544817 -0.377105E-08  0.120E-03    9.01      16.3  T
   7    -50.7544817 -0.199910E-08  0.265E-04    9.01      73.9  T
   8    -50.7544817 -0.272713E-09  0.638E-05    9.01     307.6  T
speedup  0.99
cpu  time for SCC    0.01 s
wall time for SCC    0.01 s
speedup  1.03
cpu  time for grad    0.02 s
wall time for grad    0.02 s
 E :    -50.46671587  G :  0.008083    pred/act E change:  0.000D+00  0.219D-04
Maxdispl :   0.0464   ||displ|| :   0.0807   Lambda : -0.149D-03
Largest |displ|/coords:  0.0464 (   5)  0.0307 (   4)  0.0219 (  11)
................................................................................
.............................. CYCLE   27 ......................................
................................................................................
   1    -50.7559048 -0.507559E+02  0.717E-02    9.05       0.0  T
   2    -50.7559058 -0.101356E-05  0.539E-02    9.05       1.0  T
   3    -50.7559068 -0.964012E-06  0.655E-03    9.04       3.0  T
   4    -50.7559069 -0.965536E-07  0.162E-03    9.04      12.1  T
   5    -50.7559069 -0.443271E-08  0.616E-04    9.05      31.8  T
speedup  1.11
cpu  time for SCC    0.00 s
wall time for SCC    0.00 s
speedup  1.03
cpu  time for grad    0.01 s
wall time for grad    0.01 s
 E :    -50.46682165  G :  0.004184    pred/act E change:  0.000D+00 -0.106D-03
Maxdispl :   0.0493   ||displ|| :   0.1282   Lambda : -0.135D-03
Largest |displ|/coords:  0.0493 (   4)  0.0452 (  13)  0.0420 (   2)
................................................................................
.............................. CYCLE   28 ......................................
................................................................................
   1    -50.7573106 -0.507573E+02  0.111E-01    9.10       0.0  T
   2    -50.7573130 -0.241883E-05  0.835E-02    9.10       1.0  T
   3    -50.7573150 -0.191803E-05  0.117E-02    9.10       1.7  T
   4    -50.7573153 -0.305273E-06  0.284E-03    9.10       6.9  T
   5    -50.7573153 -0.127304E-07  0.972E-04    9.10      20.2  T
speedup  0.89
cpu  time for SCC    0.00 s
wall time for SCC    0.00 s
speedup  0.96
cpu  time for grad    0.01 s
wall time for grad    0.01 s
 E :    -50.46689658  G :  0.004157    pred/act E change: -0.751D-04 -0.749D-04
Maxdispl :   0.0351   ||displ|| :   0.0801   Lambda : -0.443D-04
Largest |displ|/coords:  0.0351 (   7)  0.0346 (   5)  0.0289 (   3)
................................................................................
.............................. CYCLE   29 ......................................
................................................................................
   1    -50.7574896 -0.507575E+02  0.543E-02    9.11       0.0  T
   2    -50.7574902 -0.597355E-06  0.407E-02    9.11       1.0  T
   3    -50.7574906 -0.421551E-06  0.523E-03    9.11       3.7  T
   4    -50.7574907 -0.948304E-07  0.128E-03    9.11      15.3  T
   5    -50.7574907 -0.196883E-08  0.470E-04    9.11      41.7  T
speedup  0.91
cpu  time for SCC    0.00 s
wall time for SCC    0.00 s
speedup  0.97
cpu  time for grad    0.01 s
wall time for grad    0.01 s
 E :    -50.46693020  G :  0.003600    pred/act E change: -0.685D-04 -0.336D-04
Maxdispl :   0.0635   ||displ|| :   0.1521   Lambda : -0.686D-04
Largest |displ|/coords:  0.0635 (   7)  0.0629 (   3)  0.0478 (   4)
................................................................................
.............................. CYCLE   30 ......................................
................................................................................
   1    -50.7574925 -0.507575E+02  0.984E-02    9.12       0.0  T
   2    -50.7574945 -0.194010E-05  0.740E-02    9.12       1.0  T
   3    -50.7574961 -0.160267E-05  0.912E-03    9.12       2.2  T
   4    -50.7574964 -0.263294E-06  0.224E-03    9.12       8.8  T
   5    -50.7574964 -0.686544E-08  0.831E-04    9.12      23.6  T
   6    -50.7574964 -0.753118E-09  0.393E-04    9.12      49.9  T
speedup  1.11
cpu  time for SCC    0.01 s
wall time for SCC    0.01 s
speedup  0.99
cpu  time for grad    0.01 s
wall time for grad    0.01 s
 E :    -50.46697832  G :  0.002731    pred/act E change: -0.223D-04 -0.481D-04
Maxdispl :   0.0773   ||displ|| :   0.1750   Lambda : -0.518D-04
Largest |displ|/coords:  0.0773 (   7)  0.0667 (   3)  0.0531 (  12)
................................................................................
.............................. CYCLE   31 ......................................
................................................................................
   1    -50.7569626 -0.507570E+02  0.112E-01    9.10       0.0  T
   2    -50.7569646 -0.191669E-05  0.849E-02    9.10       1.0  T
   3    -50.7569668 -0.219510E-05  0.812E-03    9.11       2.4  T
   4    -50.7569669 -0.140560E-06  0.235E-03    9.11       8.4  T
   5    -50.7569669 -0.793622E-08  0.884E-04    9.11      22.2  T
   6    -50.7569669 -0.987228E-09  0.463E-04    9.11      42.3  T
speedup  1.09
cpu  time for SCC    0.01 s
wall time for SCC    0.01 s
speedup  1.00
cpu  time for grad    0.01 s
wall time for grad    0.01 s
 E :    -50.46701625  G :  0.003131    pred/act E change: -0.351D-04 -0.379D-04
Maxdispl :   0.0877   ||displ|| :   0.1970   Lambda : -0.573D-04
Largest |displ|/coords:  0.0877 (   7)  0.0749 (   3)  0.0635 (  12)
................................................................................
.............................. CYCLE   32 ......................................
................................................................................
   1    -50.7566279 -0.507566E+02  0.121E-01    9.07       0.0  T
   2    -50.7566306 -0.266776E-05  0.907E-02    9.07       1.0  T
   3    -50.7566334 -0.279357E-05  0.105E-02    9.07       1.9  T
   4    -50.7566336 -0.226966E-06  0.240E-03    9.07       8.2  T
   5    -50.7566336 -0.926207E-08  0.100E-03    9.07      19.6  T
   6    -50.7566336 -0.147944E-08  0.535E-04    9.07      36.6  T
   7    -50.7566336 -0.471374E-09  0.148E-04    9.07     132.6  T
speedup  0.97
cpu  time for SCC    0.01 s
wall time for SCC    0.01 s
speedup  1.02
cpu  time for grad    0.01 s
wall time for grad    0.01 s
 E :    -50.46705036  G :  0.004198    pred/act E change: -0.267D-04 -0.341D-04
Maxdispl :   0.0597   ||displ|| :   0.1406   Lambda : -0.401D-04
Largest |displ|/coords:  0.0597 (   7)  0.0585 (   1)  0.0447 (   5)
................................................................................
.............................. CYCLE   33 ......................................
................................................................................
   1    -50.7561611 -0.507562E+02  0.911E-02    9.06       0.0  T
   2    -50.7561625 -0.137800E-05  0.683E-02    9.06       1.0  T
   3    -50.7561638 -0.129907E-05  0.831E-03    9.06       2.4  T
   4    -50.7561639 -0.134276E-06  0.225E-03    9.06       8.7  T
   5    -50.7561639 -0.773866E-08  0.686E-04    9.06      28.6  T
speedup  1.14
cpu  time for SCC    0.00 s
wall time for SCC    0.00 s
speedup  1.04
cpu  time for grad    0.01 s
wall time for grad    0.01 s
 E :    -50.46707400  G :  0.004724    pred/act E change: -0.297D-04 -0.236D-04
Maxdispl :   0.0761   ||displ|| :   0.1411   Lambda : -0.809D-04
Largest |displ|/coords:  0.0761 (   1)  0.0751 (  10)  0.0371 (   7)
................................................................................
.............................. CYCLE   34 ......................................
................................................................................
   1    -50.7575972 -0.507576E+02  0.812E-02    9.08       0.0  T
   2    -50.7575997 -0.248620E-05  0.593E-02    9.07       1.0  T
   3    -50.7576008 -0.107121E-05  0.111E-02    9.07       1.8  T
   4    -50.7576011 -0.345523E-06  0.381E-03    9.07       5.2  T
   5    -50.7576011 -0.125566E-07  0.703E-04    9.07      27.9  T
   6    -50.7576011 -0.878757E-09  0.412E-04    9.07      47.6  T
speedup  1.11
cpu  time for SCC    0.01 s
wall time for SCC    0.01 s
speedup  1.04
cpu  time for grad    0.01 s
wall time for grad    0.01 s
 E :    -50.46711633  G :  0.004003    pred/act E change: -0.204D-04 -0.423D-04
Maxdispl :   0.0625   ||displ|| :   0.1238   Lambda : -0.369D-04
Largest |displ|/coords:  0.0625 (   1)  0.0465 (   7)  0.0432 (  10)
................................................................................
.............................. CYCLE   35 ......................................
................................................................................
   1    -50.7569562 -0.507570E+02  0.769E-02    9.08       0.0  T
   2    -50.7569571 -0.855066E-06  0.570E-02    9.08       1.0  T
   3    -50.7569580 -0.869576E-06  0.839E-03    9.08       2.3  T
   4    -50.7569580 -0.628157E-07  0.188E-03    9.08      10.4  T
   5    -50.7569580 -0.703307E-08  0.550E-04    9.08      35.6  T
speedup  1.11
cpu  time for SCC    0.00 s
wall time for SCC    0.00 s
speedup  1.04
cpu  time for grad    0.01 s
wall time for grad    0.01 s
 E :    -50.46714535  G :  0.003509    pred/act E change: -0.413D-04 -0.290D-04
Maxdispl :   0.1213   ||displ|| :   0.2280   Lambda : -0.674D-04
Largest |displ|/coords:  0.1213 (   1)  0.0881 (   7)  0.0798 (  10)
................................................................................
.............................. CYCLE   36 ......................................
................................................................................
   1    -50.7560963 -0.507561E+02  0.136E-01    9.10       0.0  T
   2    -50.7560989 -0.263814E-05  0.999E-02    9.10       1.0  T
   3    -50.7561014 -0.248130E-05  0.164E-02    9.09       1.2  T
   4    -50.7561016 -0.200198E-06  0.393E-03    9.09       5.0  T
   5    -50.7561016 -0.256011E-07  0.932E-04    9.09      21.1  T
   6    -50.7561016 -0.935344E-09  0.564E-04    9.09      34.8  T
speedup  0.94
cpu  time for SCC    0.00 s
wall time for SCC    0.01 s
speedup  1.01
cpu  time for grad    0.01 s
wall time for grad    0.01 s
 E :    -50.46718861  G :  0.003000    pred/act E change: -0.188D-04 -0.433D-04
Maxdispl :   0.0543   ||displ|| :   0.1143   Lambda : -0.319D-04
Largest |displ|/coords:  0.0543 (   1)  0.0465 (   7)  0.0393 (  10)
................................................................................
.............................. CYCLE   37 ......................................
................................................................................
   1    -50.7563759 -0.507564E+02  0.676E-02    9.12       0.0  T
   2    -50.7563767 -0.834378E-06  0.495E-02    9.12       1.0  T
   3    -50.7563774 -0.674404E-06  0.919E-03    9.12       2.1  T
   4    -50.7563775 -0.785715E-07  0.229E-03    9.12       8.6  T
   5    -50.7563775 -0.785789E-08  0.449E-04    9.12      43.7  T
   6    -50.7563775 -0.221689E-09  0.277E-04    9.12      70.8  T
speedup  1.11
cpu  time for SCC    0.01 s
wall time for SCC    0.01 s
speedup  0.99
cpu  time for grad    0.01 s
wall time for grad    0.01 s
 E :    -50.46721091  G :  0.002647    pred/act E change: -0.355D-04 -0.223D-04
Maxdispl :   0.1125   ||displ|| :   0.2310   Lambda : -0.366D-04
Largest |displ|/coords:  0.1125 (   7)  0.1023 (   1)  0.0842 (  10)
................................................................................
.............................. CYCLE   38 ......................................
................................................................................
   1    -50.7557032 -0.507557E+02  0.136E-01    9.09       0.0  T
   2    -50.7557061 -0.288854E-05  0.101E-01    9.09       1.0  T
   3    -50.7557090 -0.290093E-05  0.153E-02    9.09       1.3  T
   4    -50.7557092 -0.229320E-06  0.395E-03    9.09       5.0  T
   5    -50.7557093 -0.244397E-07  0.928E-04    9.09      21.1  T
   6    -50.7557093 -0.925674E-09  0.590E-04    9.09      33.3  T
speedup  1.11
cpu  time for SCC    0.01 s
wall time for SCC    0.01 s
speedup  1.01
cpu  time for grad    0.01 s
wall time for grad    0.01 s
 E :    -50.46722916  G :  0.004417    pred/act E change: -0.162D-04 -0.182D-04
Maxdispl :   0.0400   ||displ|| :   0.0782   Lambda : -0.471D-04
Largest |displ|/coords:  0.0400 (   2)  0.0320 (   7)  0.0275 (  10)
................................................................................
.............................. CYCLE   39 ......................................
................................................................................
   1    -50.7580859 -0.507581E+02  0.398E-02    9.15       0.0  T
   2    -50.7580865 -0.612259E-06  0.295E-02    9.15       1.0  T
   3    -50.7580869 -0.405973E-06  0.565E-03    9.14       3.5  T
   4    -50.7580870 -0.707026E-07  0.148E-03    9.14      13.2  T
   5    -50.7580870 -0.394186E-08  0.428E-04    9.14      45.8  T
speedup  0.89
cpu  time for SCC    0.00 s
wall time for SCC    0.00 s
speedup  0.96
cpu  time for grad    0.01 s
wall time for grad    0.01 s
 E :    -50.46724169  G :  0.003020    pred/act E change: -0.193D-04 -0.125D-04
Maxdispl :   0.0359   ||displ|| :   0.0892   Lambda : -0.283D-04
Largest |displ|/coords:  0.0359 (   7)  0.0325 (  10)  0.0325 (   1)
................................................................................
.............................. CYCLE   40 ......................................
................................................................................
   1    -50.7573052 -0.507573E+02  0.563E-02    9.12       0.0  T
   2    -50.7573058 -0.597369E-06  0.423E-02    9.12       1.0  T
   3    -50.7573064 -0.596074E-06  0.501E-03    9.12       3.9  T
   4    -50.7573065 -0.566108E-07  0.143E-03    9.12      13.7  T
   5    -50.7573065 -0.332211E-08  0.465E-04    9.12      42.2  T
   6    -50.7573065 -0.289148E-09  0.273E-04    9.12      71.8  T
speedup  0.93
cpu  time for SCC    0.00 s
wall time for SCC    0.01 s
speedup  1.01
cpu  time for grad    0.01 s
wall time for grad    0.01 s
 E :    -50.46726082  G :  0.002317    pred/act E change: -0.237D-04 -0.191D-04
Maxdispl :   0.0554   ||displ|| :   0.1179   Lambda : -0.209D-04
Largest |displ|/coords:  0.0554 (   7)  0.0480 (  10)  0.0455 (   1)
................................................................................
.............................. CYCLE   41 ......................................
................................................................................
   1    -50.7566313 -0.507566E+02  0.733E-02    9.10       0.0  T
   2    -50.7566321 -0.870916E-06  0.550E-02    9.10       1.0  T
   3    -50.7566331 -0.991446E-06  0.621E-03    9.10       3.2  T
   4    -50.7566332 -0.600923E-07  0.143E-03    9.10      13.8  T
   5    -50.7566332 -0.385493E-08  0.593E-04    9.10      33.1  T
   6    -50.7566332 -0.519798E-09  0.324E-04    9.10      60.5  T
speedup  0.93
cpu  time for SCC    0.01 s
wall time for SCC    0.01 s
speedup  1.01
cpu  time for grad    0.01 s
wall time for grad    0.01 s
 E :    -50.46727440  G :  0.002627    pred/act E change: -0.143D-04 -0.136D-04
Maxdispl :   0.0304   ||displ|| :   0.0656   Lambda : -0.179D-04
Largest |displ|/coords:  0.0304 (   3)  0.0266 (  10)  0.0219 (   7)
................................................................................
.............................. CYCLE   42 ......................................
................................................................................
   1    -50.7568906 -0.507569E+02  0.466E-02    9.10       0.0  T
   2    -50.7568910 -0.409638E-06  0.347E-02    9.10       1.0  T
   3    -50.7568914 -0.378175E-06  0.507E-03    9.10       3.9  T
   4    -50.7568915 -0.452454E-07  0.153E-03    9.10      12.8  T
   5    -50.7568915 -0.282744E-08  0.385E-04    9.10      50.9  T
   6    -50.7568915 -0.159638E-09  0.249E-04    9.10      78.6  T
speedup  0.94
cpu  time for SCC    0.00 s
wall time for SCC    0.01 s
speedup  1.01
cpu  time for grad    0.01 s
wall time for grad    0.01 s
 E :    -50.46728778  G :  0.002175    pred/act E change: -0.106D-04 -0.134D-04
Maxdispl :   0.0575   ||displ|| :   0.1353   Lambda : -0.251D-04
Largest |displ|/coords:  0.0575 (   3)  0.0565 (   7)  0.0535 (  10)
................................................................................
.............................. CYCLE   43 ......................................
................................................................................
   1    -50.7570458 -0.507570E+02  0.910E-02    9.10       0.0  T
   2    -50.7570470 -0.125957E-05  0.684E-02    9.10       1.0  T
   3    -50.7570486 -0.155274E-05  0.783E-03    9.10       2.5  T
   4    -50.7570487 -0.660975E-07  0.225E-03    9.10       8.7  T
   5    -50.7570487 -0.854772E-08  0.697E-04    9.10      28.1  T
   6    -50.7570487 -0.485045E-09  0.455E-04    9.10      43.1  T
speedup  1.13
cpu  time for SCC    0.01 s
wall time for SCC    0.01 s
speedup  1.01
cpu  time for grad    0.01 s
wall time for grad    0.01 s
 E :    -50.46730618  G :  0.002731    pred/act E change: -0.898D-05 -0.184D-04
Maxdispl :   0.0612   ||displ|| :   0.1263   Lambda : -0.292D-04
Largest |displ|/coords:  0.0612 (   3)  0.0495 (  10)  0.0385 (   7)
................................................................................
.............................. CYCLE   44 ......................................
................................................................................
   1    -50.7576496 -0.507576E+02  0.886E-02    9.12       0.0  T
   2    -50.7576509 -0.134425E-05  0.664E-02    9.13       1.0  T
   3    -50.7576523 -0.139537E-05  0.833E-03    9.13       2.4  T
   4    -50.7576524 -0.120518E-06  0.296E-03    9.13       6.6  T
   5    -50.7576524 -0.106172E-07  0.715E-04    9.13      27.4  T
   6    -50.7576524 -0.471744E-09  0.481E-04    9.13      40.7  T
speedup  1.13
cpu  time for SCC    0.01 s
wall time for SCC    0.01 s
speedup  1.01
cpu  time for grad    0.01 s
wall time for grad    0.01 s
 E :    -50.46732577  G :  0.003090    pred/act E change: -0.128D-04 -0.196D-04
Maxdispl :   0.1036   ||displ|| :   0.2152   Lambda : -0.343D-04
Largest |displ|/coords:  0.1036 (   3)  0.0839 (   7)  0.0813 (  10)
................................................................................
.............................. CYCLE   45 ......................................
................................................................................
   1    -50.7570750 -0.507571E+02  0.145E-01    9.10       0.0  T
   2    -50.7570786 -0.355599E-05  0.109E-01    9.11       1.0  T
   3    -50.7570825 -0.394639E-05  0.145E-02    9.11       1.4  T
   4    -50.7570828 -0.258394E-06  0.458E-03    9.11       4.3  T
   5    -50.7570828 -0.276047E-07  0.112E-03    9.11      17.6  T
   6    -50.7570828 -0.122750E-08  0.740E-04    9.11      26.5  T
   7    -50.7570828 -0.792667E-09  0.909E-05    9.11     215.8  T
speedup  0.98
cpu  time for SCC    0.01 s
wall time for SCC    0.01 s
speedup  1.02
cpu  time for grad    0.01 s
wall time for grad    0.01 s
 E :    -50.46734137  G :  0.004640    pred/act E change: -0.148D-04 -0.156D-04
Maxdispl :   0.0246   ||displ|| :   0.0564   Lambda : -0.373D-04
Largest |displ|/coords:  0.0246 (   3)  0.0178 (   4)  0.0153 (   8)
................................................................................
.............................. CYCLE   46 ......................................
................................................................................
   1    -50.7583540 -0.507584E+02  0.390E-02    9.13       0.0  T
   2    -50.7583545 -0.499673E-06  0.287E-02    9.13       1.0  T
   3    -50.7583547 -0.228018E-06  0.552E-03    9.14       3.6  T
   4    -50.7583548 -0.702364E-07  0.197E-03    9.14      10.0  T
   5    -50.7583548 -0.312334E-08  0.334E-04    9.14      58.7  T
speedup  1.11
cpu  time for SCC    0.00 s
wall time for SCC    0.00 s
speedup  1.03
cpu  time for grad    0.01 s
wall time for grad    0.01 s
 E :    -50.46736014  G :  0.003453    pred/act E change: -0.179D-04 -0.188D-04
Maxdispl :   0.1899   ||displ|| :   0.3956   Lambda : -0.971D-04
Largest |displ|/coords:  0.1899 (  10)  0.1551 (   1)  0.1492 (   3)
................................................................................
.............................. CYCLE   47 ......................................
................................................................................
   1    -50.7543274 -0.507543E+02  0.270E-01    9.10       0.0  T
   2    -50.7543409 -0.135379E-04  0.201E-01    9.10       1.0  T
   3    -50.7543553 -0.143799E-04  0.304E-02    9.11       1.0  T
   4    -50.7543563 -0.107582E-05  0.789E-03    9.11       2.5  T
   5    -50.7543564 -0.955574E-07  0.263E-03    9.11       7.4  T
   6    -50.7543565 -0.778915E-08  0.156E-03    9.11      12.6  T
   7    -50.7543565 -0.336412E-08  0.304E-04    9.11      64.5  T
   8    -50.7543565 -0.455216E-09  0.769E-05    9.11     254.9  T
speedup  0.97
cpu  time for SCC    0.01 s
wall time for SCC    0.01 s
speedup  0.96
cpu  time for grad    0.01 s
wall time for grad    0.02 s
 E :    -50.46725033  G :  0.015150    pred/act E change: -0.187D-04  0.110D-03
Maxdispl :   0.1085   ||displ|| :   0.2073   Lambda : -0.341D-03
Largest |displ|/coords:  0.1085 (   1)  0.0988 (  10)  0.0647 (   7)
................................................................................
.............................. CYCLE   48 ......................................
................................................................................
   1    -50.7576013 -0.507576E+02  0.141E-01    9.13       0.0  T
   2    -50.7576072 -0.584043E-05  0.105E-01    9.13       1.0  T
   3    -50.7576121 -0.496626E-05  0.175E-02    9.13       1.1  T
   4    -50.7576127 -0.623974E-06  0.468E-03    9.13       4.2  T
   5    -50.7576128 -0.349897E-07  0.170E-03    9.13      11.5  T
   6    -50.7576128 -0.293033E-08  0.948E-04    9.13      20.7  T
speedup  0.93
cpu  time for SCC    0.00 s
wall time for SCC    0.01 s
speedup  0.97
cpu  time for grad    0.01 s
wall time for grad    0.01 s
 E :    -50.46739489  G :  0.002609    pred/act E change: -0.561D-04 -0.145D-03
Maxdispl :   0.0249   ||displ|| :   0.0580   Lambda : -0.130D-04
Largest |displ|/coords:  0.0249 (  10)  0.0217 (   3)  0.0186 (   8)
................................................................................
.............................. CYCLE   49 ......................................
................................................................................
   1    -50.7574028 -0.507574E+02  0.419E-02    9.12       0.0  T
   2    -50.7574031 -0.304878E-06  0.311E-02    9.12       1.0  T
   3    -50.7574034 -0.304089E-06  0.483E-03    9.13       4.1  T
   4    -50.7574035 -0.267918E-07  0.115E-03    9.13      17.0  T
   5    -50.7574035 -0.253549E-08  0.347E-04    9.13      56.4  T
   6    -50.7574035 -0.159261E-09  0.221E-04    9.13      88.6  T
speedup  0.93
cpu  time for SCC    0.00 s
wall time for SCC    0.01 s
speedup  1.01
cpu  time for grad    0.01 s
wall time for grad    0.01 s
 E :    -50.46740608  G :  0.002267    pred/act E change: -0.178D-03 -0.112D-04
Maxdispl :   0.0944   ||displ|| :   0.2225   Lambda : -0.386D-04
Largest |displ|/coords:  0.0944 (  10)  0.0886 (   3)  0.0655 (   8)
................................................................................
.............................. CYCLE   50 ......................................
................................................................................
   1    -50.7561303 -0.507561E+02  0.161E-01    9.09       0.0  T
   2    -50.7561347 -0.433705E-05  0.120E-01    9.09       1.0  T
   3    -50.7561394 -0.469691E-05  0.184E-02    9.10       1.1  T
   4    -50.7561397 -0.332030E-06  0.411E-03    9.10       4.8  T
   5    -50.7561397 -0.327123E-07  0.149E-03    9.10      13.2  T
   6    -50.7561397 -0.312469E-08  0.871E-04    9.10      22.5  T
   7    -50.7561397 -0.105998E-08  0.188E-04    9.10     104.5  T
speedup  0.97
cpu  time for SCC    0.01 s
wall time for SCC    0.01 s
speedup  1.01
cpu  time for grad    0.01 s
wall time for grad    0.01 s
 E :    -50.46742213  G :  0.004518    pred/act E change: -0.654D-05 -0.160D-04
Maxdispl :   0.0366   ||displ|| :   0.0608   Lambda : -0.255D-04
Largest |displ|/coords:  0.0366 (   3)  0.0197 (   7)  0.0186 (  10)
................................................................................
.............................. CYCLE   51 ......................................
................................................................................
   1    -50.7575681 -0.507576E+02  0.423E-02    9.12       0.0  T
   2    -50.7575689 -0.779282E-06  0.317E-02    9.12       1.0  T
   3    -50.7575694 -0.479327E-06  0.576E-03    9.11       3.4  T
   4    -50.7575695 -0.113703E-06  0.246E-03    9.11       8.0  T
   5    -50.7575695 -0.740184E-08  0.508E-04    9.11      38.6  T
speedup  1.11
cpu  time for SCC    0.00 s
wall time for SCC    0.00 s
speedup  1.03
cpu  time for grad    0.01 s
wall time for grad    0.01 s
 E :    -50.46742141  G :  0.003247    pred/act E change: -0.203D-04  0.715D-06
Maxdispl :   0.0229   ||displ|| :   0.0445   Lambda : -0.244D-04
Largest |displ|/coords:  0.0229 (   3)  0.0177 (   7)  0.0111 (  31)
................................................................................
.............................. CYCLE   52 ......................................
................................................................................
   1    -50.7571640 -0.507572E+02  0.331E-02    9.11       0.0  T
   2    -50.7571643 -0.331706E-06  0.248E-02    9.11       1.0  T
   3    -50.7571646 -0.248565E-06  0.371E-03    9.11       5.3  T
   4    -50.7571646 -0.451624E-07  0.175E-03    9.11      11.2  T
   5    -50.7571646 -0.299798E-08  0.364E-04    9.11      53.9  T
   6    -50.7571646 -0.152156E-09  0.229E-04    9.11      85.6  T
speedup  0.93
cpu  time for SCC    0.00 s
wall time for SCC    0.01 s
speedup  1.01
cpu  time for grad    0.01 s
wall time for grad    0.01 s
 E :    -50.46743448  G :  0.001624    pred/act E change: -0.128D-04 -0.131D-04
Maxdispl :   0.0277   ||displ|| :   0.0610   Lambda : -0.733D-05
Largest |displ|/coords:  0.0277 (   3)  0.0217 (  10)  0.0182 (   8)

generating ANC from model Hessian ...
 Shifting diagonal of input Hessian by   4.739907321628309E-003
 Lowest  eigenvalues of input Hessian
   -0.000000   -0.000000   -0.000000   -0.000000    0.000000    0.000000
    0.005000    0.005446    0.006039    0.006320    0.007111    0.007783
    0.008051    0.008718    0.008894    0.010114    0.011244    0.012766
 Highest eigenvalues
    1.393303    1.411092    1.447631    2.589959    3.527364    3.607359
 
cpu  time for ANC gen    0.02 s
wall time for ANC gen    0.02 s
................................................................................
.............................. CYCLE   53 ......................................
................................................................................
   1    -50.7569208 -0.507569E+02  0.449E-02    9.11       0.0  T
   2    -50.7569211 -0.313604E-06  0.336E-02    9.11       1.0  T
   3    -50.7569215 -0.383448E-06  0.433E-03    9.11       4.5  T
   4    -50.7569215 -0.194210E-07  0.118E-03    9.11      16.6  T
   5    -50.7569215 -0.242063E-08  0.405E-04    9.11      48.4  T
   6    -50.7569215 -0.159972E-09  0.255E-04    9.11      76.8  T
speedup  0.91
cpu  time for SCC    0.00 s
wall time for SCC    0.01 s
speedup  1.00
cpu  time for grad    0.01 s
wall time for grad    0.01 s
 E :    -50.46743898  G :  0.002266    pred/act E change:  0.000D+00 -0.450D-05
Maxdispl :   0.0070   ||displ|| :   0.0140   Lambda : -0.675D-05
Largest |displ|/coords:  0.0070 (   1)  0.0054 (   4)  0.0052 (   2)
................................................................................
.............................. CYCLE   54 ......................................
................................................................................
   1    -50.7573533 -0.507574E+02  0.124E-02    9.11       0.0  T
   2    -50.7573534 -0.464136E-07  0.928E-03    9.11       2.1  T
   3    -50.7573534 -0.280648E-07  0.161E-03    9.11      12.2  T
   4    -50.7573534 -0.679928E-08  0.418E-04    9.11      46.9  T
   5    -50.7573534 -0.302109E-09  0.115E-04    9.11     170.7  T
speedup  1.14
cpu  time for SCC    0.00 s
wall time for SCC    0.00 s
speedup  1.00
cpu  time for grad    0.01 s
wall time for grad    0.01 s
 E :    -50.46744375  G :  0.000721    pred/act E change:  0.000D+00 -0.477D-05
Maxdispl :   0.0143   ||displ|| :   0.0243   Lambda : -0.431D-05
Largest |displ|/coords:  0.0143 (   1)  0.0083 (   4)  0.0082 (   2)
................................................................................
.............................. CYCLE   55 ......................................
................................................................................
   1    -50.7577085 -0.507577E+02  0.194E-02    9.12       0.0  T
   2    -50.7577085 -0.579172E-07  0.146E-02    9.12       1.3  T
   3    -50.7577086 -0.532993E-07  0.155E-03    9.11      12.7  T
   4    -50.7577086 -0.648891E-08  0.486E-04    9.11      40.3  T
   5    -50.7577086 -0.309527E-09  0.139E-04    9.11     141.2  T
speedup  1.06
cpu  time for SCC    0.00 s
wall time for SCC    0.00 s
speedup  1.05
cpu  time for grad    0.01 s
wall time for grad    0.01 s
 E :    -50.46744665  G :  0.000757    pred/act E change: -0.337D-05 -0.290D-05
Maxdispl :   0.0208   ||displ|| :   0.0332   Lambda : -0.331D-05
Largest |displ|/coords:  0.0208 (   1)  0.0119 (   2)  0.0118 (   4)
................................................................................
.............................. CYCLE   56 ......................................
................................................................................
   1    -50.7578735 -0.507579E+02  0.238E-02    9.12       0.0  T
   2    -50.7578736 -0.716272E-07  0.179E-02    9.12       1.1  T
   3    -50.7578736 -0.647244E-07  0.153E-03    9.12      12.8  T
   4    -50.7578736 -0.876621E-08  0.573E-04    9.12      34.2  T
   5    -50.7578736 -0.354106E-09  0.176E-04    9.12     111.2  T
speedup  0.89
cpu  time for SCC    0.00 s
wall time for SCC    0.00 s
speedup  1.00
cpu  time for grad    0.01 s
wall time for grad    0.01 s
 E :    -50.46744917  G :  0.001108    pred/act E change: -0.215D-05 -0.252D-05
Maxdispl :   0.0430   ||displ|| :   0.0633   Lambda : -0.508D-05
Largest |displ|/coords:  0.0430 (   1)  0.0199 (   2)  0.0195 (   4)
................................................................................
.............................. CYCLE   57 ......................................
................................................................................
   1    -50.7578781 -0.507579E+02  0.441E-02    9.12       0.0  T
   2    -50.7578783 -0.243888E-06  0.334E-02    9.12       1.0  T
   3    -50.7578786 -0.252968E-06  0.247E-03    9.12       8.0  T
   4    -50.7578786 -0.244212E-07  0.108E-03    9.12      18.2  T
   5    -50.7578786 -0.109004E-08  0.337E-04    9.12      58.2  T
   6    -50.7578786 -0.133966E-09  0.176E-04    9.12     111.4  T
speedup  1.13
cpu  time for SCC    0.01 s
wall time for SCC    0.01 s
speedup  1.01
cpu  time for grad    0.01 s
wall time for grad    0.01 s
 E :    -50.46745260  G :  0.001008    pred/act E change: -0.166D-05 -0.343D-05
Maxdispl :   0.0358   ||displ|| :   0.0490   Lambda : -0.323D-05
Largest |displ|/coords:  0.0358 (   1)  0.0145 (   2)  0.0141 (   4)
................................................................................
.............................. CYCLE   58 ......................................
................................................................................
   1    -50.7577244 -0.507577E+02  0.309E-02    9.12       0.0  T
   2    -50.7577245 -0.119432E-06  0.234E-02    9.12       1.0  T
   3    -50.7577246 -0.117615E-06  0.184E-03    9.12      10.7  T
   4    -50.7577246 -0.135668E-07  0.802E-04    9.12      24.5  T
   5    -50.7577246 -0.642657E-09  0.233E-04    9.12      84.3  T
speedup  1.09
cpu  time for SCC    0.00 s
wall time for SCC    0.00 s
speedup  0.98
cpu  time for grad    0.01 s
wall time for grad    0.01 s
 E :    -50.46745487  G :  0.000701    pred/act E change: -0.255D-05 -0.226D-05
Maxdispl :   0.0336   ||displ|| :   0.0434   Lambda : -0.308D-05
Largest |displ|/coords:  0.0336 (   1)  0.0112 (   3)  0.0097 (   2)
................................................................................
.............................. CYCLE   59 ......................................
................................................................................
   1    -50.7575423 -0.507575E+02  0.255E-02    9.11       0.0  T
   2    -50.7575423 -0.797169E-07  0.192E-02    9.11       1.0  T
   3    -50.7575424 -0.827366E-07  0.181E-03    9.11      10.8  T
   4    -50.7575424 -0.785676E-08  0.697E-04    9.11      28.1  T
   5    -50.7575424 -0.496470E-09  0.192E-04    9.11     102.3  T
speedup  1.09
cpu  time for SCC    0.00 s
wall time for SCC    0.00 s
speedup  0.98
cpu  time for grad    0.01 s
wall time for grad    0.01 s
 E :    -50.46745710  G :  0.000892    pred/act E change: -0.162D-05 -0.224D-05
Maxdispl :   0.0351   ||displ|| :   0.0446   Lambda : -0.333D-05
Largest |displ|/coords:  0.0351 (   1)  0.0143 (   3)  0.0089 (  13)
................................................................................
.............................. CYCLE   60 ......................................
................................................................................
   1    -50.7573702 -0.507574E+02  0.262E-02    9.10       0.0  T
   2    -50.7573702 -0.870949E-07  0.196E-02    9.10       1.0  T
   3    -50.7573703 -0.858131E-07  0.235E-03    9.10       8.4  T
   4    -50.7573703 -0.847595E-08  0.713E-04    9.10      27.5  T
   5    -50.7573703 -0.652705E-09  0.193E-04    9.10     101.8  T
speedup  1.11
cpu  time for SCC    0.00 s
wall time for SCC    0.00 s
speedup  0.99
cpu  time for grad    0.01 s
wall time for grad    0.01 s
 E :    -50.46745956  G :  0.001209    pred/act E change: -0.154D-05 -0.246D-05
Maxdispl :   0.0429   ||displ|| :   0.0556   Lambda : -0.399D-05
Largest |displ|/coords:  0.0429 (   1)  0.0198 (   3)  0.0123 (  13)
................................................................................
.............................. CYCLE   61 ......................................
................................................................................
   1    -50.7572163 -0.507572E+02  0.338E-02    9.10       0.0  T
   2    -50.7572164 -0.158683E-06  0.252E-02    9.10       1.0  T
   3    -50.7572166 -0.138036E-06  0.332E-03    9.10       5.9  T
   4    -50.7572166 -0.177312E-07  0.937E-04    9.10      20.9  T
   5    -50.7572166 -0.115669E-08  0.234E-04    9.10      83.8  T
speedup  1.11
cpu  time for SCC    0.00 s
wall time for SCC    0.00 s
speedup  0.99
cpu  time for grad    0.01 s
wall time for grad    0.01 s
 E :    -50.46746258  G :  0.001299    pred/act E change: -0.167D-05 -0.302D-05
Maxdispl :   0.0537   ||displ|| :   0.0740   Lambda : -0.544D-05
Largest |displ|/coords:  0.0537 (   1)  0.0288 (   3)  0.0178 (  38)
................................................................................
.............................. CYCLE   62 ......................................
................................................................................
   1    -50.7571058 -0.507571E+02  0.476E-02    9.09       0.0  T
   2    -50.7571061 -0.338858E-06  0.355E-02    9.09       1.0  T
   3    -50.7571064 -0.288429E-06  0.486E-03    9.10       4.0  T
   4    -50.7571064 -0.379929E-07  0.135E-03    9.10      14.5  T
   5    -50.7571064 -0.244511E-08  0.321E-04    9.10      61.0  T
   6    -50.7571064 -0.147502E-09  0.198E-04    9.10      98.8  T
speedup  1.11
cpu  time for SCC    0.01 s
wall time for SCC    0.01 s
speedup  1.01
cpu  time for grad    0.01 s
wall time for grad    0.01 s
 E :    -50.46746681  G :  0.001277    pred/act E change: -0.200D-05 -0.423D-05
Maxdispl :   0.0832   ||displ|| :   0.1208   Lambda : -0.878D-05
Largest |displ|/coords:  0.0832 (   1)  0.0496 (   3)  0.0310 (  38)
................................................................................
.............................. CYCLE   63 ......................................
................................................................................
   1    -50.7569147 -0.507569E+02  0.808E-02    9.09       0.0  T
   2    -50.7569156 -0.922802E-06  0.603E-02    9.09       1.0  T
   3    -50.7569165 -0.866524E-06  0.804E-03    9.10       2.4  T
   4    -50.7569165 -0.894097E-07  0.223E-03    9.10       8.8  T
   5    -50.7569165 -0.689035E-08  0.546E-04    9.10      35.9  T
   6    -50.7569166 -0.390479E-09  0.337E-04    9.10      58.2  T
speedup  1.09
cpu  time for SCC    0.01 s
wall time for SCC    0.01 s
speedup  0.99
cpu  time for grad    0.01 s
wall time for grad    0.01 s
 E :    -50.46747370  G :  0.001669    pred/act E change: -0.273D-05 -0.689D-05
Maxdispl :   0.0998   ||displ|| :   0.1857   Lambda : -0.185D-04
Largest |displ|/coords:  0.0998 (   1)  0.0864 (   3)  0.0541 (  38)
................................................................................
.............................. CYCLE   64 ......................................
................................................................................
   1    -50.7568031 -0.507568E+02  0.130E-01    9.09       0.0  T
   2    -50.7568058 -0.263338E-05  0.973E-02    9.09       1.0  T
   3    -50.7568082 -0.245113E-05  0.137E-02    9.10       1.4  T
   4    -50.7568085 -0.243593E-06  0.347E-03    9.10       5.7  T
   5    -50.7568085 -0.195850E-07  0.871E-04    9.10      22.5  T
   6    -50.7568085 -0.121027E-08  0.504E-04    9.10      38.9  T
speedup  0.93
cpu  time for SCC    0.00 s
wall time for SCC    0.01 s
speedup  1.01
cpu  time for grad    0.01 s
wall time for grad    0.01 s
 E :    -50.46748622  G :  0.002514    pred/act E change: -0.445D-05 -0.125D-04
Maxdispl :   0.1090   ||displ|| :   0.1957   Lambda : -0.208D-04
Largest |displ|/coords:  0.1090 (   1)  0.0898 (   3)  0.0553 (  38)
................................................................................
.............................. CYCLE   65 ......................................
................................................................................
   1    -50.7560364 -0.507560E+02  0.139E-01    9.09       0.0  T
   2    -50.7560389 -0.252584E-05  0.104E-01    9.09       1.0  T
   3    -50.7560418 -0.291261E-05  0.126E-02    9.10       1.6  T
   4    -50.7560420 -0.148879E-06  0.320E-03    9.10       6.1  T
   5    -50.7560420 -0.171741E-07  0.982E-04    9.10      20.0  T
   6    -50.7560420 -0.106774E-08  0.597E-04    9.10      32.9  T
speedup  0.93
cpu  time for SCC    0.00 s
wall time for SCC    0.01 s
speedup  1.00
cpu  time for grad    0.01 s
wall time for grad    0.01 s
 E :    -50.46749583  G :  0.005265    pred/act E change: -0.957D-05 -0.961D-05
Maxdispl :   0.1117   ||displ|| :   0.2615   Lambda : -0.835D-04
Largest |displ|/coords:  0.1117 (   3)  0.0870 (   6)  0.0836 (   9)
................................................................................
.............................. CYCLE   66 ......................................
................................................................................
   1    -50.7576822 -0.507577E+02  0.176E-01    9.10       0.0  T
   2    -50.7576878 -0.561236E-05  0.132E-01    9.10       1.0  T
   3    -50.7576934 -0.563582E-05  0.173E-02    9.11       1.1  T
   4    -50.7576939 -0.478904E-06  0.531E-03    9.11       3.7  T
   5    -50.7576939 -0.297689E-07  0.134E-03    9.11      14.6  T
   6    -50.7576939 -0.163087E-08  0.741E-04    9.11      26.5  T
speedup  0.93
cpu  time for SCC    0.00 s
wall time for SCC    0.01 s
speedup  0.97
cpu  time for grad    0.01 s
wall time for grad    0.01 s
[...]
................................................................................
   1    -50.7599022 -0.507599E+02  0.120E-02    9.14       0.0  T
   2    -50.7599022 -0.241026E-07  0.901E-03    9.14       2.2  T
   3    -50.7599022 -0.249599E-07  0.128E-03    9.14      15.3  T
   4    -50.7599022 -0.197992E-08  0.348E-04    9.14      56.3  T
   5    -50.7599022 -0.190866E-09  0.824E-05    9.14     238.1  T
speedup  1.09
cpu  time for SCC    0.00 s
wall time for SCC    0.00 s
speedup  0.98
cpu  time for grad    0.01 s
wall time for grad    0.01 s
 E :    -50.46881396  G :  0.000406    pred/act E change: -0.332D-06 -0.542D-06
Maxdispl :   0.0088   ||displ|| :   0.0228   Lambda : -0.913D-06
Largest |displ|/coords:  0.0088 (   5)  0.0086 (   8)  0.0082 (  39)
................................................................................
.............................. CYCLE  123 ......................................
................................................................................
   1    -50.7599415 -0.507599E+02  0.181E-02    9.14       0.0  T
   2    -50.7599415 -0.510183E-07  0.135E-02    9.14       1.5  T
   3    -50.7599416 -0.548915E-07  0.206E-03    9.14       9.5  T
   4    -50.7599416 -0.347985E-08  0.516E-04    9.14      38.0  T
   5    -50.7599416 -0.440089E-09  0.118E-04    9.14     166.7  T
speedup  1.09
cpu  time for SCC    0.00 s
wall time for SCC    0.00 s
speedup  1.06
cpu  time for grad    0.01 s
wall time for grad    0.01 s
 E :    -50.46881462  G :  0.000510    pred/act E change: -0.361D-06 -0.655D-06
Maxdispl :   0.0109   ||displ|| :   0.0247   Lambda : -0.988D-06
Largest |displ|/coords:  0.0109 (   5)  0.0097 (  39)  0.0078 (   7)
................................................................................
.............................. CYCLE  124 ......................................
................................................................................
   1    -50.7599626 -0.507600E+02  0.211E-02    9.14       0.0  T
   2    -50.7599626 -0.719785E-07  0.156E-02    9.14       1.3  T
   3    -50.7599627 -0.757323E-07  0.258E-03    9.14       7.6  T
   4    -50.7599627 -0.464549E-08  0.616E-04    9.14      31.9  T
   5    -50.7599627 -0.661089E-09  0.130E-04    9.14     151.0  T
speedup  1.09
cpu  time for SCC    0.00 s
wall time for SCC    0.00 s
speedup  1.06
cpu  time for grad    0.01 s
wall time for grad    0.01 s
 E :    -50.46881535  G :  0.000509    pred/act E change: -0.457D-06 -0.736D-06
Maxdispl :   0.0113   ||displ|| :   0.0274   Lambda : -0.110D-05
Largest |displ|/coords:  0.0113 (  39)  0.0112 (   7)  0.0103 (   5)
................................................................................
.............................. CYCLE  125 ......................................
................................................................................
   1    -50.7599591 -0.507600E+02  0.243E-02    9.15       0.0  T
   2    -50.7599592 -0.105209E-06  0.179E-02    9.15       1.1  T
   3    -50.7599593 -0.102901E-06  0.321E-03    9.14       6.1  T
   4    -50.7599593 -0.734637E-08  0.816E-04    9.14      24.0  T
   5    -50.7599593 -0.107487E-08  0.146E-04    9.14     134.2  T
speedup  0.85
cpu  time for SCC    0.00 s
wall time for SCC    0.00 s
speedup  0.98
cpu  time for grad    0.01 s
wall time for grad    0.01 s
 E :    -50.46881612  G :  0.000417    pred/act E change: -0.494D-06 -0.771D-06
Maxdispl :   0.0074   ||displ|| :   0.0184   Lambda : -0.758D-06
Largest |displ|/coords:  0.0074 (   7)  0.0070 (  39)  0.0059 (   4)
................................................................................
.............................. CYCLE  126 ......................................
................................................................................
   1    -50.7599591 -0.507600E+02  0.154E-02    9.15       0.0  T
   2    -50.7599591 -0.473911E-07  0.112E-02    9.15       1.7  T
   3    -50.7599592 -0.417572E-07  0.218E-03    9.14       9.0  T
   4    -50.7599592 -0.358647E-08  0.588E-04    9.14      33.3  T
   5    -50.7599592 -0.527812E-09  0.880E-05    9.14     222.8  T
speedup  0.89
cpu  time for SCC    0.00 s
wall time for SCC    0.00 s
speedup  0.98
cpu  time for grad    0.01 s
wall time for grad    0.01 s
 E :    -50.46881667  G :  0.000399    pred/act E change: -0.551D-06 -0.551D-06
Maxdispl :   0.0061   ||displ|| :   0.0167   Lambda : -0.665D-06
Largest |displ|/coords:  0.0061 (   7)  0.0058 (   1)  0.0055 (   2)
................................................................................
.............................. CYCLE  127 ......................................
................................................................................
   1    -50.7599524 -0.507600E+02  0.124E-02    9.14       0.0  T
   2    -50.7599524 -0.329419E-07  0.911E-03    9.14       2.2  T
   3    -50.7599524 -0.273420E-07  0.178E-03    9.14      11.0  T
   4    -50.7599524 -0.295067E-08  0.504E-04    9.14      38.9  T
   5    -50.7599524 -0.359485E-09  0.856E-05    9.14     229.0  T
speedup  1.11
cpu  time for SCC    0.00 s
wall time for SCC    0.00 s
speedup  0.99
cpu  time for grad    0.01 s
wall time for grad    0.01 s
 E :    -50.46881713  G :  0.000407    pred/act E change: -0.379D-06 -0.459D-06
Maxdispl :   0.0049   ||displ|| :   0.0118   Lambda : -0.458D-06
Largest |displ|/coords:  0.0049 (   8)  0.0041 (   1)  0.0036 (   7)
................................................................................
.............................. CYCLE  128 ......................................
................................................................................
   1    -50.7599548 -0.507600E+02  0.816E-03    9.14       0.0  T
   2    -50.7599549 -0.125458E-07  0.606E-03    9.14       3.2  T
   3    -50.7599549 -0.113249E-07  0.101E-03    9.14      19.4  T
   4    -50.7599549 -0.124464E-08  0.270E-04    9.14      72.7  T
   5    -50.7599549 -0.117041E-09  0.668E-05    9.14     293.5  T
speedup  1.09
cpu  time for SCC    0.00 s
wall time for SCC    0.00 s
speedup  0.98
cpu  time for grad    0.01 s
wall time for grad    0.01 s
 E :    -50.46881745  G :  0.000365    pred/act E change: -0.333D-06 -0.318D-06
Maxdispl :   0.0037   ||displ|| :   0.0099   Lambda : -0.331D-06
Largest |displ|/coords:  0.0037 (   6)  0.0033 (  11)  0.0030 (   1)
................................................................................
.............................. CYCLE  129 ......................................
................................................................................
   1    -50.7599569 -0.507600E+02  0.771E-03    9.14       0.0  T
   2    -50.7599570 -0.861802E-08  0.578E-03    9.14       3.4  T
   3    -50.7599570 -0.848263E-08  0.756E-04    9.14      25.9  T
   4    -50.7599570 -0.810843E-09  0.227E-04    9.14      86.4  T
speedup  1.11
cpu  time for SCC    0.00 s
wall time for SCC    0.00 s
speedup  1.07
cpu  time for grad    0.01 s
wall time for grad    0.01 s
 E :    -50.46881768  G :  0.000275    pred/act E change: -0.229D-06 -0.228D-06
Maxdispl :   0.0034   ||displ|| :   0.0078   Lambda : -0.214D-06
Largest |displ|/coords:  0.0034 (  11)  0.0027 (   6)  0.0026 (  10)
................................................................................
.............................. CYCLE  130 ......................................
................................................................................
   1    -50.7599765 -0.507600E+02  0.641E-03    9.14       0.0  T
   2    -50.7599765 -0.480255E-08  0.482E-03    9.14       4.1  T
   3    -50.7599765 -0.543351E-08  0.512E-04    9.14      38.3  T
   4    -50.7599765 -0.300794E-09  0.157E-04    9.14     125.0  T
speedup  1.08
cpu  time for SCC    0.00 s
wall time for SCC    0.00 s
speedup  1.06
cpu  time for grad    0.01 s
wall time for grad    0.01 s
 E :    -50.46881783  G :  0.000175    pred/act E change: -0.165D-06 -0.157D-06
Maxdispl :   0.0032   ||displ|| :   0.0080   Lambda : -0.127D-06
Largest |displ|/coords:  0.0032 (  39)  0.0027 (  11)  0.0024 (  10)
................................................................................
.............................. CYCLE  131 ......................................
................................................................................
   1    -50.7599780 -0.507600E+02  0.704E-03    9.14       0.0  T
   2    -50.7599780 -0.636980E-08  0.526E-03    9.14       3.7  T
   3    -50.7599780 -0.735686E-08  0.723E-04    9.14      27.1  T
   4    -50.7599780 -0.341906E-09  0.146E-04    9.14     134.5  T
speedup  0.81
cpu  time for SCC    0.00 s
wall time for SCC    0.00 s
speedup  0.98
cpu  time for grad    0.01 s
wall time for grad    0.01 s
 E :    -50.46881792  G :  0.000139    pred/act E change: -0.106D-06 -0.830D-07
Maxdispl :   0.0015   ||displ|| :   0.0025   Lambda : -0.468D-07
Largest |displ|/coords:  0.0015 (   3)  0.0011 (  11)  0.0007 (  10)

   *** GEOMETRY OPTIMIZATION CONVERGED AFTER 131 ITERATIONS ***

------------------------------------------------------------------------
 total energy gain (kcal):     -0.0105
------------------------------------------------------------------------
================
 final structure:
================
$coord
       -2.77730013442850        1.83421459992175       -1.41151561399913      S 
       -5.00100360839941        1.20247252509191        0.04916541472665      O 
       -0.68378776447126        2.71354398903972        0.10583578101851      O 
       -2.05975036013515       -0.22076309714874       -3.11632206281588      O 
       -3.53426522000645        4.13516121474514       -3.17899118783270      O 
       -5.14601413641569        3.64866941124292       -3.81104136577457      H 
        3.68282409461225        1.11823724340408        2.21323253418802      O 
        4.44876380263402        0.27071750380666        0.72740668685619      H 
        2.29127450505807        2.09796827914978        1.50900802122708      H 
        4.69047693410832       -1.38169388250956       -1.97560261210451      O 
        4.07747592105589       -0.08193219233579       -3.14255130066182      H 
        3.37527316500198       -2.64508316568195       -1.91965090817487      H 
        0.02247095754112       -4.12790175087796       -1.06014207160179      O 
       -0.79359240198397       -2.63638420621879       -1.85976102414214      H 
       -0.78456926815458       -5.57572369936058       -1.78989434499727      H 
       -3.16337328913503        0.75063968680019        4.58576808732144      O 
       -2.33140405845762        2.35997436282349        4.71089393569373      H 
       -4.07627945996313        0.83285391271229        2.95887124632191      H 
        2.09007357088410        2.28263145296533       -4.45089109493398      O 
        0.52570013370392        1.32826324443732       -4.28920885866322      H 
        1.90243181651310        3.66146015351587       -3.28476138748041      H 
        0.64649854830365       -2.37396091109947        3.72803297944684      N 
       -0.98195786293661       -1.30457552971870        4.20279548699779      H 
        0.31385905995136       -3.34396123739864        2.05477807975527      H 
        2.11056208202560       -0.98327774427659        3.30306767732745      H 
        1.15561299199747       -3.56155016303340        5.14147786450515      H 
$end
 
 Bond Distances (Angstroems)
 ---------------------------
S1-O2=1.4470         S1-O3=1.4452         S1-O4=1.4631         S1-O5=1.5868         O2-S1=1.4470         O3-S1=1.4452         
O4-S1=1.4631         O5-S1=1.5868         O5-H6=0.9516         H6-O5=0.9516         O7-H8=0.9918         O7-H9=0.9746         
H8-O7=0.9918         H9-O7=0.9746         O10-H11=0.9796       O10-H12=0.9655       H11-O10=0.9796       H12-O10=0.9655       
O13-H14=0.9942       O13-H15=0.9584       H14-O13=0.9942       H15-O13=0.9584       O16-H17=0.9610       O16-H18=0.9882       
H17-O16=0.9610       H18-O16=0.9882       O19-H20=0.9735       O19-H21=0.9607       H20-O19=0.9735       H21-O19=0.9607       
N22-H23=1.0611       N22-H24=1.0385       N22-H25=1.0920       N22-H26=1.0134       H23-N22=1.0611       H24-N22=1.0385       
H25-N22=1.0920       H26-N22=1.0134       
 N  H  Rav=1.0512 sigma=0.0289  Rmin=1.0134  Rmax=1.0920     4
 O  H  Rav=0.9727 sigma=0.0138  Rmin=0.9516  Rmax=0.9942    11
 S  O  Rav=1.4855 sigma=0.0589  Rmin=1.4452  Rmax=1.5868     4
 
 selected bond angles (degree)
 --------------------
O3-S1-O2=113.64                O4-S1-O2=111.64                O4-S1-O3=112.52                O5-S1-O2=106.67                
O5-S1-O3=105.90                O5-S1-O4=105.81                H6-O5-S1=103.05                H9-O7-H8=104.25                
H12-O10-H11=105.47             
 
 selected dihedral angles (degree)
 ---------------------------------
H6-O5-S1-O2=315.74            H6-O5-S1-O3=194.38            H6-O5-S1-O4= 74.74            
 
 CMA Distance (Angstroems)
 ---------------------------
R(CMA):  2.7571

========================================================================
 FINAL SINGLEPOINT CALCULATION ON OPTIMIZED GEOMETRY
========================================================================

 Ncao       : 65
 Nao        : 64
 Nshell     : 38
 Nel        : 80
 T(el)      :   300.0
 intcut     :    25.0
 scfconv/Eh :  0.100E-05
   qconv/e  :  0.100E-03
 intneglect :  0.100E-07
 broydamp   :      0.250
 iter      E             dE          RMSdq      gap      omega  full diag
   1    -50.7599780 -0.507600E+02  0.744E-05    9.14       0.0  T
   2    -50.7599780 -0.221689E-11  0.481E-05    9.14     407.5  T
   3    -50.7599780 -0.163425E-11  0.742E-06    9.14    2641.5  T
speedup  1.11
cpu  time for SCC    0.00 s
wall time for SCC    0.00 s

   *** convergence criteria satisfied after 3 iterations ***

          eigenvalues
 #    :          28         29         30         31         32         33         34         35
 occ. :        2.000      2.000      2.000      2.000      2.000      2.000      2.000      2.000
 eps  :       -13.458    -13.412    -12.669    -12.604    -12.470    -12.392    -12.279    -12.179
 #    :          36         37         38         39         40         41         42         43
 occ. :        2.000      2.000      2.000      2.000      2.000      0.000      0.000      0.000
 eps  :       -12.050    -12.035    -11.860    -11.729    -11.604     -2.461     -1.068     -0.495
 #    :          44         45         46         47         48         49         50         51
 occ. :        0.000      0.000      0.000      0.000      0.000      0.000      0.000      0.000
 eps  :         0.904      0.941      1.544      2.204      2.725      3.748      4.011      5.010


   #   Z            q   n(s)   n(p)   n(d)      C6AA      α(0)
   1  16 S      1.692  1.582  1.774  0.952    88.939    15.873
   2   8 O     -0.741  1.772  4.969  0.000    29.851     7.325
   3   8 O     -0.740  1.756  4.984  0.000    29.821     7.322
   4   8 O     -0.763  1.780  4.983  0.000    30.478     7.402
   5   8 O     -0.596  1.752  4.844  0.000    25.066     6.759
   6   1 H      0.343  0.657  0.000  0.000     0.596     1.209
   7   8 O     -0.614  1.760  4.855  0.000    25.521     6.819
   8   1 H      0.338  0.662  0.000  0.000     0.617     1.234
   9   1 H      0.326  0.674  0.000  0.000     0.648     1.265
  10   8 O     -0.622  1.757  4.865  0.000    25.730     6.846
  11   1 H      0.324  0.676  0.000  0.000     0.652     1.269
  12   1 H      0.303  0.697  0.000  0.000     0.711     1.324
  13   8 O     -0.627  1.741  4.886  0.000    25.856     6.863
  14   1 H      0.337  0.663  0.000  0.000     0.620     1.237
  15   1 H      0.291  0.709  0.000  0.000     0.749     1.359
  16   8 O     -0.602  1.741  4.861  0.000    25.236     6.780
  17   1 H      0.300  0.700  0.000  0.000     0.720     1.332
  18   1 H      0.332  0.668  0.000  0.000     0.634     1.250
  19   8 O     -0.609  1.740  4.869  0.000    25.397     6.802
  20   1 H      0.307  0.693  0.000  0.000     0.701     1.315
  21   1 H      0.293  0.707  0.000  0.000     0.742     1.353
  22   7 N     -0.356  1.280  4.076  0.000    29.164     8.021
  23   1 H      0.285  0.715  0.000  0.000     0.759     1.365
  24   1 H      0.273  0.727  0.000  0.000     0.801     1.402
  25   1 H      0.303  0.697  0.000  0.000     0.704     1.314
  26   1 H      0.223  0.777  0.000  0.000     0.995     1.563

 Mol. C6AA /au·bohr⁶  :       5450.338701
 Mol. C8AA /au·bohr⁸  :     117904.587866
 Mol. α(0) /au        :        106.601577

 
 Wiberg/Mayer (AO) data. WBOs > 0.1 written file <wbo>
 largest (>0.05) Wiberg bond orders for each atom
           total WBO             WBO to atom ...
     1  S   4.848    O    3 1.355    O    2 1.330    O    4 1.245    O    5 0.884
     2  O   1.729    S    1 1.330    O    3 0.112    O    4 0.105    O    5 0.076    H   18 0.073
     3  O   1.709    S    1 1.355    O    2 0.112    O    4 0.111    O    5 0.062
     4  O   1.724    S    1 1.245    O    3 0.111    O    2 0.105    H   14 0.085    O    5 0.070    H   20 0.050
     5  O   1.965    S    1 0.884    H    6 0.866    O    2 0.076    O    4 0.070    O    3 0.062
     6  H   0.882    O    5 0.866
     7  O   1.970    H    9 0.854    H    8 0.806    H   25 0.171    N   22 0.078
     8  H   0.886    O    7 0.806    O   10 0.078
     9  H   0.894    O    7 0.854
    10  O   1.882    H   12 0.885    H   11 0.841    H    8 0.078
    11  H   0.895    O   10 0.841    O   19 0.053
    12  H   0.908    O   10 0.885
    13  O   1.876    H   15 0.907    H   14 0.796    H   24 0.068
    14  H   0.886    O   13 0.796    O    4 0.085
    15  H   0.915    O   13 0.907
    16  O   1.928    H   17 0.905    H   18 0.812    H   23 0.115    N   22 0.057
    17  H   0.910    O   16 0.905
    18  H   0.890    O   16 0.812    O    2 0.073
    19  O   1.867    H   21 0.906    H   20 0.852    H   11 0.053
    20  H   0.906    O   19 0.852    O    4 0.050
    21  H   0.914    O   19 0.906
    22  N   3.511    H   26 0.947    H   24 0.854    H   23 0.800    H   25 0.732    O    7 0.078    O   16 0.057
    23  H   0.919    N   22 0.800    O   16 0.115
    24  H   0.926    N   22 0.854    O   13 0.068
    25  H   0.908    N   22 0.732    O    7 0.171
    26  H   0.950    N   22 0.947
 MOs/occ written to file <molden.input>
 
molecular dipole:
                 x           y           z       tot (Debye)
 q only:        0.102      -1.545       1.629
   full:       -0.857      -1.231       0.899       4.445
molecular quadrupole (traceless):
                xx          xy          yy          xz          yz          zz
 q only:      -12.160      -1.640       8.433       8.909      -4.714       3.727
  q+dip:      -14.197      -3.077      12.538      12.929      -4.007       1.659
   full:      -14.278      -3.060      12.777      13.308      -4.239       1.502

SCC energy    :     -50.7599780
rep           :       0.2907878
ES            :       0.2634377
AES           :      -0.0767076
AXC           :      -0.0086694
disp          :      -0.0199266
XB            :       0.0000000
fix           :       0.0000000
total E       :     -50.4688179
atomizationE  :       4.9991221     3137.00
(atE without considering molecular charge,
 total energy contains solvation terms)
H-L gap (eV)  :          9.1433
optimized geometry written to: xtbopt.xyz


------------------------------------------------------------------------
 * finished run on 2019/09/16 at 12:30:50.749     
------------------------------------------------------------------------
 total:
 * wall-time:     0 d,  0 h,  0 min,  3.578 sec
 *  cpu-time:     0 d,  0 h,  0 min,  3.054 sec
 * ratio c/w:     0.853 speedup
 SCF:
 * wall-time:     0 d,  0 h,  0 min,  0.208 sec
 *  cpu-time:     0 d,  0 h,  0 min,  0.166 sec
 * ratio c/w:     0.799 speedup
 ANC optimizer:
 * wall-time:     0 d,  0 h,  0 min,  3.340 sec
 *  cpu-time:     0 d,  0 h,  0 min,  2.862 sec
 * ratio c/w:     0.857 speedup

