      -----------------------------------------------------------      
     |                   =====================                   |     
     |                           x T B                           |     
     |                   =====================                   |     
     |                         S. Grimme                         |     
     |          Mulliken Center for Theoretical Chemistry        |     
     |                    University of Bonn                     |     
     |                 Version 6.0.1 (SAW181210)                 |     
      -----------------------------------------------------------      

   This program is distributed in the hope that it will be useful,
   but WITHOUT ANY WARRANTY; without even the implied warranty of
   MERCHANTABILITY or FITNESS FOR A PARTICULAR PURPOSE.
   
   FOR NON-COMMERCIAL, ACADEMIA USE ONLY.
   
   Cite this work as:
   S. Grimme, C. Bannwarth, P. Shushkov, J. Comput. Theory Chem., 2017,
   13, 1989-2009.
   C. Bannwarth, S. Ehlert and S. Grimme., ChemRxiv, 2018, preprint.
   http://doi.org/10.26434/chemrxiv.7246238.v1
   
   for sTDA-xTB:
   S. Grimme and C. Bannwarth, J. Chem. Phys., 2016, 145, 054103.
   
   in the mass-spec context:
   V. Asgeirsson, C. Bauer and S. Grimme, Chem. Sci., 2017, 8, 4879.
   
   if GBSA is used:
   P. Shushkov, F. März and S. Grimme, unpublished.
   
   for ANC optimizer:
   S. Grimme, unpublished.
   Rational Function algorithm used in ANCopt:
   F. Eckert, P. Pulay, H.-J. Werner, J. Comput. Chem., 1997, 18, 1473.
   
   with help from (in alphabetical order)
   C. Bannwarth, F. Bohle, G. Brandenburg, E. Caldeweyher, M. Checinski,
   S. Dohm, S. Ehlert, S. Ehrlich, F. März, H. Neugebauer, J. Pisarek,
   P. Pracht, P. Shushkov, and S. Spicher.
   
 * started run on 2019/09/16 at 11:22:39.400     
========================================================================
 # omp threads = 1
========================================================================
number of atoms            : 26
number of electrons        : 80
charge                     : 0
spin                       : .0
first test random number   : .4692

########################################################################
# WARNING! Please study the warnings concerning your input carefully
#  - XTBPATH is not set, using XTBHOME instead
#  - the use of '-opt' is discouraged, please use '--opt' next time
#  - the use of '-chrg' is discouraged, please use '--chrg' next time
#  - the use of '-uhf' is discouraged, please use '--uhf' next time
########################################################################

           ------------------------------------------------- 
          |                 G F N 2 - x T B                 |
          | Geometry, Frequencies, Noncovalent interactions |
          |            JCTC 2018 parametrisation            |
           ------------------------------------------------- 
      method parameters     
 k(s)        :  1.8500
 k(p)        :  2.2300
 k(d)        :  2.2300
 k(f)        :  2.0000
 kEN (H0ij)  : -2.0000
 D4 a1       :  0.5200
 D4 a2       :  5.0000
 D4 s6       :  1.0000
 D4 s8       :  2.7000
 D4 s9       :  5.0000
 alphaj      :  2.0000


            Z     q(EN)     CN     RAES       Cart. coordinates
     1  S   6.0    0.64    4.28    4.19    -0.81249     3.10250    -2.59981
     2  O   6.0   -0.33    1.24    1.80     1.42337     3.17301    -0.88981
     3  O   6.0   -0.32    1.23    1.80    -1.02121     0.54865    -3.76703
     4  O   6.0   -0.31    1.17    1.80    -3.14392     3.65126    -1.11947
     5  O   6.0   -0.25    2.08    1.84    -0.51235     5.01058    -4.59521
     6  H   1.0    0.14    1.21    1.47     0.98962     4.65774    -5.54951
     7  O   6.0   -0.39    1.67    1.81     0.61230    -2.68888     2.52112
     8  H   1.0    0.17    0.95    1.42     0.85181    -3.99330     3.83446
     9  O   6.0   -0.29    2.04    1.83     4.35803    -1.09821     0.07774
    10  H   1.0    0.17    1.10    1.44     3.12384    -1.78115     1.22882
    11  H   1.0    0.17    1.01    1.43     3.78344     0.58764    -0.29959
    12  O   6.0   -0.29    2.04    1.83     4.32144    -5.00022    -3.06695
    13  H   1.0    0.15    0.97    1.43     5.89945    -5.75178    -3.57650
    14  H   1.0    0.16    1.04    1.43     4.77795    -3.60913    -1.98478
    15  O   6.0   -0.22    2.92    2.58    -0.29926    -3.87621    -1.77517
    16  H   1.0    0.16    1.20    1.46    -0.13146    -3.53876     0.05454
    17  H   1.0    0.16    1.06    1.44    -0.83895    -2.35810    -2.72073
    18  H   1.0    0.14    1.04    1.44     1.25239    -4.63107    -2.49216
    19  O   6.0   -0.23    2.92    2.60    -0.23895     1.63378     3.57707
    20  H   1.0    0.15    1.06    1.44     0.53676     2.62457     2.19632
    21  H   1.0    0.13    1.07    1.44    -2.05790     2.01157     3.77385
    22  H   1.0    0.16    1.21    1.47     0.07769    -0.19788     3.38667
    23  N   5.0   -0.22    3.05    1.93    -5.27012     2.72386     3.71940
    24  H   1.0    0.13    1.03    1.43    -4.94605     3.18989     1.87851
    25  H   1.0    0.11    0.99    1.43    -6.11913     4.26328     4.50708
    26  H   1.0    0.11    0.99    1.43    -6.61629     1.34638     3.68113

  Z AO/shell   Hii/eV     exponent
  1     Wed Apr 25 08:07:45 CEST 2018   EN: 2.200 GM2: 0.406  GM3: 0.0800  RAES: 1.40
     1s    -10.707211    1.230000
  7     Wed Apr 25 08:07:45 CEST 2018   EN: 3.040 GM2: 0.461  GM3:-0.0640  RAES: 1.90
     2s    -16.686243    2.339881
     2p    -12.523956    2.014332
  8     Wed Apr 25 08:07:45 CEST 2018   EN: 3.440 GM2: 0.452  GM3:-0.0517  RAES: 1.80
     2s    -20.229985    2.439742
     2p    -15.503117    2.137023
 16     Tue Apr 24 11:44:34 CEST 2018   EN: 2.580 GM2: 0.340  GM3:-0.0502  RAES: 3.10
     3s    -20.029654    1.981333
     3p    -11.377694    2.025643
     3d     -0.420282    1.702555
 no old-style atom pair restraining (fixing) potential

molecular fragmentation (1/2 indicates fragments):
11111122222222222222222222
# atoms in fragment 1/2:     6    20
 fragment masses (1/2) :       97.07      108.11
CMA distance (Bohr)    :   5.833
constraining FC (au)   :  0.0500
           ------------------------------------------------- 
          |        Self-Consistent Charge Iterations        |
           ------------------------------------------------- 

 Ncao       : 65
 Nao        : 64
 Nshell     : 38
 Nel        : 80
 T(el)      :   300.0
 intcut     :    25.0
 scfconv/Eh :  0.100E-05
   qconv/e  :  0.100E-03
 intneglect :  0.100E-07
 broydamp   :      0.250
 iter      E             dE          RMSdq      gap      omega  full diag
   1    -50.5846861 -0.505847E+02  0.702E+00   10.13       0.0  T
   2    -50.6343046 -0.496185E-01  0.505E+00    9.62       1.0  T
   3    -50.6709847 -0.366801E-01  0.133E+00    7.76       1.0  T
   4    -50.6763981 -0.541340E-02  0.561E-01    8.12       1.0  T
   5    -50.6770250 -0.626878E-03  0.314E-01    8.12       1.0  T
   6    -50.6774687 -0.443708E-03  0.138E-01    8.21       1.0  T
   7    -50.6775754 -0.106703E-03  0.521E-02    8.20       1.0  T
   8    -50.6775891 -0.137193E-04  0.298E-02    8.19       1.0  T
   9    -50.6775938 -0.468799E-05  0.139E-02    8.20       1.4  T
  10    -50.6775950 -0.126616E-05  0.220E-03    8.21       8.9  T
  11    -50.6775951 -0.130315E-07  0.124E-03    8.20      15.8  T
  12    -50.6775951 -0.654294E-08  0.520E-04    8.20      37.7  T
  13    -50.6775951 -0.163459E-08  0.147E-04    8.20     133.0  T
speedup  1.01
cpu  time for SCC    0.02 s
wall time for SCC    0.02 s

   *** convergence criteria satisfied after 13 iterations ***

          eigenvalues
 #    :          28         29         30         31         32         33         34         35
 occ. :        2.000      2.000      2.000      2.000      2.000      2.000      2.000      2.000
 eps  :       -12.834    -12.543    -12.026    -11.904    -11.778    -11.589    -11.161    -11.155
 #    :          36         37         38         39         40         41         42         43
 occ. :        2.000      2.000      2.000      2.000      2.000      0.000      0.000      0.000
 eps  :       -11.086    -10.906    -10.839    -10.603    -10.073     -1.868     -0.274      0.004
 #    :          44         45         46         47         48         49         50         51
 occ. :        0.000      0.000      0.000      0.000      0.000      0.000      0.000      0.000
 eps  :         0.404      1.028      1.358      2.348      3.533      3.776      4.401      5.216


   #   Z            q   n(s)   n(p)   n(d)      C6AA      α(0)
   1  16 S      1.601  1.584  1.838  0.977    91.060    16.061
   2   8 O     -0.767  1.775  4.992  0.000    30.603     7.417
   3   8 O     -0.759  1.769  4.989  0.000    30.361     7.388
   4   8 O     -0.733  1.771  4.961  0.000    29.615     7.296
   5   8 O     -0.544  1.722  4.822  0.000    23.860     6.594
   6   1 H      0.358  0.642  0.000  0.000     0.560     1.171
   7   8 O     -0.851  1.829  5.022  0.000    33.089     7.715
   8   1 H      0.211  0.789  0.000  0.000     1.063     1.620
   9   8 O     -0.674  1.757  4.917  0.000    27.030     7.017
  10   1 H      0.326  0.674  0.000  0.000     0.646     1.263
  11   1 H      0.299  0.701  0.000  0.000     0.724     1.336
  12   8 O     -0.623  1.733  4.890  0.000    25.735     6.847
  13   1 H      0.282  0.718  0.000  0.000     0.778     1.385
  14   1 H      0.339  0.661  0.000  0.000     0.614     1.231
  15   8 O     -0.455  1.657  4.798  0.000    21.890     6.319
  16   1 H      0.407  0.593  0.000  0.000     0.466     1.069
  17   1 H      0.401  0.599  0.000  0.000     0.483     1.092
  18   1 H      0.403  0.597  0.000  0.000     0.480     1.088
  19   8 O     -0.451  1.652  4.800  0.000    21.812     6.308
  20   1 H      0.392  0.608  0.000  0.000     0.500     1.111
  21   1 H      0.381  0.619  0.000  0.000     0.521     1.134
  22   1 H      0.406  0.594  0.000  0.000     0.467     1.069
  23   7 N     -0.461  1.383  4.078  0.000    32.142     8.420
  24   1 H      0.208  0.792  0.000  0.000     1.068     1.619
  25   1 H      0.151  0.849  0.000  0.000     1.396     1.851
  26   1 H      0.152  0.848  0.000  0.000     1.386     1.845

 Mol. C6AA /au·bohr⁶  :       5518.195681
 Mol. C8AA /au·bohr⁸  :     119507.849300
 Mol. α(0) /au        :        107.264647

 
 Wiberg/Mayer (AO) data. WBOs > 0.1 written file <wbo>
 largest (>0.05) Wiberg bond orders for each atom
           total WBO             WBO to atom ...
     1  S   4.915    O    4 1.352    O    3 1.277    O    2 1.254    O    5 0.996
     2  O   1.686    S    1 1.254    O    4 0.113    O    3 0.111    O    5 0.070    H   20 0.070
     3  O   1.685    S    1 1.277    O    4 0.114    O    2 0.111    H   17 0.083    O    5 0.070
     4  O   1.692    S    1 1.352    O    3 0.114    O    2 0.113    O    5 0.056
     5  O   2.047    S    1 0.996    H    6 0.847    O    3 0.070    O    2 0.070    O    4 0.056
     6  H   0.871    O    5 0.847
     7  O   1.612    H    8 0.946    H   22 0.199    H   16 0.189    H   10 0.099    O   19 0.062    O   15 0.059
     8  H   0.955    O    7 0.946
     9  O   1.822    H   11 0.877    H   10 0.793    H   14 0.058
    10  H   0.894    O    9 0.793    O    7 0.099
    11  H   0.911    O    9 0.877
    12  O   1.841    H   13 0.906    H   14 0.825    H   18 0.061
    13  H   0.920    O   12 0.906
    14  H   0.885    O   12 0.825    O    9 0.058
    15  O   2.288    H   18 0.768    H   17 0.748    H   16 0.639    O    7 0.059
    16  H   0.834    O   15 0.639    O    7 0.189
    17  H   0.839    O   15 0.748    O    3 0.083
    18  H   0.838    O   15 0.768    O   12 0.061
    19  O   2.289    H   20 0.768    H   21 0.754    H   22 0.630    O    7 0.062
    20  H   0.846    O   19 0.768    O    2 0.070
    21  H   0.855    O   19 0.754    N   23 0.092
    22  H   0.835    O   19 0.630    O    7 0.199
    23  N   3.021    H   26 0.973    H   25 0.973    H   24 0.923    H   21 0.092
    24  H   0.957    N   23 0.923
    25  H   0.977    N   23 0.973
    26  H   0.977    N   23 0.973
 MOs/occ written to file <molden.input>
 
molecular dipole:
                 x           y           z       tot (Debye)
 q only:        0.075      -0.828       0.574
   full:        0.056      -0.253       0.027       0.662
molecular quadrupole (traceless):
                xx          xy          yy          xz          yz          zz
 q only:       -3.981       0.742      -0.767     -12.898       6.103       4.748
  q+dip:       -1.495      -2.686      -1.087     -15.519      -0.119       2.582
   full:       -1.882      -2.739      -0.820     -16.023      -0.451       2.702

SCC energy    :     -50.6775951
rep           :       0.2895427
ES            :       0.2923413
AES           :      -0.0716112
AXC           :      -0.0073000
disp          :      -0.0179630
XB            :       0.0000000
fix           :       0.0000000
total E       :     -50.3877767
atomizationE  :       4.9180808     3086.14
(atE without considering molecular charge,
 total energy contains solvation terms)
H-L gap (eV)  :          8.2049
           ------------------------------------------------- 
          |                 ===============                 |
          |                   A N C O P T                   |
          |                 ===============                 |
          |          Approximate Normal Coordinate          |
          |           Rational Function Optimizer           |
           ------------------------------------------------- 
dumping coords to <xtbopt.coord> and <xtbopt.log>
 optlevel               2
 Maxcycle             520
 Maxmicro              25
 Econv         1.000000000000000E-007
 Gconv         2.000000000000000E-004
 Maxdispl       1.00000000000000     
 Hlow          5.000000000000000E-003
 S6             20.0000000000000     
 Nvar               72

generating ANC from model Hessian ...
 Shifting diagonal of input Hessian by   5.013793065971220E-003
 Lowest  eigenvalues of input Hessian
    0.005000   -0.000000   -0.000000    0.000000    0.000000    0.000000
    0.000000    0.005034    0.005489    0.005800    0.006229    0.006678
    0.007086    0.007760    0.008293    0.008962    0.009922    0.010888
 Highest eigenvalues
    1.561836    1.585434    1.586313    3.139285    3.216587    3.314565
 
cpu  time for ANC gen    0.02 s
wall time for ANC gen    0.02 s
................................................................................
.............................. CYCLE    1 ......................................
................................................................................
   1    -50.6775951 -0.506776E+02  0.755E-05    8.20       0.0  T
   2    -50.6775951 -0.117168E-10  0.598E-05    8.20     327.7  T
   3    -50.6775951 -0.132800E-10  0.304E-05    8.20     645.4  T
speedup  0.86
cpu  time for SCC    0.00 s
wall time for SCC    0.00 s
speedup  0.90
cpu  time for grad    0.01 s
wall time for grad    0.01 s
 E :    -50.38777660  G :  0.205104    pred/act E change:  0.000D+00  0.511D-07
Maxdispl :   0.1185   ||displ|| :   0.3141   Lambda : -0.309D-01
Largest |displ|/coords:  0.1185 (  27)  0.1168 (  19)  0.1060 (  21)
................................................................................
.............................. CYCLE    2 ......................................
................................................................................
   1    -50.6858572 -0.506859E+02  0.329E-01    8.30       0.0  T
   2    -50.6860288 -0.171609E-03  0.248E-01    8.35       1.0  T
   3    -50.6861094 -0.806195E-04  0.779E-02    8.44       1.0  T
   4    -50.6861248 -0.153525E-04  0.180E-02    8.42       1.1  T
   5    -50.6861256 -0.834093E-06  0.507E-03    8.42       3.9  T
   6    -50.6861256 -0.339376E-07  0.301E-03    8.42       6.5  T
speedup  0.83
cpu  time for SCC    0.01 s
wall time for SCC    0.01 s
speedup  0.93
cpu  time for grad    0.01 s
wall time for grad    0.01 s
 E :    -50.41179898  G :  0.125422    pred/act E change:  0.000D+00 -0.240D-01
Maxdispl :   0.1536   ||displ|| :   0.3246   Lambda : -0.146D-01
Largest |displ|/coords:  0.1536 (  21)  0.1151 (  27)  0.1030 (  19)
................................................................................
.............................. CYCLE    3 ......................................
................................................................................
   1    -50.6907862 -0.506908E+02  0.252E-01    8.50       0.0  T
   2    -50.6909795 -0.193279E-03  0.187E-01    8.56       1.0  T
   3    -50.6910626 -0.830930E-04  0.739E-02    8.66       1.0  T
   4    -50.6910719 -0.934928E-05  0.142E-02    8.65       1.4  T
   5    -50.6910723 -0.433478E-06  0.447E-03    8.64       4.4  T
   6    -50.6910724 -0.251987E-07  0.259E-03    8.64       7.6  T
speedup  1.02
cpu  time for SCC    0.01 s
wall time for SCC    0.01 s
speedup  1.00
cpu  time for grad    0.01 s
wall time for grad    0.01 s
 E :    -50.42340156  G :  0.079852    pred/act E change: -0.170D-01 -0.116D-01
Maxdispl :   0.1389   ||displ|| :   0.3119   Lambda : -0.709D-02
Largest |displ|/coords:  0.1389 (  21)  0.0967 (  10)  0.0853 (   9)
................................................................................
.............................. CYCLE    4 ......................................
................................................................................
   1    -50.6934394 -0.506934E+02  0.226E-01    8.72       0.0  T
   2    -50.6936116 -0.172190E-03  0.165E-01    8.79       1.0  T
   3    -50.6936835 -0.719496E-04  0.647E-02    8.88       1.0  T
   4    -50.6936909 -0.741062E-05  0.124E-02    8.87       1.6  T
   5    -50.6936912 -0.296579E-06  0.394E-03    8.87       5.0  T
   6    -50.6936912 -0.168465E-07  0.219E-03    8.87       9.0  T
speedup  1.02
cpu  time for SCC    0.01 s
wall time for SCC    0.01 s
speedup  0.99
cpu  time for grad    0.01 s
wall time for grad    0.01 s
 E :    -50.42905720  G :  0.050972    pred/act E change: -0.807D-02 -0.566D-02
Maxdispl :   0.0975   ||displ|| :   0.3038   Lambda : -0.363D-02
Largest |displ|/coords:  0.0975 (   4)  0.0960 (  20)  0.0933 (  10)
................................................................................
.............................. CYCLE    5 ......................................
................................................................................
   1    -50.6941887 -0.506942E+02  0.214E-01    8.93       0.0  T
   2    -50.6942935 -0.104869E-03  0.156E-01    8.99       1.0  T
   3    -50.6943367 -0.431065E-04  0.504E-02    9.05       1.0  T
   4    -50.6943446 -0.793715E-05  0.112E-02    9.05       1.8  T
   5    -50.6943448 -0.240096E-06  0.325E-03    9.05       6.0  T
   6    -50.6943448 -0.115055E-07  0.183E-03    9.05      10.7  T
speedup  0.86
cpu  time for SCC    0.00 s
wall time for SCC    0.01 s
speedup  0.99
cpu  time for grad    0.01 s
wall time for grad    0.01 s
 E :    -50.43206189  G :  0.033072    pred/act E change: -0.389D-02 -0.300D-02
Maxdispl :   0.1824   ||displ|| :   0.4753   Lambda : -0.465D-02
Largest |displ|/coords:  0.1824 (  20)  0.1643 (  10)  0.1540 (   9)
................................................................................
.............................. CYCLE    6 ......................................
................................................................................
   1    -50.6963048 -0.506963E+02  0.371E-01    9.01       0.0  T
   2    -50.6966572 -0.352384E-03  0.270E-01    9.02       1.0  T
   3    -50.6968061 -0.148911E-03  0.906E-02    9.04       1.0  T
   4    -50.6968303 -0.242447E-04  0.216E-02    9.05       1.0  T
   5    -50.6968312 -0.843034E-06  0.591E-03    9.05       3.3  T
   6    -50.6968312 -0.570891E-07  0.337E-03    9.05       5.8  T
speedup  1.02
cpu  time for SCC    0.01 s
wall time for SCC    0.01 s
speedup  0.99
cpu  time for grad    0.01 s
wall time for grad    0.01 s
 E :    -50.43491726  G :  0.024102    pred/act E change: -0.198D-02 -0.286D-02
Maxdispl :   0.2117   ||displ|| :   0.4784   Lambda : -0.245D-02
Largest |displ|/coords:  0.2117 (   7)  0.1916 (   4)  0.1809 (   3)
................................................................................
.............................. CYCLE    7 ......................................
................................................................................
   1    -50.6983298 -0.506983E+02  0.453E-01    8.92       0.0  T
   2    -50.6984870 -0.157201E-03  0.342E-01    8.93       1.0  T
   3    -50.6985589 -0.718282E-04  0.636E-02    8.96       1.0  T
   4    -50.6985866 -0.276973E-04  0.169E-02    8.96       1.2  T
   5    -50.6985870 -0.477275E-06  0.557E-03    8.96       3.5  T
   6    -50.6985871 -0.251360E-07  0.298E-03    8.96       6.6  T
speedup  1.03
cpu  time for SCC    0.01 s
wall time for SCC    0.01 s
speedup  1.01
cpu  time for grad    0.01 s
wall time for grad    0.01 s
 E :    -50.43462101  G :  0.041857    pred/act E change: -0.285D-02  0.296D-03
Maxdispl :   0.1680   ||displ|| :   0.2778   Lambda : -0.354D-02
Largest |displ|/coords:  0.1680 (   8)  0.1198 (  10)  0.1046 (   9)
................................................................................
.............................. CYCLE    8 ......................................
................................................................................
   1    -50.6989065 -0.506989E+02  0.392E-01    8.95       0.0  T
   2    -50.6989522 -0.457348E-04  0.299E-01    8.95       1.0  T
   3    -50.6989976 -0.453434E-04  0.350E-02    8.95       1.0  T
   4    -50.6990020 -0.437203E-05  0.102E-02    8.95       1.9  T
   5    -50.6990021 -0.195162E-06  0.378E-03    8.95       5.2  T
   6    -50.6990022 -0.145091E-07  0.195E-03    8.95      10.1  T
speedup  0.86
cpu  time for SCC    0.00 s
wall time for SCC    0.01 s
speedup  1.00
cpu  time for grad    0.01 s
wall time for grad    0.01 s
 E :    -50.43614033  G :  0.027543    pred/act E change: -0.151D-02 -0.152D-02
Maxdispl :   0.1517   ||displ|| :   0.3204   Lambda : -0.207D-02
Largest |displ|/coords:  0.1517 (   3)  0.1209 (   8)  0.1189 (   4)
................................................................................
.............................. CYCLE    9 ......................................
................................................................................
   1    -50.7044346 -0.507044E+02  0.306E-01    9.05       0.0  T
   2    -50.7044717 -0.371431E-04  0.228E-01    9.04       1.0  T
   3    -50.7044961 -0.243457E-04  0.338E-02    9.02       1.0  T
   4    -50.7045011 -0.495941E-05  0.109E-02    9.03       1.8  T
   5    -50.7045012 -0.175173E-06  0.400E-03    9.03       4.9  T
   6    -50.7045012 -0.167517E-07  0.201E-03    9.03       9.8  T
speedup  1.02
cpu  time for SCC    0.01 s
wall time for SCC    0.01 s
speedup  1.00
cpu  time for grad    0.01 s
wall time for grad    0.01 s
 E :    -50.43630619  G :  0.030879    pred/act E change: -0.191D-02 -0.166D-03
Maxdispl :   0.1104   ||displ|| :   0.1985   Lambda : -0.144D-02
Largest |displ|/coords:  0.1104 (   3)  0.0672 (   6)  0.0659 (   4)
................................................................................
.............................. CYCLE   10 ......................................
................................................................................
   1    -50.7045236 -0.507045E+02  0.148E-01    9.04       0.0  T
   2    -50.7045289 -0.525052E-05  0.111E-01    9.04       1.0  T
   3    -50.7045324 -0.356710E-05  0.122E-02    9.04       1.6  T
   4    -50.7045332 -0.777033E-06  0.424E-03    9.04       4.6  T
   5    -50.7045332 -0.200802E-07  0.162E-03    9.03      12.1  T
speedup  1.02
cpu  time for SCC    0.00 s
wall time for SCC    0.00 s
speedup  0.99
cpu  time for grad    0.01 s
wall time for grad    0.01 s
 E :    -50.43726630  G :  0.019413    pred/act E change: -0.114D-02 -0.960D-03
Maxdispl :   0.1917   ||displ|| :   0.3626   Lambda : -0.152D-02
Largest |displ|/coords:  0.1917 (   3)  0.1264 (  19)  0.0965 (   1)
................................................................................
.............................. CYCLE   11 ......................................
................................................................................
   1    -50.6982966 -0.506983E+02  0.285E-01    9.01       0.0  T
   2    -50.6983566 -0.599426E-04  0.212E-01    9.01       1.0  T
   3    -50.6983866 -0.299924E-04  0.386E-02    9.00       1.0  T
   4    -50.6983961 -0.955152E-05  0.956E-03    9.00       2.1  T
   5    -50.6983962 -0.124391E-06  0.431E-03    9.00       4.5  T
   6    -50.6983963 -0.233156E-07  0.187E-03    9.00      10.5  T
   7    -50.6983963 -0.695218E-08  0.383E-04    9.00      51.1  T
speedup  1.03
cpu  time for SCC    0.01 s
wall time for SCC    0.01 s
speedup  1.01
cpu  time for grad    0.01 s
wall time for grad    0.01 s
 E :    -50.43779666  G :  0.028591    pred/act E change: -0.748D-03 -0.530D-03
Maxdispl :   0.1115   ||displ|| :   0.2728   Lambda : -0.167D-02
Largest |displ|/coords:  0.1115 (   7)  0.1107 (   4)  0.1038 (   1)
................................................................................
.............................. CYCLE   12 ......................................
................................................................................
   1    -50.7059744 -0.507060E+02  0.184E-01    9.02       0.0  T
   2    -50.7060064 -0.319765E-04  0.138E-01    9.02       1.0  T
   3    -50.7060260 -0.196107E-04  0.285E-02    9.03       1.0  T
   4    -50.7060303 -0.426523E-05  0.105E-02    9.02       1.9  T
   5    -50.7060304 -0.166247E-06  0.324E-03    9.02       6.1  T
   6    -50.7060304 -0.115208E-07  0.171E-03    9.02      11.5  T
speedup  1.02
cpu  time for SCC    0.01 s
wall time for SCC    0.01 s
speedup  1.00
cpu  time for grad    0.01 s
wall time for grad    0.01 s
 E :    -50.43835202  G :  0.027089    pred/act E change: -0.858D-03 -0.555D-03
Maxdispl :   0.1868   ||displ|| :   0.3874   Lambda : -0.264D-02
Largest |displ|/coords:  0.1868 (  23)  0.1739 (  20)  0.1264 (   1)
................................................................................
.............................. CYCLE   13 ......................................
................................................................................
   1    -50.7048376 -0.507048E+02  0.368E-01    9.13       0.0  T
   2    -50.7049674 -0.129816E-03  0.274E-01    9.12       1.0  T
   3    -50.7050345 -0.670990E-04  0.610E-02    9.11       1.0  T
   4    -50.7050532 -0.187333E-04  0.158E-02    9.12       1.2  T
   5    -50.7050535 -0.308659E-06  0.560E-03    9.12       3.5  T
   6    -50.7050536 -0.617364E-07  0.297E-03    9.12       6.6  T
speedup  1.00
cpu  time for SCC    0.01 s
wall time for SCC    0.01 s
speedup  0.99
cpu  time for grad    0.01 s
wall time for grad    0.01 s
 E :    -50.43877217  G :  0.037482    pred/act E change: -0.899D-03 -0.420D-03
Maxdispl :   0.1380   ||displ|| :   0.2439   Lambda : -0.206D-02
Largest |displ|/coords:  0.1380 (   7)  0.0953 (   3)  0.0836 (   9)
................................................................................
.............................. CYCLE   14 ......................................
................................................................................
   1    -50.7102397 -0.507102E+02  0.167E-01    9.18       0.0  T
   2    -50.7102582 -0.184986E-04  0.124E-01    9.18       1.0  T
   3    -50.7102705 -0.123443E-04  0.230E-02    9.17       1.0  T
   4    -50.7102729 -0.237394E-05  0.662E-03    9.18       3.0  T
   5    -50.7102730 -0.655149E-07  0.276E-03    9.18       7.1  T
   6    -50.7102730 -0.920361E-08  0.112E-03    9.18      17.6  T
speedup  0.86
cpu  time for SCC    0.01 s
wall time for SCC    0.01 s
speedup  1.01
cpu  time for grad    0.01 s
wall time for grad    0.01 s
 E :    -50.43937376  G :  0.021829    pred/act E change: -0.152D-02 -0.602D-03
Maxdispl :   0.1461   ||displ|| :   0.2997   Lambda : -0.194D-02
Largest |displ|/coords:  0.1461 (  19)  0.1153 (   7)  0.0899 (   8)
................................................................................
.............................. CYCLE   15 ......................................
................................................................................
   1    -50.7061937 -0.507062E+02  0.264E-01    9.10       0.0  T
   2    -50.7062317 -0.380377E-04  0.199E-01    9.11       1.0  T
   3    -50.7062594 -0.276511E-04  0.343E-02    9.11       1.0  T
   4    -50.7062647 -0.532822E-05  0.126E-02    9.11       1.6  T
   5    -50.7062649 -0.262425E-06  0.436E-03    9.11       4.5  T
   6    -50.7062650 -0.268297E-07  0.220E-03    9.11       8.9  T
speedup  1.03
cpu  time for SCC    0.01 s
wall time for SCC    0.01 s
speedup  0.99
cpu  time for grad    0.01 s
wall time for grad    0.01 s
 E :    -50.43962722  G :  0.027512    pred/act E change: -0.109D-02 -0.253D-03
Maxdispl :   0.0687   ||displ|| :   0.1794   Lambda : -0.155D-02
Largest |displ|/coords:  0.0687 (   1)  0.0659 (  23)  0.0657 (  20)
................................................................................
.............................. CYCLE   16 ......................................
................................................................................
   1    -50.7080609 -0.507081E+02  0.182E-01    9.15       0.0  T
   2    -50.7080733 -0.123338E-04  0.138E-01    9.15       1.0  T
   3    -50.7080849 -0.116272E-04  0.185E-02    9.16       1.1  T
   4    -50.7080864 -0.145216E-05  0.680E-03    9.16       2.9  T
   5    -50.7080864 -0.498457E-07  0.232E-03    9.16       8.5  T
   6    -50.7080864 -0.795485E-08  0.115E-03    9.16      17.1  T
speedup  1.02
cpu  time for SCC    0.01 s
wall time for SCC    0.01 s
speedup  1.00
cpu  time for grad    0.01 s
wall time for grad    0.01 s
 E :    -50.44052948  G :  0.016933    pred/act E change: -0.106D-02 -0.902D-03
Maxdispl :   0.0986   ||displ|| :   0.2515   Lambda : -0.884D-03
Largest |displ|/coords:  0.0986 (   1)  0.0963 (  20)  0.0726 (   7)
................................................................................
.............................. CYCLE   17 ......................................
................................................................................
   1    -50.7108811 -0.507109E+02  0.156E-01    9.21       0.0  T
   2    -50.7109049 -0.237499E-04  0.117E-01    9.22       1.0  T
   3    -50.7109203 -0.154371E-04  0.257E-02    9.23       1.0  T
   4    -50.7109237 -0.341592E-05  0.702E-03    9.23       2.8  T
   5    -50.7109238 -0.596539E-07  0.311E-03    9.23       6.3  T
   6    -50.7109238 -0.977968E-08  0.134E-03    9.23      14.6  T
   7    -50.7109238 -0.321238E-08  0.365E-04    9.23      53.7  T
speedup  1.03
cpu  time for SCC    0.01 s
wall time for SCC    0.01 s
speedup  1.00
cpu  time for grad    0.01 s
wall time for grad    0.01 s
 E :    -50.44115812  G :  0.021424    pred/act E change: -0.798D-03 -0.629D-03
Maxdispl :   0.2263   ||displ|| :   0.4951   Lambda : -0.193D-02
Largest |displ|/coords:  0.2263 (   1)  0.1673 (  20)  0.1460 (  10)
................................................................................
.............................. CYCLE   18 ......................................
................................................................................
   1    -50.7159214 -0.507159E+02  0.321E-01    9.29       0.0  T
   2    -50.7160270 -0.105567E-03  0.241E-01    9.29       1.0  T
   3    -50.7160928 -0.658346E-04  0.570E-02    9.29       1.0  T
   4    -50.7161074 -0.145464E-04  0.150E-02    9.29       1.3  T
   5    -50.7161077 -0.360110E-06  0.672E-03    9.29       2.9  T
   6    -50.7161078 -0.360660E-07  0.300E-03    9.29       6.5  T
   7    -50.7161078 -0.162615E-07  0.673E-04    9.29      29.1  T
speedup  0.88
cpu  time for SCC    0.01 s
wall time for SCC    0.01 s
speedup  1.01
cpu  time for grad    0.01 s
wall time for grad    0.01 s
 E :    -50.44276651  G :  0.027549    pred/act E change: -0.470D-03 -0.161D-02
Maxdispl :   0.1847   ||displ|| :   0.5594   Lambda : -0.347D-02
Largest |displ|/coords:  0.1847 (   1)  0.1707 (  10)  0.1539 (  20)
................................................................................
.............................. CYCLE   19 ......................................
................................................................................
   1    -50.7315950 -0.507316E+02  0.375E-01    9.28       0.0  T
   2    -50.7317991 -0.204109E-03  0.280E-01    9.28       1.0  T
   3    -50.7319335 -0.134402E-03  0.846E-02    9.20       1.0  T
   4    -50.7319543 -0.208089E-04  0.233E-02    9.19       1.0  T
   5    -50.7319554 -0.110770E-05  0.920E-03    9.20       2.1  T
   6    -50.7319555 -0.487986E-07  0.426E-03    9.20       4.6  T
   7    -50.7319555 -0.313249E-07  0.102E-03    9.20      19.1  T
speedup  1.01
cpu  time for SCC    0.01 s
wall time for SCC    0.01 s
speedup  1.01
cpu  time for grad    0.01 s
wall time for grad    0.01 s
 E :    -50.44357273  G :  0.037616    pred/act E change: -0.120D-02 -0.806D-03
Maxdispl :   0.1197   ||displ|| :   0.3046   Lambda : -0.354D-02
Largest |displ|/coords:  0.1197 (   3)  0.1019 (   1)  0.0998 (  19)
................................................................................
.............................. CYCLE   20 ......................................
................................................................................
   1    -50.7172640 -0.507173E+02  0.232E-01    9.09       0.0  T
   2    -50.7173117 -0.477398E-04  0.170E-01    9.08       1.0  T
   3    -50.7173414 -0.296881E-04  0.382E-02    9.07       1.0  T
   4    -50.7173465 -0.508378E-05  0.801E-03    9.07       2.4  T
   5    -50.7173466 -0.577998E-07  0.411E-03    9.07       4.8  T
   6    -50.7173466 -0.254031E-07  0.110E-03    9.07      17.8  T
speedup  1.02
cpu  time for SCC    0.01 s
wall time for SCC    0.01 s
speedup  1.01
cpu  time for grad    0.01 s
wall time for grad    0.01 s
 E :    -50.44402556  G :  0.037214    pred/act E change: -0.228D-02 -0.453D-03
Maxdispl :   0.1669   ||displ|| :   0.3969   Lambda : -0.345D-02
Largest |displ|/coords:  0.1669 (  20)  0.1545 (   3)  0.1014 (  23)
................................................................................
.............................. CYCLE   21 ......................................
................................................................................
   1    -50.7202168 -0.507202E+02  0.306E-01    9.21       0.0  T
   2    -50.7202925 -0.756997E-04  0.229E-01    9.23       1.0  T
   3    -50.7203450 -0.524705E-04  0.476E-02    9.26       1.0  T
   4    -50.7203547 -0.975189E-05  0.126E-02    9.27       1.6  T
   5    -50.7203550 -0.240636E-06  0.551E-03    9.27       3.6  T
   6    -50.7203550 -0.265811E-07  0.237E-03    9.27       8.3  T
speedup  1.03
cpu  time for SCC    0.01 s
wall time for SCC    0.01 s
speedup  1.01
cpu  time for grad    0.01 s
wall time for grad    0.01 s
 E :    -50.44439678  G :  0.022367    pred/act E change: -0.193D-02 -0.371D-03
Maxdispl :   0.0894   ||displ|| :   0.2421   Lambda : -0.181D-02
Largest |displ|/coords:  0.0894 (  20)  0.0893 (   1)  0.0687 (   3)
................................................................................
.............................. CYCLE   22 ......................................
................................................................................
   1    -50.7267563 -0.507268E+02  0.165E-01    9.24       0.0  T
   2    -50.7267885 -0.321464E-04  0.122E-01    9.23       1.0  T
   3    -50.7268098 -0.212822E-04  0.315E-02    9.22       1.0  T
   4    -50.7268135 -0.369101E-05  0.875E-03    9.21       2.2  T
   5    -50.7268136 -0.137135E-06  0.353E-03    9.21       5.6  T
   6    -50.7268136 -0.831045E-08  0.154E-03    9.21      12.7  T
speedup  1.02
cpu  time for SCC    0.01 s
wall time for SCC    0.01 s
speedup  1.01
cpu  time for grad    0.01 s
wall time for grad    0.01 s
 E :    -50.44526937  G :  0.016673    pred/act E change: -0.199D-02 -0.873D-03
Maxdispl :   0.1018   ||displ|| :   0.1921   Lambda : -0.588D-03
Largest |displ|/coords:  0.1018 (  10)  0.0739 (   5)  0.0520 (   2)
................................................................................
.............................. CYCLE   23 ......................................
................................................................................
   1    -50.7264342 -0.507264E+02  0.115E-01    9.22       0.0  T
   2    -50.7264473 -0.130649E-04  0.854E-02    9.21       1.0  T
   3    -50.7264550 -0.770519E-05  0.206E-02    9.18       1.0  T
   4    -50.7264565 -0.146015E-05  0.516E-03    9.18       3.8  T
   5    -50.7264565 -0.511574E-07  0.219E-03    9.18       9.0  T
   6    -50.7264565 -0.386569E-08  0.105E-03    9.18      18.6  T
speedup  1.02
cpu  time for SCC    0.01 s
wall time for SCC    0.01 s
speedup  1.00
cpu  time for grad    0.01 s
wall time for grad    0.01 s
 E :    -50.44537318  G :  0.015743    pred/act E change: -0.957D-03 -0.104D-03
Maxdispl :   0.0523   ||displ|| :   0.0965   Lambda : -0.452D-03
Largest |displ|/coords:  0.0523 (   1)  0.0356 (  10)  0.0283 (  14)
................................................................................
.............................. CYCLE   24 ......................................
................................................................................
   1    -50.7246013 -0.507246E+02  0.621E-02    9.18       0.0  T
   2    -50.7246056 -0.435286E-05  0.455E-02    9.18       1.0  T
   3    -50.7246080 -0.232430E-05  0.110E-02    9.19       1.8  T
   4    -50.7246084 -0.435896E-06  0.205E-03    9.19       9.6  T
   5    -50.7246084 -0.620744E-08  0.966E-04    9.19      20.3  T
speedup  1.02
cpu  time for SCC    0.01 s
wall time for SCC    0.00 s
speedup  1.00
cpu  time for grad    0.01 s
wall time for grad    0.01 s
 E :    -50.44563547  G :  0.008098    pred/act E change: -0.305D-03 -0.262D-03
Maxdispl :   0.0929   ||displ|| :   0.1390   Lambda : -0.263D-03
Largest |displ|/coords:  0.0929 (   1)  0.0425 (   5)  0.0404 (  14)
................................................................................
.............................. CYCLE   25 ......................................
................................................................................
   1    -50.7241344 -0.507241E+02  0.780E-02    9.18       0.0  T
   2    -50.7241380 -0.355980E-05  0.582E-02    9.18       1.0  T
   3    -50.7241401 -0.209948E-05  0.106E-02    9.19       1.9  T
   4    -50.7241406 -0.514279E-06  0.333E-03    9.19       5.9  T
   5    -50.7241406 -0.150164E-07  0.110E-03    9.19      17.8  T
   6    -50.7241406 -0.190554E-08  0.560E-04    9.19      35.0  T
speedup  1.02
cpu  time for SCC    0.01 s
wall time for SCC    0.01 s
speedup  1.00
cpu  time for grad    0.01 s
wall time for grad    0.01 s
 E :    -50.44580721  G :  0.011249    pred/act E change: -0.228D-03 -0.172D-03
Maxdispl :   0.2463   ||displ|| :   0.3470   Lambda : -0.464D-03
Largest |displ|/coords:  0.2463 (   1)  0.0917 (  14)  0.0894 (   2)

generating ANC from model Hessian ...
 Shifting diagonal of input Hessian by   5.008763000263026E-003
 Lowest  eigenvalues of input Hessian
    0.005000   -0.000000   -0.000000    0.000000    0.000000    0.000000
    0.000000    0.005077    0.005328    0.005584    0.006197    0.006374
    0.006999    0.007087    0.008514    0.009814    0.011343    0.011606
 Highest eigenvalues
    1.405947    1.413424    1.414920    2.616812    3.374626    3.707961
 
cpu  time for ANC gen    0.02 s
wall time for ANC gen    0.02 s
................................................................................
.............................. CYCLE   26 ......................................
................................................................................
   1    -50.7245751 -0.507246E+02  0.172E-01    9.20       0.0  T
   2    -50.7245949 -0.197586E-04  0.127E-01    9.19       1.0  T
   3    -50.7246043 -0.947857E-05  0.253E-02    9.19       1.0  T
   4    -50.7246072 -0.286518E-05  0.665E-03    9.19       2.9  T
   5    -50.7246073 -0.564469E-07  0.263E-03    9.19       7.4  T
   6    -50.7246073 -0.109540E-07  0.110E-03    9.19      17.8  T
   7    -50.7246073 -0.283952E-08  0.433E-04    9.19      45.3  T
   8    -50.7246073 -0.350866E-09  0.113E-04    9.19     174.2  T
speedup  1.04
cpu  time for SCC    0.01 s
wall time for SCC    0.01 s
speedup  1.04
cpu  time for grad    0.02 s
wall time for grad    0.02 s
 E :    -50.44610216  G :  0.013033    pred/act E change:  0.000D+00 -0.295D-03
Maxdispl :   0.1100   ||displ|| :   0.1824   Lambda : -0.472D-03
Largest |displ|/coords:  0.1100 (   2)  0.0828 (   1)  0.0570 (   9)
................................................................................
.............................. CYCLE   27 ......................................
................................................................................
   1    -50.7248240 -0.507248E+02  0.151E-01    9.20       0.0  T
   2    -50.7248277 -0.366739E-05  0.114E-01    9.20       1.0  T
   3    -50.7248314 -0.375399E-05  0.106E-02    9.20       1.9  T
   4    -50.7248318 -0.384518E-06  0.389E-03    9.20       5.0  T
   5    -50.7248318 -0.164671E-07  0.143E-03    9.20      13.7  T
   6    -50.7248318 -0.189922E-08  0.663E-04    9.20      29.6  T
speedup  1.03
cpu  time for SCC    0.01 s
wall time for SCC    0.01 s
speedup  1.01
cpu  time for grad    0.01 s
wall time for grad    0.01 s
 E :    -50.44641425  G :  0.007794    pred/act E change:  0.000D+00 -0.312D-03
Maxdispl :   0.1466   ||displ|| :   0.2462   Lambda : -0.401D-03
Largest |displ|/coords:  0.1466 (   2)  0.1168 (   1)  0.0663 (  18)
................................................................................
.............................. CYCLE   28 ......................................
................................................................................
   1    -50.7240752 -0.507241E+02  0.184E-01    9.21       0.0  T
   2    -50.7240799 -0.467057E-05  0.139E-01    9.21       1.0  T
   3    -50.7240852 -0.534255E-05  0.133E-02    9.21       1.5  T
   4    -50.7240856 -0.378450E-06  0.475E-03    9.21       4.1  T
   5    -50.7240856 -0.219459E-07  0.175E-03    9.21      11.2  T
   6    -50.7240856 -0.307678E-08  0.698E-04    9.21      28.1  T
speedup  1.02
cpu  time for SCC    0.01 s
wall time for SCC    0.01 s
speedup  1.01
cpu  time for grad    0.01 s
wall time for grad    0.01 s
 E :    -50.44656057  G :  0.014900    pred/act E change: -0.244D-03 -0.146D-03
Maxdispl :   0.0459   ||displ|| :   0.0721   Lambda : -0.211D-03
Largest |displ|/coords:  0.0459 (   3)  0.0251 (   4)  0.0209 (   8)
................................................................................
.............................. CYCLE   29 ......................................
................................................................................
   1    -50.7251765 -0.507252E+02  0.383E-02    9.21       0.0  T
   2    -50.7251779 -0.144868E-05  0.280E-02    9.21       1.0  T
   3    -50.7251786 -0.690044E-06  0.671E-03    9.21       2.9  T
   4    -50.7251788 -0.151270E-06  0.160E-03    9.21      12.3  T
   5    -50.7251788 -0.641931E-08  0.604E-04    9.21      32.5  T
speedup  1.02
cpu  time for SCC    0.01 s
wall time for SCC    0.00 s
speedup  1.00
cpu  time for grad    0.01 s
wall time for grad    0.01 s
 E :    -50.44671787  G :  0.007530    pred/act E change: -0.213D-03 -0.157D-03
Maxdispl :   0.1560   ||displ|| :   0.2699   Lambda : -0.324D-03
Largest |displ|/coords:  0.1560 (   3)  0.1115 (   2)  0.1011 (   1)
................................................................................
.............................. CYCLE   30 ......................................
................................................................................
   1    -50.7252482 -0.507252E+02  0.153E-01    9.22       0.0  T
   2    -50.7252567 -0.849431E-05  0.114E-01    9.21       1.0  T
   3    -50.7252617 -0.494818E-05  0.185E-02    9.20       1.1  T
   4    -50.7252630 -0.133809E-05  0.486E-03    9.20       4.0  T
   5    -50.7252631 -0.421858E-07  0.190E-03    9.20      10.3  T
   6    -50.7252631 -0.389030E-08  0.921E-04    9.20      21.3  T
speedup  1.02
cpu  time for SCC    0.01 s
wall time for SCC    0.01 s
speedup  1.01
cpu  time for grad    0.01 s
wall time for grad    0.01 s
 E :    -50.44695305  G :  0.005018    pred/act E change: -0.106D-03 -0.235D-03
Maxdispl :   0.2206   ||displ|| :   0.3964   Lambda : -0.341D-03
Largest |displ|/coords:  0.2206 (   3)  0.1704 (   2)  0.1596 (   1)
................................................................................
.............................. CYCLE   31 ......................................
................................................................................
   1    -50.7240646 -0.507241E+02  0.227E-01    9.20       0.0  T
   2    -50.7240839 -0.193148E-04  0.170E-01    9.20       1.0  T
   3    -50.7240943 -0.104260E-04  0.279E-02    9.18       1.0  T
   4    -50.7240976 -0.333106E-05  0.726E-03    9.18       2.7  T
   5    -50.7240977 -0.761007E-07  0.291E-03    9.19       6.7  T
   6    -50.7240977 -0.102171E-07  0.130E-03    9.19      15.1  T
speedup  1.02
cpu  time for SCC    0.01 s
wall time for SCC    0.01 s
speedup  0.99
cpu  time for grad    0.01 s
wall time for grad    0.01 s
 E :    -50.44723605  G :  0.008712    pred/act E change: -0.174D-03 -0.283D-03
Maxdispl :   0.3384   ||displ|| :   0.5931   Lambda : -0.566D-03
Largest |displ|/coords:  0.3384 (   3)  0.2230 (   1)  0.2012 (   2)
................................................................................
.............................. CYCLE   32 ......................................
................................................................................
   1    -50.7222322 -0.507222E+02  0.321E-01    9.16       0.0  T
   2    -50.7223038 -0.716101E-04  0.240E-01    9.15       1.0  T
   3    -50.7223331 -0.293056E-04  0.502E-02    9.13       1.0  T
   4    -50.7223454 -0.122493E-04  0.115E-02    9.14       1.7  T
   5    -50.7223456 -0.228423E-06  0.485E-03    9.14       4.0  T
   6    -50.7223456 -0.296898E-07  0.206E-03    9.14       9.5  T
   7    -50.7223457 -0.107091E-07  0.790E-04    9.14      24.8  T
speedup  0.88
cpu  time for SCC    0.01 s
wall time for SCC    0.01 s
speedup  0.93
cpu  time for grad    0.01 s
wall time for grad    0.01 s
 E :    -50.44770281  G :  0.016618    pred/act E change: -0.197D-03 -0.467D-03
Maxdispl :   0.3580   ||displ|| :   0.6186   Lambda : -0.915D-03
Largest |displ|/coords:  0.3580 (   3)  0.2059 (  16)  0.2013 (   6)
................................................................................
.............................. CYCLE   33 ......................................
................................................................................
   1    -50.7231847 -0.507232E+02  0.328E-01    9.10       0.0  T
   2    -50.7233576 -0.172905E-03  0.242E-01    9.09       1.0  T
   3    -50.7234182 -0.606267E-04  0.723E-02    9.07       1.0  T
   4    -50.7234387 -0.205288E-04  0.142E-02    9.07       1.4  T
   5    -50.7234393 -0.577430E-06  0.614E-03    9.07       3.2  T
   6    -50.7234394 -0.465813E-07  0.269E-03    9.07       7.3  T
   7    -50.7234394 -0.129966E-07  0.948E-04    9.07      20.7  T
speedup  1.03
cpu  time for SCC    0.01 s
wall time for SCC    0.01 s
speedup  1.00
cpu  time for grad    0.01 s
wall time for grad    0.01 s
 E :    -50.44850003  G :  0.024622    pred/act E change: -0.382D-03 -0.797D-03
Maxdispl :   0.3640   ||displ|| :   0.6536   Lambda : -0.182D-02
Largest |displ|/coords:  0.3640 (   3)  0.2148 (  16)  0.1801 (  17)
................................................................................
.............................. CYCLE   34 ......................................
................................................................................
   1    -50.7302521 -0.507303E+02  0.377E-01    9.10       0.0  T
   2    -50.7306239 -0.371785E-03  0.277E-01    9.09       1.0  T
   3    -50.7307560 -0.132040E-03  0.992E-02    9.06       1.0  T
   4    -50.7307850 -0.290732E-04  0.182E-02    9.06       1.1  T
   5    -50.7307861 -0.106745E-05  0.745E-03    9.06       2.6  T
   6    -50.7307862 -0.743307E-07  0.336E-03    9.06       5.8  T
   7    -50.7307862 -0.174190E-07  0.101E-03    9.06      19.5  T
speedup  1.03
cpu  time for SCC    0.01 s
wall time for SCC    0.01 s
speedup  1.01
cpu  time for grad    0.01 s
wall time for grad    0.01 s
 E :    -50.44997566  G :  0.027094    pred/act E change: -0.633D-03 -0.148D-02
Maxdispl :   0.1996   ||displ|| :   0.4726   Lambda : -0.276D-02
Largest |displ|/coords:  0.1996 (   3)  0.1703 (  20)  0.1449 (  17)
................................................................................
.............................. CYCLE   35 ......................................
................................................................................
   1    -50.7467008 -0.507467E+02  0.301E-01    9.20       0.0  T
   2    -50.7469241 -0.223325E-03  0.219E-01    9.19       1.0  T
   3    -50.7470184 -0.943235E-04  0.776E-02    9.16       1.0  T
   4    -50.7470322 -0.137172E-04  0.191E-02    9.15       1.0  T
   5    -50.7470329 -0.790880E-06  0.587E-03    9.15       3.3  T
   6    -50.7470330 -0.427031E-07  0.291E-03    9.15       6.7  T
speedup  1.02
cpu  time for SCC    0.01 s
wall time for SCC    0.01 s
speedup  1.00
cpu  time for grad    0.01 s
wall time for grad    0.01 s
 E :    -50.44979887  G :  0.056417    pred/act E change: -0.130D-02  0.177D-03
Maxdispl :   0.1627   ||displ|| :   0.4160   Lambda : -0.940D-02
Largest |displ|/coords:  0.1627 (   2)  0.1394 (   1)  0.1292 (   9)
................................................................................
.............................. CYCLE   36 ......................................
................................................................................
   1    -50.7104037 -0.507104E+02  0.363E-01    8.86       0.0  T
   2    -50.7106981 -0.294420E-03  0.257E-01    8.87       1.0  T
   3    -50.7108449 -0.146743E-03  0.947E-02    8.89       1.0  T
   4    -50.7108605 -0.156708E-04  0.277E-02    8.90       1.0  T
   5    -50.7108626 -0.205749E-05  0.886E-03    8.90       2.2  T
   6    -50.7108627 -0.139474E-06  0.502E-03    8.90       3.9  T
   7    -50.7108628 -0.356403E-07  0.144E-03    8.90      13.6  T
speedup  0.88
cpu  time for SCC    0.01 s
wall time for SCC    0.01 s
speedup  0.94
cpu  time for grad    0.01 s
wall time for grad    0.01 s
 E :    -50.44756502  G :  0.071847    pred/act E change: -0.169D-02  0.223D-02
Maxdispl :   0.1676   ||displ|| :   0.3864   Lambda : -0.144D-01
Largest |displ|/coords:  0.1676 (  20)  0.1318 (   8)  0.1027 (   2)
................................................................................
.............................. CYCLE   37 ......................................
................................................................................
   1    -50.7526431 -0.507526E+02  0.384E-01    9.19       0.0  T
   2    -50.7528762 -0.233040E-03  0.279E-01    9.18       1.0  T
   3    -50.7530224 -0.146227E-03  0.904E-02    9.15       1.0  T
   4    -50.7530392 -0.167538E-04  0.286E-02    9.15       1.0  T
   5    -50.7530410 -0.181813E-05  0.894E-03    9.16       2.2  T
   6    -50.7530411 -0.760616E-07  0.443E-03    9.16       4.4  T
   7    -50.7530411 -0.352378E-07  0.131E-03    9.16      15.0  T
speedup  1.01
cpu  time for SCC    0.01 s
wall time for SCC    0.01 s
speedup  1.00
cpu  time for grad    0.01 s
wall time for grad    0.01 s
 E :    -50.44992037  G :  0.072096    pred/act E change: -0.552D-02 -0.236D-02
Maxdispl :   0.1293   ||displ|| :   0.3047   Lambda : -0.845D-02
Largest |displ|/coords:  0.1293 (   8)  0.1089 (   3)  0.0866 (  20)
................................................................................
.............................. CYCLE   38 ......................................
................................................................................
   1    -50.7237220 -0.507237E+02  0.308E-01    8.98       0.0  T
   2    -50.7238243 -0.102295E-03  0.226E-01    8.99       1.0  T
   3    -50.7238929 -0.686113E-04  0.648E-02    9.01       1.0  T
   4    -50.7239016 -0.865580E-05  0.198E-02    9.01       1.0  T
   5    -50.7239026 -0.985851E-06  0.606E-03    9.01       3.2  T
   6    -50.7239026 -0.502813E-07  0.358E-03    9.01       5.5  T
   7    -50.7239027 -0.204799E-07  0.814E-04    9.01      24.1  T
speedup  1.03
cpu  time for SCC    0.01 s
wall time for SCC    0.01 s
speedup  1.00
cpu  time for grad    0.01 s
wall time for grad    0.01 s
 E :    -50.45118645  G :  0.042201    pred/act E change: -0.826D-02 -0.127D-02
Maxdispl :   0.0633   ||displ|| :   0.1751   Lambda : -0.272D-02
Largest |displ|/coords:  0.0633 (  12)  0.0583 (  17)  0.0552 (  15)
................................................................................
.............................. CYCLE   39 ......................................
................................................................................
   1    -50.7368708 -0.507369E+02  0.201E-01    9.07       0.0  T
   2    -50.7368940 -0.231393E-04  0.152E-01    9.06       1.0  T
   3    -50.7369130 -0.189915E-04  0.269E-02    9.04       1.0  T
   4    -50.7369157 -0.272726E-05  0.786E-03    9.05       2.5  T
   5    -50.7369158 -0.114876E-06  0.318E-03    9.05       6.2  T
   6    -50.7369158 -0.833496E-08  0.161E-03    9.05      12.2  T
speedup  1.02
cpu  time for SCC    0.01 s
wall time for SCC    0.01 s
speedup  1.00
cpu  time for grad    0.01 s
wall time for grad    0.01 s
 E :    -50.45258969  G :  0.018891    pred/act E change: -0.462D-02 -0.140D-02
Maxdispl :   0.0990   ||displ|| :   0.2284   Lambda : -0.989D-03
Largest |displ|/coords:  0.0990 (   4)  0.0884 (   3)  0.0759 (   5)
................................................................................
.............................. CYCLE   40 ......................................
................................................................................
   1    -50.7411214 -0.507411E+02  0.169E-01    9.05       0.0  T
   2    -50.7411509 -0.295189E-04  0.126E-01    9.05       1.0  T
   3    -50.7411654 -0.144452E-04  0.288E-02    9.04       1.0  T
   4    -50.7411696 -0.424444E-05  0.747E-03    9.03       2.6  T
   5    -50.7411698 -0.136578E-06  0.274E-03    9.03       7.2  T
   6    -50.7411698 -0.596525E-08  0.144E-03    9.03      13.6  T
speedup  1.02
cpu  time for SCC    0.01 s
wall time for SCC    0.01 s
speedup  0.99
cpu  time for grad    0.01 s
wall time for grad    0.01 s
 E :    -50.45267656  G :  0.023718    pred/act E change: -0.140D-02 -0.869D-04
Maxdispl :   0.1118   ||displ|| :   0.1709   Lambda : -0.858D-03
Largest |displ|/coords:  0.1118 (   3)  0.0658 (  12)  0.0476 (  17)
................................................................................
.............................. CYCLE   41 ......................................
................................................................................
   1    -50.7402721 -0.507403E+02  0.121E-01    9.04       0.0  T
   2    -50.7402775 -0.538271E-05  0.912E-02    9.04       1.0  T
   3    -50.7402812 -0.370528E-05  0.147E-02    9.03       1.3  T
   4    -50.7402820 -0.746262E-06  0.471E-03    9.03       4.2  T
   5    -50.7402820 -0.439272E-07  0.152E-03    9.03      12.9  T
speedup  1.00
cpu  time for SCC    0.00 s
wall time for SCC    0.01 s
speedup  0.98
cpu  time for grad    0.01 s
wall time for grad    0.01 s
 E :    -50.45321814  G :  0.012718    pred/act E change: -0.520D-03 -0.542D-03
Maxdispl :   0.1117   ||displ|| :   0.2104   Lambda : -0.568D-03
Largest |displ|/coords:  0.1117 (   3)  0.0706 (  17)  0.0683 (  16)
................................................................................
.............................. CYCLE   42 ......................................
................................................................................
   1    -50.7392268 -0.507392E+02  0.104E-01    9.05       0.0  T
   2    -50.7392307 -0.387902E-05  0.776E-02    9.05       1.0  T
   3    -50.7392331 -0.245982E-05  0.132E-02    9.05       1.5  T
   4    -50.7392336 -0.489231E-06  0.435E-03    9.05       4.5  T
   5    -50.7392337 -0.363320E-07  0.124E-03    9.05      15.8  T
   6    -50.7392337 -0.153429E-08  0.736E-04    9.05      26.7  T
speedup  0.85
cpu  time for SCC    0.00 s
wall time for SCC    0.01 s
speedup  0.98
cpu  time for grad    0.01 s
wall time for grad    0.01 s
 E :    -50.45345515  G :  0.011157    pred/act E change: -0.442D-03 -0.237D-03
Maxdispl :   0.2730   ||displ|| :   0.3795   Lambda : -0.630D-03
Largest |displ|/coords:  0.2730 (   3)  0.1059 (   6)  0.0919 (  12)
................................................................................
.............................. CYCLE   43 ......................................
................................................................................
   1    -50.7355524 -0.507356E+02  0.172E-01    8.99       0.0  T
   2    -50.7355715 -0.190918E-04  0.126E-01    8.98       1.0  T
   3    -50.7355775 -0.596530E-05  0.305E-02    8.96       1.0  T
   4    -50.7355801 -0.262770E-05  0.652E-03    8.96       3.0  T
   5    -50.7355802 -0.923891E-07  0.217E-03    8.96       9.0  T
   6    -50.7355802 -0.620649E-08  0.118E-03    8.96      16.7  T
speedup  1.00
cpu  time for SCC    0.01 s
wall time for SCC    0.01 s
speedup  0.99
cpu  time for grad    0.01 s
wall time for grad    0.01 s
 E :    -50.45372172  G :  0.015914    pred/act E change: -0.297D-03 -0.267D-03
Maxdispl :   0.0515   ||displ|| :   0.1327   Lambda : -0.430D-03
Largest |displ|/coords:  0.0515 (  12)  0.0481 (  19)  0.0364 (   6)
................................................................................
.............................. CYCLE   44 ......................................
................................................................................
   1    -50.7420323 -0.507420E+02  0.855E-02    9.04       0.0  T
   2    -50.7420364 -0.410213E-05  0.637E-02    9.03       1.0  T
   3    -50.7420386 -0.222304E-05  0.112E-02    9.03       1.7  T
   4    -50.7420391 -0.548654E-06  0.270E-03    9.03       7.3  T
   5    -50.7420392 -0.134732E-07  0.990E-04    9.03      19.8  T
speedup  1.00
cpu  time for SCC    0.01 s
wall time for SCC    0.00 s
speedup  0.98
cpu  time for grad    0.01 s
wall time for grad    0.01 s
 E :    -50.45391212  G :  0.012273    pred/act E change: -0.360D-03 -0.190D-03
Maxdispl :   0.0651   ||displ|| :   0.1051   Lambda : -0.298D-03
Largest |displ|/coords:  0.0651 (   3)  0.0295 (   1)  0.0230 (  19)
................................................................................
.............................. CYCLE   45 ......................................
................................................................................
   1    -50.7419902 -0.507420E+02  0.568E-02    9.02       0.0  T
   2    -50.7419921 -0.187486E-05  0.424E-02    9.02       1.0  T
   3    -50.7419931 -0.104122E-05  0.850E-03    9.02       2.3  T
   4    -50.7419934 -0.250202E-06  0.278E-03    9.02       7.1  T
   5    -50.7419934 -0.139496E-07  0.774E-04    9.02      25.3  T
speedup  0.80
cpu  time for SCC    0.00 s
wall time for SCC    0.01 s
speedup  0.98
cpu  time for grad    0.01 s
wall time for grad    0.01 s
 E :    -50.45410950  G :  0.007230    pred/act E change: -0.219D-03 -0.197D-03
Maxdispl :   0.1993   ||displ|| :   0.2854   Lambda : -0.314D-03
Largest |displ|/coords:  0.1993 (   3)  0.0815 (   1)  0.0690 (  16)
................................................................................
.............................. CYCLE   46 ......................................
................................................................................
   1    -50.7400593 -0.507401E+02  0.131E-01    9.00       0.0  T
   2    -50.7400638 -0.446872E-05  0.979E-02    8.99       1.0  T
   3    -50.7400661 -0.229005E-05  0.156E-02    8.98       1.3  T
   4    -50.7400668 -0.747583E-06  0.460E-03    8.98       4.3  T
   5    -50.7400668 -0.217247E-07  0.127E-03    8.98      15.4  T
   6    -50.7400668 -0.216292E-08  0.712E-04    8.98      27.5  T
speedup  1.02
cpu  time for SCC    0.01 s
wall time for SCC    0.01 s
speedup  0.99
cpu  time for grad    0.01 s
wall time for grad    0.01 s
 E :    -50.45433737  G :  0.009809    pred/act E change: -0.150D-03 -0.228D-03
Maxdispl :   0.2677   ||displ|| :   0.4031   Lambda : -0.446D-03
Largest |displ|/coords:  0.2677 (   3)  0.1202 (   1)  0.0996 (  10)
................................................................................
.............................. CYCLE   47 ......................................
................................................................................
   1    -50.7377037 -0.507377E+02  0.203E-01    8.96       0.0  T
   2    -50.7377140 -0.103118E-04  0.152E-01    8.95       1.0  T
   3    -50.7377197 -0.569460E-05  0.244E-02    8.94       1.0  T
   4    -50.7377213 -0.159610E-05  0.723E-03    8.94       2.7  T
   5    -50.7377214 -0.673941E-07  0.186E-03    8.94      10.6  T
   6    -50.7377214 -0.267783E-08  0.108E-03    8.94      18.2  T
speedup  0.85
cpu  time for SCC    0.00 s
wall time for SCC    0.01 s
speedup  0.99
cpu  time for grad    0.01 s
wall time for grad    0.01 s
 E :    -50.45461775  G :  0.014052    pred/act E change: -0.170D-03 -0.280D-03
Maxdispl :   0.1587   ||displ|| :   0.2880   Lambda : -0.478D-03
Largest |displ|/coords:  0.1587 (   3)  0.0987 (   1)  0.0702 (  14)
................................................................................
.............................. CYCLE   48 ......................................
................................................................................
   1    -50.7375500 -0.507375E+02  0.160E-01    8.95       0.0  T
   2    -50.7375543 -0.430979E-05  0.121E-01    8.95       1.0  T
   3    -50.7375585 -0.427191E-05  0.121E-02    8.94       1.6  T
   4    -50.7375589 -0.403172E-06  0.486E-03    8.95       4.0  T
   5    -50.7375590 -0.293825E-07  0.139E-03    8.95      14.2  T
   6    -50.7375590 -0.171742E-08  0.812E-04    8.95      24.2  T
speedup  1.02
cpu  time for SCC    0.01 s
wall time for SCC    0.01 s
speedup  0.99
cpu  time for grad    0.01 s
wall time for grad    0.01 s
 E :    -50.45492284  G :  0.016111    pred/act E change: -0.259D-03 -0.305D-03
Maxdispl :   0.1608   ||displ|| :   0.2457   Lambda : -0.462D-03
Largest |displ|/coords:  0.1608 (   3)  0.0709 (   1)  0.0697 (   6)
................................................................................
.............................. CYCLE   49 ......................................
................................................................................
   1    -50.7400344 -0.507400E+02  0.112E-01    8.99       0.0  T
   2    -50.7400372 -0.287150E-05  0.839E-02    8.99       1.0  T
   3    -50.7400392 -0.200312E-05  0.109E-02    8.99       1.8  T
   4    -50.7400397 -0.438366E-06  0.402E-03    8.99       4.9  T
   5    -50.7400397 -0.174073E-07  0.101E-03    8.99      19.4  T
   6    -50.7400397 -0.106398E-08  0.609E-04    8.99      32.2  T
speedup  1.03
cpu  time for SCC    0.01 s
wall time for SCC    0.01 s
speedup  0.99
cpu  time for grad    0.01 s
wall time for grad    0.01 s
 E :    -50.45527122  G :  0.014326    pred/act E change: -0.259D-03 -0.348D-03
Maxdispl :   0.1974   ||displ|| :   0.3189   Lambda : -0.655D-03
Largest |displ|/coords:  0.1974 (   3)  0.1034 (   1)  0.0856 (   6)
................................................................................
.............................. CYCLE   50 ......................................
................................................................................
   1    -50.7444931 -0.507445E+02  0.160E-01    9.02       0.0  T
   2    -50.7445027 -0.962614E-05  0.121E-01    9.02       1.0  T
   3    -50.7445081 -0.536569E-05  0.220E-02    9.02       1.0  T
   4    -50.7445096 -0.150076E-05  0.606E-03    9.03       3.2  T
   5    -50.7445097 -0.749767E-07  0.176E-03    9.03      11.2  T
   6    -50.7445097 -0.206197E-08  0.103E-03    9.03      19.0  T
speedup  1.02
cpu  time for SCC    0.01 s
wall time for SCC    0.01 s
speedup  0.99
cpu  time for grad    0.01 s
wall time for grad    0.01 s
 E :    -50.45566211  G :  0.008298    pred/act E change: -0.245D-03 -0.391D-03
Maxdispl :   0.3183   ||displ|| :   0.4485   Lambda : -0.454D-03
Largest |displ|/coords:  0.3183 (   3)  0.1516 (   1)  0.0926 (   6)
................................................................................
.............................. CYCLE   51 ......................................
................................................................................
   1    -50.7411707 -0.507412E+02  0.219E-01    9.03       0.0  T
   2    -50.7411808 -0.100427E-04  0.165E-01    9.03       1.0  T
   3    -50.7411881 -0.733679E-05  0.198E-02    9.03       1.0  T
   4    -50.7411896 -0.151151E-05  0.684E-03    9.03       2.9  T
   5    -50.7411897 -0.497368E-07  0.199E-03    9.03       9.8  T
   6    -50.7411897 -0.289896E-08  0.100E-03    9.03      19.5  T
speedup  1.02
cpu  time for SCC    0.01 s
wall time for SCC    0.01 s
speedup  0.99
cpu  time for grad    0.01 s
wall time for grad    0.01 s
 E :    -50.45577983  G :  0.014467    pred/act E change: -0.361D-03 -0.118D-03
Maxdispl :   0.0679   ||displ|| :   0.1625   Lambda : -0.428D-03
Largest |displ|/coords:  0.0679 (   3)  0.0678 (   5)  0.0551 (   6)
................................................................................
.............................. CYCLE   52 ......................................
................................................................................
   1    -50.7480978 -0.507481E+02  0.943E-02    9.15       0.0  T
   2    -50.7481032 -0.540443E-05  0.689E-02    9.15       1.0  T
   3    -50.7481057 -0.256472E-05  0.178E-02    9.15       1.1  T
   4    -50.7481064 -0.624444E-06  0.455E-03    9.16       4.3  T
   5    -50.7481064 -0.339348E-07  0.126E-03    9.16      15.6  T
   6    -50.7481064 -0.208058E-08  0.692E-04    9.16      28.3  T
speedup  1.02
cpu  time for SCC    0.01 s
wall time for SCC    0.01 s
speedup  0.99
cpu  time for grad    0.01 s
wall time for grad    0.01 s
 E :    -50.45588011  G :  0.011902    pred/act E change: -0.273D-03 -0.100D-03
Maxdispl :   0.0715   ||displ|| :   0.1516   Lambda : -0.355D-03
Largest |displ|/coords:  0.0715 (   3)  0.0674 (   6)  0.0539 (   1)

generating ANC from model Hessian ...
 Shifting diagonal of input Hessian by   4.965350599502380E-003
 Lowest  eigenvalues of input Hessian
   -0.000000   -0.000000    0.000000    0.000000    0.000000    0.000000
    0.005000    0.005370    0.005911    0.006180    0.006858    0.007675
    0.007895    0.008505    0.008944    0.009223    0.010836    0.011452
 Highest eigenvalues
    1.402346    1.402922    1.462308    2.658888    3.483176    3.540152
 
cpu  time for ANC gen    0.02 s
wall time for ANC gen    0.02 s
................................................................................
.............................. CYCLE   53 ......................................
................................................................................
   1    -50.7456716 -0.507457E+02  0.859E-02    9.05       0.0  T
   2    -50.7456810 -0.933461E-05  0.605E-02    9.05       1.0  T
   3    -50.7456844 -0.347424E-05  0.228E-02    9.04       1.0  T
   4    -50.7456851 -0.614922E-06  0.445E-03    9.04       4.4  T
   5    -50.7456851 -0.467167E-07  0.149E-03    9.04      13.2  T
   6    -50.7456851 -0.376056E-08  0.756E-04    9.04      26.0  T
   7    -50.7456851 -0.138309E-08  0.283E-04    9.04      69.2  T
speedup  0.86
cpu  time for SCC    0.01 s
wall time for SCC    0.01 s
speedup  0.93
cpu  time for grad    0.01 s
wall time for grad    0.02 s
 E :    -50.45596097  G :  0.008207    pred/act E change:  0.000D+00 -0.809D-04
Maxdispl :   0.0490   ||displ|| :   0.1135   Lambda : -0.220D-03
Largest |displ|/coords:  0.0490 (   8)  0.0457 (   1)  0.0337 (   3)
................................................................................
.............................. CYCLE   54 ......................................
................................................................................
   1    -50.7449319 -0.507449E+02  0.645E-02    9.04       0.0  T
   2    -50.7449329 -0.978006E-06  0.481E-02    9.04       1.0  T
   3    -50.7449336 -0.706993E-06  0.676E-03    9.04       2.9  T
   4    -50.7449337 -0.130859E-06  0.208E-03    9.04       9.4  T
   5    -50.7449337 -0.554524E-08  0.666E-04    9.04      29.4  T
speedup  1.02
cpu  time for SCC    0.00 s
wall time for SCC    0.00 s
speedup  0.98
cpu  time for grad    0.01 s
wall time for grad    0.01 s
 E :    -50.45612507  G :  0.003972    pred/act E change:  0.000D+00 -0.164D-03
Maxdispl :   0.0968   ||displ|| :   0.1937   Lambda : -0.198D-03
Largest |displ|/coords:  0.0968 (   3)  0.0901 (   8)  0.0830 (   1)
................................................................................
.............................. CYCLE   55 ......................................
................................................................................
   1    -50.7438100 -0.507438E+02  0.101E-01    9.03       0.0  T
   2    -50.7438118 -0.174302E-05  0.750E-02    9.03       1.0  T
   3    -50.7438130 -0.124527E-05  0.878E-03    9.03       2.2  T
   4    -50.7438132 -0.226685E-06  0.272E-03    9.03       7.2  T
   5    -50.7438132 -0.916682E-08  0.920E-04    9.03      21.3  T
   6    -50.7438132 -0.106220E-08  0.451E-04    9.03      43.5  T
speedup  1.02
cpu  time for SCC    0.01 s
wall time for SCC    0.01 s
speedup  1.02
cpu  time for grad    0.01 s
wall time for grad    0.01 s
 E :    -50.45623291  G :  0.005596    pred/act E change: -0.111D-03 -0.108D-03
Maxdispl :   0.0708   ||displ|| :   0.1043   Lambda : -0.659D-04
Largest |displ|/coords:  0.0708 (   3)  0.0446 (   1)  0.0355 (   2)
................................................................................
.............................. CYCLE   56 ......................................
................................................................................
   1    -50.7440517 -0.507441E+02  0.566E-02    9.04       0.0  T
   2    -50.7440523 -0.618260E-06  0.428E-02    9.04       1.0  T
   3    -50.7440529 -0.594347E-06  0.459E-03    9.04       4.3  T
   4    -50.7440530 -0.659113E-07  0.147E-03    9.04      13.4  T
   5    -50.7440530 -0.277033E-08  0.479E-04    9.04      40.9  T
speedup  1.00
cpu  time for SCC    0.00 s
wall time for SCC    0.00 s
speedup  0.98
cpu  time for grad    0.01 s
wall time for grad    0.01 s
 E :    -50.45627571  G :  0.004386    pred/act E change: -0.103D-03 -0.428D-04
Maxdispl :   0.1305   ||displ|| :   0.1927   Lambda : -0.101D-03
Largest |displ|/coords:  0.1305 (   3)  0.0858 (   1)  0.0468 (   8)
................................................................................
.............................. CYCLE   57 ......................................
................................................................................
   1    -50.7448178 -0.507448E+02  0.903E-02    9.06       0.0  T
   2    -50.7448189 -0.111129E-05  0.678E-02    9.06       1.0  T
   3    -50.7448199 -0.946807E-06  0.641E-03    9.06       3.1  T
   4    -50.7448200 -0.145580E-06  0.223E-03    9.06       8.8  T
   5    -50.7448200 -0.549355E-08  0.726E-04    9.06      27.0  T
speedup  1.04
cpu  time for SCC    0.00 s
wall time for SCC    0.00 s
speedup  0.99
cpu  time for grad    0.01 s
wall time for grad    0.01 s
 E :    -50.45633909  G :  0.002718    pred/act E change: -0.333D-04 -0.634D-04
Maxdispl :   0.1362   ||displ|| :   0.1855   Lambda : -0.593D-04
Largest |displ|/coords:  0.1362 (   3)  0.0591 (   1)  0.0543 (   8)
................................................................................
.............................. CYCLE   58 ......................................
................................................................................
   1    -50.7449124 -0.507449E+02  0.827E-02    9.07       0.0  T
   2    -50.7449135 -0.108367E-05  0.624E-02    9.07       1.0  T
   3    -50.7449146 -0.112529E-05  0.589E-03    9.07       3.3  T
   4    -50.7449147 -0.111935E-06  0.220E-03    9.07       8.9  T
   5    -50.7449147 -0.493459E-08  0.719E-04    9.07      27.3  T
   6    -50.7449147 -0.650061E-09  0.329E-04    9.07      59.6  T
speedup  1.02
cpu  time for SCC    0.01 s
wall time for SCC    0.01 s
speedup  0.95
cpu  time for grad    0.01 s
wall time for grad    0.01 s
 E :    -50.45638252  G :  0.003784    pred/act E change: -0.526D-04 -0.434D-04
Maxdispl :   0.2494   ||displ|| :   0.3112   Lambda : -0.860D-04
Largest |displ|/coords:  0.2494 (   3)  0.0866 (   6)  0.0850 (   1)
................................................................................
.............................. CYCLE   59 ......................................
................................................................................
   1    -50.7447014 -0.507447E+02  0.138E-01    9.07       0.0  T
   2    -50.7447049 -0.344315E-05  0.105E-01    9.08       1.0  T
   3    -50.7447089 -0.400352E-05  0.989E-03    9.08       2.0  T
   4    -50.7447091 -0.283354E-06  0.408E-03    9.08       4.8  T
   5    -50.7447092 -0.195599E-07  0.131E-03    9.08      15.0  T
   6    -50.7447092 -0.233373E-08  0.672E-04    9.08      29.2  T
   7    -50.7447092 -0.109640E-08  0.164E-04    9.08     119.9  T
speedup  1.03
cpu  time for SCC    0.01 s
wall time for SCC    0.01 s
speedup  1.02
cpu  time for grad    0.02 s
wall time for grad    0.02 s
 E :    -50.45644992  G :  0.005715    pred/act E change: -0.307D-04 -0.674D-04
Maxdispl :   0.3558   ||displ|| :   0.4387   Lambda : -0.134D-03
Largest |displ|/coords:  0.3558 (   3)  0.1317 (   6)  0.0999 (  14)
................................................................................
.............................. CYCLE   60 ......................................
................................................................................
   1    -50.7439974 -0.507440E+02  0.197E-01    9.06       0.0  T
   2    -50.7440046 -0.712850E-05  0.149E-01    9.06       1.0  T
   3    -50.7440135 -0.895444E-05  0.141E-02    9.07       1.4  T
   4    -50.7440139 -0.437407E-06  0.567E-03    9.07       3.5  T
   5    -50.7440140 -0.412476E-07  0.194E-03    9.07      10.1  T
   6    -50.7440140 -0.507561E-08  0.105E-03    9.07      18.7  T
speedup  1.02
cpu  time for SCC    0.01 s
wall time for SCC    0.01 s
speedup  0.99
cpu  time for grad    0.01 s
wall time for grad    0.01 s
 E :    -50.45654980  G :  0.008329    pred/act E change: -0.472D-04 -0.999D-04
Maxdispl :   0.2788   ||displ|| :   0.3631   Lambda : -0.177D-03
Largest |displ|/coords:  0.2788 (   3)  0.1286 (   6)  0.0997 (  14)
................................................................................
.............................. CYCLE   61 ......................................
................................................................................
   1    -50.7450220 -0.507450E+02  0.156E-01    9.05       0.0  T
   2    -50.7450276 -0.563452E-05  0.117E-01    9.05       1.0  T
   3    -50.7450345 -0.690211E-05  0.136E-02    9.05       1.4  T
   4    -50.7450349 -0.366520E-06  0.518E-03    9.05       3.8  T
   5    -50.7450349 -0.436196E-07  0.177E-03    9.05      11.1  T
   6    -50.7450349 -0.402537E-08  0.104E-03    9.05      18.8  T
speedup  1.02
cpu  time for SCC    0.01 s
wall time for SCC    0.01 s
speedup  0.98
cpu  time for grad    0.01 s
wall time for grad    0.01 s
 E :    -50.45667470  G :  0.010166    pred/act E change: -0.796D-04 -0.125D-03
Maxdispl :   0.2538   ||displ|| :   0.3841   Lambda : -0.274D-03
Largest |displ|/coords:  0.2538 (   3)  0.1638 (   6)  0.1188 (  14)
................................................................................
.............................. CYCLE   62 ......................................
................................................................................
   1    -50.7429879 -0.507430E+02  0.204E-01    9.01       0.0  T
   2    -50.7429972 -0.921739E-05  0.153E-01    9.01       1.0  T
   3    -50.7430079 -0.107463E-04  0.184E-02    9.01       1.1  T
   4    -50.7430086 -0.680114E-06  0.671E-03    9.01       2.9  T
   5    -50.7430087 -0.652771E-07  0.230E-03    9.01       8.5  T
   6    -50.7430087 -0.584498E-08  0.132E-03    9.01      14.9  T
speedup  1.00
cpu  time for SCC    0.01 s
wall time for SCC    0.01 s
speedup  1.04
cpu  time for grad    0.01 s
wall time for grad    0.01 s
 E :    -50.45684946  G :  0.012354    pred/act E change: -0.100D-03 -0.175D-03
Maxdispl :   0.2351   ||displ|| :   0.4019   Lambda : -0.569D-03
Largest |displ|/coords:  0.2351 (   1)  0.1893 (   8)  0.1002 (   3)
................................................................................
.............................. CYCLE   63 ......................................
................................................................................
   1    -50.7508124 -0.507508E+02  0.154E-01    9.06       0.0  T
   2    -50.7508290 -0.166863E-04  0.111E-01    9.06       1.0  T
   3    -50.7508374 -0.837586E-05  0.257E-02    9.05       1.0  T
   4    -50.7508392 -0.178033E-05  0.676E-03    9.05       2.9  T
   5    -50.7508393 -0.105244E-06  0.247E-03    9.05       8.0  T
   6    -50.7508393 -0.859437E-08  0.132E-03    9.05      14.9  T
speedup  1.00
cpu  time for SCC    0.01 s
wall time for SCC    0.01 s
speedup  1.03
cpu  time for grad    0.01 s
wall time for grad    0.01 s
 E :    -50.45677429  G :  0.024132    pred/act E change: -0.157D-03  0.752D-04
Maxdispl :   0.1917   ||displ|| :   0.2538   Lambda : -0.782D-03
Largest |displ|/coords:  0.1917 (   3)  0.1130 (   6)  0.0517 (   1)
................................................................................
.............................. CYCLE   64 ......................................
................................................................................
   1    -50.7447796 -0.507448E+02  0.157E-01    9.00       0.0  T
   2    -50.7447876 -0.792820E-05  0.117E-01    9.00       1.0  T
   3    -50.7447935 -0.590536E-05  0.167E-02    9.00       1.2  T
   4    -50.7447945 -0.107246E-05  0.489E-03    9.00       4.0  T
   5    -50.7447946 -0.477232E-07  0.194E-03    8.99      10.1  T
speedup  1.00
cpu  time for SCC    0.00 s
wall time for SCC    0.01 s
speedup  0.98
cpu  time for grad    0.01 s
wall time for grad    0.01 s
 E :    -50.45721084  G :  0.015432    pred/act E change: -0.331D-03 -0.437D-03
Maxdispl :   0.0982   ||displ|| :   0.2060   Lambda : -0.492D-03
Largest |displ|/coords:  0.0982 (   8)  0.0868 (   3)  0.0660 (   1)
................................................................................
.............................. CYCLE   65 ......................................
................................................................................
   1    -50.7430253 -0.507430E+02  0.113E-01    8.98       0.0  T
   2    -50.7430325 -0.722483E-05  0.831E-02    8.99       1.0  T
   3    -50.7430350 -0.249907E-05  0.179E-02    9.01       1.1  T
   4    -50.7430361 -0.112016E-05  0.361E-03    9.01       5.4  T
   5    -50.7430361 -0.232966E-07  0.136E-03    9.00      14.4  T
   6    -50.7430361 -0.179399E-08  0.622E-04    9.00      31.5  T
speedup  1.02
cpu  time for SCC    0.01 s
wall time for SCC    0.01 s
speedup  0.99
[...]
Largest |displ|/coords:  0.0222 (   1)  0.0111 (   3)  0.0095 (   2)
................................................................................
.............................. CYCLE  135 ......................................
................................................................................
   1    -50.7515608 -0.507516E+02  0.174E-02    9.13       0.0  T
   2    -50.7515609 -0.343744E-07  0.131E-02    9.13       1.5  T
   3    -50.7515609 -0.422825E-07  0.942E-04    9.13      20.8  T
   4    -50.7515609 -0.207488E-08  0.436E-04    9.13      44.9  T
speedup  1.22
cpu  time for SCC    0.00 s
wall time for SCC    0.00 s
speedup  0.92
cpu  time for grad    0.01 s
wall time for grad    0.01 s
 E :    -50.46076888  G :  0.000464    pred/act E change: -0.657D-06 -0.119D-05
Maxdispl :   0.0433   ||displ|| :   0.0541   Lambda : -0.160D-05
Largest |displ|/coords:  0.0433 (   1)  0.0150 (   2)  0.0107 (  17)
................................................................................
.............................. CYCLE  136 ......................................
................................................................................
   1    -50.7515062 -0.507515E+02  0.287E-02    9.13       0.0  T
   2    -50.7515062 -0.940584E-07  0.217E-02    9.13       1.0  T
   3    -50.7515064 -0.124952E-06  0.141E-03    9.13      13.9  T
   4    -50.7515064 -0.433913E-08  0.731E-04    9.13      26.8  T
   5    -50.7515064 -0.495206E-09  0.187E-04    9.13     104.6  T
speedup  1.02
cpu  time for SCC    0.00 s
wall time for SCC    0.00 s
speedup  1.01
cpu  time for grad    0.01 s
wall time for grad    0.01 s
 E :    -50.46077002  G :  0.000740    pred/act E change: -0.804D-06 -0.114D-05
Maxdispl :   0.0187   ||displ|| :   0.0407   Lambda : -0.190D-05
Largest |displ|/coords:  0.0187 (   1)  0.0174 (   2)  0.0156 (   6)
................................................................................
.............................. CYCLE  137 ......................................
................................................................................
   1    -50.7516268 -0.507516E+02  0.212E-02    9.13       0.0  T
   2    -50.7516268 -0.658800E-07  0.159E-02    9.13       1.2  T
   3    -50.7516269 -0.754675E-07  0.175E-03    9.13      11.2  T
   4    -50.7516269 -0.480949E-08  0.560E-04    9.13      35.0  T
   5    -50.7516269 -0.387764E-09  0.184E-04    9.13     106.3  T
speedup  1.00
cpu  time for SCC    0.00 s
wall time for SCC    0.01 s
speedup  0.94
cpu  time for grad    0.01 s
wall time for grad    0.01 s
 E :    -50.46077104  G :  0.000712    pred/act E change: -0.804D-06 -0.102D-05
Maxdispl :   0.0609   ||displ|| :   0.0728   Lambda : -0.156D-05
Largest |displ|/coords:  0.0609 (   1)  0.0208 (   2)  0.0124 (  17)
................................................................................
.............................. CYCLE  138 ......................................
................................................................................
   1    -50.7514778 -0.507515E+02  0.382E-02    9.12       0.0  T
   2    -50.7514780 -0.162540E-06  0.289E-02    9.12       1.0  T
   3    -50.7514782 -0.219733E-06  0.194E-03    9.12      10.1  T
   4    -50.7514782 -0.681418E-08  0.882E-04    9.12      22.2  T
   5    -50.7514782 -0.810935E-09  0.298E-04    9.12      65.9  T
speedup  1.02
cpu  time for SCC    0.00 s
wall time for SCC    0.00 s
speedup  1.01
cpu  time for grad    0.01 s
wall time for grad    0.01 s
 E :    -50.46077180  G :  0.001047    pred/act E change: -0.952D-06 -0.753D-06
Maxdispl :   0.0054   ||displ|| :   0.0082   Lambda : -0.125D-05
Largest |displ|/coords:  0.0054 (   3)  0.0032 (  13)  0.0025 (   4)
................................................................................
.............................. CYCLE  139 ......................................
................................................................................
   1    -50.7516189 -0.507516E+02  0.610E-03    9.12       0.0  T
   2    -50.7516189 -0.968381E-08  0.442E-03    9.12       4.4  T
   3    -50.7516190 -0.603432E-08  0.896E-04    9.12      21.9  T
   4    -50.7516190 -0.100194E-08  0.238E-04    9.12      82.4  T
speedup  0.98
cpu  time for SCC    0.00 s
wall time for SCC    0.00 s
speedup  1.00
cpu  time for grad    0.01 s
wall time for grad    0.01 s
 E :    -50.46077268  G :  0.000512    pred/act E change: -0.784D-06 -0.884D-06
Maxdispl :   0.0315   ||displ|| :   0.0404   Lambda : -0.952D-06
Largest |displ|/coords:  0.0315 (   1)  0.0121 (   2)  0.0080 (   9)
................................................................................
.............................. CYCLE  140 ......................................
................................................................................
   1    -50.7516795 -0.507517E+02  0.224E-02    9.11       0.0  T
   2    -50.7516796 -0.600642E-07  0.168E-02    9.11       1.2  T
   3    -50.7516797 -0.636034E-07  0.182E-03    9.11      10.8  T
   4    -50.7516797 -0.521769E-08  0.573E-04    9.11      34.2  T
   5    -50.7516797 -0.404476E-09  0.181E-04    9.11     108.2  T
speedup  0.82
cpu  time for SCC    0.00 s
wall time for SCC    0.00 s
speedup  0.94
cpu  time for grad    0.01 s
wall time for grad    0.01 s
 E :    -50.46077328  G :  0.000402    pred/act E change: -0.627D-06 -0.598D-06
Maxdispl :   0.0170   ||displ|| :   0.0223   Lambda : -0.397D-06
Largest |displ|/coords:  0.0170 (   1)  0.0073 (   2)  0.0046 (  17)
................................................................................
.............................. CYCLE  141 ......................................
................................................................................
   1    -50.7517169 -0.507517E+02  0.119E-02    9.11       0.0  T
   2    -50.7517169 -0.181473E-07  0.891E-03    9.11       2.2  T
   3    -50.7517169 -0.180308E-07  0.980E-04    9.11      20.0  T
   4    -50.7517169 -0.185005E-08  0.326E-04    9.11      60.2  T
speedup  0.98
cpu  time for SCC    0.00 s
wall time for SCC    0.00 s
speedup  1.00
cpu  time for grad    0.01 s
wall time for grad    0.01 s
 E :    -50.46077360  G :  0.000289    pred/act E change: -0.477D-06 -0.316D-06
Maxdispl :   0.0276   ||displ|| :   0.0356   Lambda : -0.429D-06
Largest |displ|/coords:  0.0276 (   1)  0.0107 (   2)  0.0073 (  17)
................................................................................
.............................. CYCLE  142 ......................................
................................................................................
   1    -50.7517415 -0.507517E+02  0.191E-02    9.11       0.0  T
   2    -50.7517416 -0.413201E-07  0.144E-02    9.11       1.4  T
   3    -50.7517416 -0.483385E-07  0.127E-03    9.11      15.5  T
   4    -50.7517416 -0.312871E-08  0.502E-04    9.11      39.0  T
   5    -50.7517416 -0.255007E-09  0.141E-04    9.11     139.6  T
speedup  1.00
cpu  time for SCC    0.00 s
wall time for SCC    0.00 s
speedup  1.01
cpu  time for grad    0.01 s
wall time for grad    0.01 s
 E :    -50.46077391  G :  0.000297    pred/act E change: -0.199D-06 -0.318D-06
Maxdispl :   0.0234   ||displ|| :   0.0304   Lambda : -0.277D-06
Largest |displ|/coords:  0.0234 (   1)  0.0105 (   2)  0.0063 (  10)
................................................................................
.............................. CYCLE  143 ......................................
................................................................................
   1    -50.7517468 -0.507517E+02  0.157E-02    9.11       0.0  T
   2    -50.7517468 -0.269540E-07  0.118E-02    9.11       1.7  T
   3    -50.7517469 -0.323766E-07  0.968E-04    9.11      20.3  T
   4    -50.7517469 -0.189165E-08  0.411E-04    9.11      47.8  T
speedup  1.00
cpu  time for SCC    0.00 s
wall time for SCC    0.00 s
speedup  0.97
cpu  time for grad    0.01 s
wall time for grad    0.01 s
 E :    -50.46077411  G :  0.000254    pred/act E change: -0.215D-06 -0.192D-06
Maxdispl :   0.0016   ||displ|| :   0.0033   Lambda : -0.127D-06
Largest |displ|/coords:  0.0016 (   5)  0.0012 (  11)  0.0011 (  13)
................................................................................
.............................. CYCLE  144 ......................................
................................................................................
   1    -50.7517799 -0.507518E+02  0.255E-03    9.11       0.0  T
   2    -50.7517799 -0.185845E-08  0.192E-03    9.11      10.2  T
   3    -50.7517799 -0.126619E-08  0.252E-04    9.11      77.9  T
   4    -50.7517799 -0.284757E-09  0.835E-05    9.11     234.9  T
speedup  0.98
cpu  time for SCC    0.00 s
wall time for SCC    0.00 s
speedup  1.00
cpu  time for grad    0.01 s
wall time for grad    0.01 s
 E :    -50.46077419  G :  0.000154    pred/act E change: -0.139D-06 -0.835D-07
Maxdispl :   0.0314   ||displ|| :   0.0395   Lambda : -0.289D-06
Largest |displ|/coords:  0.0314 (   1)  0.0111 (   2)  0.0083 (   5)

   *** GEOMETRY OPTIMIZATION CONVERGED AFTER 144 ITERATIONS ***

------------------------------------------------------------------------
 total energy gain (kcal):     -0.1016
------------------------------------------------------------------------
================
 final structure:
================
$coord
       -0.46741375584592        3.13111568189871       -2.50396804045167      S 
        1.16065996195900        3.10691282932188       -0.28700701070652      O 
       -0.23451621797770        0.82318094221670       -3.96148872233620      O 
       -3.06356879084444        3.73230627243800       -1.82978185579836      O 
        0.48702931298938        5.32247431567409       -4.30260384781644      O 
        1.45199350556112        4.43206592032413       -5.53339846471768      H 
        1.41037089610142       -2.59128876544710        3.57151270565181      O 
        1.76040428696087       -4.32036887338277        3.97757984975750      H 
        4.48344979957356       -0.75996772033525       -0.41901809264897      O 
        4.18340325450097       -1.30505505237400        1.29775218164471      H 
        3.40664785488966        0.72200808776259       -0.62028219876994      H 
        2.39529482516353       -4.74007269183135       -2.86626536822381      O 
        2.09455467910777       -4.16624685421980       -4.55918382098685      H 
        3.39061865664018       -3.38127374499518       -2.07625447540895      H 
       -1.53772704754416       -2.62596487540317       -0.61994766488597      O 
        0.34187255121163       -2.61206838301853        2.04936134169765      H 
       -1.20404869412748       -1.25365322695254       -1.83083987291241      H 
       -0.47485355090799       -3.97622711585816       -1.32896118428055      H 
       -0.18513692495447        2.23119239475127        4.48554530214347      O 
        0.52944350660196        2.91936854232965        2.92040227798628      H 
       -2.73097441756753        1.45680056184224        3.30077151380397      H 
        0.67822068942322        0.62967232112784        4.72074578529769      H 
       -4.19145426109533        0.90996126011563        1.98063904229009      N 
       -3.97041027745404        2.18721997236010        0.42230781330173      H 
       -5.95442910395218        0.98423502528219        2.72678593419236      H 
       -3.75943073839716       -0.85632686118771        1.28559689099486      H 
$end
 
 Bond Distances (Angstroems)
 ---------------------------
S1-O2=1.4556         S1-O3=1.4497         S1-O4=1.4546         S1-O5=1.5829         O2-S1=1.4556         O3-S1=1.4497         
O4-S1=1.4546         O5-S1=1.5829         O5-H6=0.9523         H6-O5=0.9523         O7-H8=0.9580         O7-H16=0.9842        
H8-O7=0.9580         O9-H10=0.9663        O9-H11=0.9752        H10-O9=0.9663        H11-O9=0.9752        O12-H13=0.9592       
O12-H14=0.9845       H13-O12=0.9592       H14-O12=0.9845       O15-H17=0.9844       O15-H18=0.9837       H16-O7=0.9842        
H17-O15=0.9844       H18-O15=0.9837       O19-H20=0.9806       O19-H22=0.9708       H20-O19=0.9806       H21-N23=1.0812       
H22-O19=0.9708       N23-H21=1.0812       N23-H24=1.0726       N23-H25=1.0138       N23-H26=1.0301       H24-N23=1.0726       
H25-N23=1.0138       H26-N23=1.0301       
 N  H  Rav=1.0494 sigma=0.0282  Rmin=1.0138  Rmax=1.0812     4
 O  H  Rav=0.9727 sigma=0.0115  Rmin=0.9523  Rmax=0.9845    11
 S  O  Rav=1.4857 sigma=0.0562  Rmin=1.4497  Rmax=1.5829     4
 
 selected bond angles (degree)
 --------------------
O3-S1-O2=111.78                O4-S1-O2=111.30                O4-S1-O3=113.27                O5-S1-O2=107.59                
O5-S1-O3=105.67                O5-S1-O4=106.77                H6-O5-S1=102.70                H16-O7-H8=106.50               
H11-O9-H10=104.28              
 
 selected dihedral angles (degree)
 ---------------------------------
H6-O5-S1-O2=100.10            H6-O5-S1-O3=340.54            H6-O5-S1-O4=219.67            
 
 CMA Distance (Angstroems)
 ---------------------------
R(CMA):  3.0660

========================================================================
 FINAL SINGLEPOINT CALCULATION ON OPTIMIZED GEOMETRY
========================================================================

 Ncao       : 65
 Nao        : 64
 Nshell     : 38
 Nel        : 80
 T(el)      :   300.0
 intcut     :    25.0
 scfconv/Eh :  0.100E-05
   qconv/e  :  0.100E-03
 intneglect :  0.100E-07
 broydamp   :      0.250
 iter      E             dE          RMSdq      gap      omega  full diag
   1    -50.7517799 -0.507518E+02  0.292E-05    9.11       0.0  T
   2    -50.7517799 -0.888178E-12  0.186E-05    9.11    1054.2  T
   3    -50.7517799 -0.454747E-12  0.478E-06    9.11    4101.4  T
speedup  1.00
cpu  time for SCC    0.00 s
wall time for SCC    0.00 s

   *** convergence criteria satisfied after 3 iterations ***

          eigenvalues
 #    :          28         29         30         31         32         33         34         35
 occ. :        2.000      2.000      2.000      2.000      2.000      2.000      2.000      2.000
 eps  :       -13.461    -13.386    -12.557    -12.359    -12.335    -12.272    -12.245    -12.150
 #    :          36         37         38         39         40         41         42         43
 occ. :        2.000      2.000      2.000      2.000      2.000      0.000      0.000      0.000
 eps  :       -12.030    -12.018    -11.771    -11.672    -11.538     -2.433     -1.065     -0.485
 #    :          44         45         46         47         48         49         50         51
 occ. :        0.000      0.000      0.000      0.000      0.000      0.000      0.000      0.000
 eps  :         0.644      0.903      1.212      2.042      3.320      4.050      4.576      4.835


   #   Z            q   n(s)   n(p)   n(d)      C6AA      α(0)
   1  16 S      1.670  1.585  1.792  0.952    89.442    15.917
   2   8 O     -0.748  1.767  4.981  0.000    30.063     7.351
   3   8 O     -0.747  1.772  4.975  0.000    30.034     7.348
   4   8 O     -0.715  1.762  4.953  0.000    29.116     7.235
   5   8 O     -0.585  1.750  4.835  0.000    24.796     6.722
   6   1 H      0.350  0.650  0.000  0.000     0.581     1.193
   7   8 O     -0.631  1.750  4.881  0.000    25.931     6.873
   8   1 H      0.285  0.715  0.000  0.000     0.767     1.376
   9   8 O     -0.624  1.753  4.871  0.000    25.766     6.851
  10   1 H      0.306  0.694  0.000  0.000     0.704     1.318
  11   1 H      0.312  0.688  0.000  0.000     0.687     1.302
  12   8 O     -0.615  1.752  4.862  0.000    25.541     6.821
  13   1 H      0.284  0.716  0.000  0.000     0.771     1.379
  14   1 H      0.329  0.671  0.000  0.000     0.640     1.256
  15   8 O     -0.669  1.759  4.910  0.000    26.897     6.999
  16   1 H      0.332  0.668  0.000  0.000     0.633     1.250
  17   1 H      0.317  0.683  0.000  0.000     0.672     1.288
  18   1 H      0.332  0.668  0.000  0.000     0.633     1.250
  19   8 O     -0.601  1.752  4.850  0.000    25.213     6.777
  20   1 H      0.335  0.665  0.000  0.000     0.625     1.242
  21   1 H      0.302  0.698  0.000  0.000     0.706     1.316
  22   1 H      0.329  0.671  0.000  0.000     0.639     1.256
  23   7 N     -0.353  1.276  4.076  0.000    29.063     8.007
  24   1 H      0.297  0.703  0.000  0.000     0.720     1.329
  25   1 H      0.232  0.768  0.000  0.000     0.959     1.534
  26   1 H      0.275  0.725  0.000  0.000     0.791     1.394

 Mol. C6AA /au·bohr⁶  :       5449.207257
 Mol. C8AA /au·bohr⁸  :     117972.688557
 Mol. α(0) /au        :        106.584251

 
 Wiberg/Mayer (AO) data. WBOs > 0.1 written file <wbo>
 largest (>0.05) Wiberg bond orders for each atom
           total WBO             WBO to atom ...
     1  S   4.858    O    3 1.319    O    4 1.305    O    2 1.295    O    5 0.900
     2  O   1.719    S    1 1.295    O    4 0.110    O    3 0.110    O    5 0.072
     3  O   1.717    S    1 1.319    O    2 0.110    O    4 0.109    O    5 0.077    H   17 0.064
     4  O   1.772    S    1 1.305    H   24 0.127    O    2 0.110    O    3 0.109    O    5 0.062    N   23 0.051
     5  O   1.978    S    1 0.900    H    6 0.860    O    3 0.077    O    2 0.072    O    4 0.062
     6  H   0.877    O    5 0.860
     7  O   1.839    H    8 0.911    H   16 0.821
     8  H   0.919    O    7 0.911
     9  O   1.865    H   10 0.883    H   11 0.852    H   14 0.061
    10  H   0.907    O    9 0.883
    11  H   0.903    O    9 0.852
    12  O   1.867    H   13 0.917    H   14 0.828    H   18 0.058
    13  H   0.919    O   12 0.917
    14  H   0.892    O   12 0.828    O    9 0.061
    15  O   1.857    H   17 0.825    H   18 0.819    H   16 0.064
    16  H   0.890    O    7 0.821    O   15 0.064
    17  H   0.899    O   15 0.825    O    3 0.064
    18  H   0.890    O   15 0.819    O   12 0.058
    19  O   1.964    H   22 0.860    H   20 0.837    H   21 0.150    N   23 0.070
    20  H   0.888    O   19 0.837
    21  H   0.908    N   23 0.754    O   19 0.150
    22  H   0.891    O   19 0.860
    23  N   3.513    H   25 0.943    H   26 0.880    H   24 0.776    H   21 0.754    O   19 0.070    O    4 0.051
    24  H   0.912    N   23 0.776    O    4 0.127
    25  H   0.946    N   23 0.943
    26  H   0.924    N   23 0.880
 MOs/occ written to file <molden.input>
 
molecular dipole:
                 x           y           z       tot (Debye)
 q only:       -1.493      -0.844       1.333
   full:       -1.255      -0.697       0.603       3.958
molecular quadrupole (traceless):
                xx          xy          yy          xz          yz          zz
 q only:        7.162       3.152     -10.779     -10.072      -3.012       3.617
  q+dip:        5.335       4.597     -10.718      -9.634      -7.070       5.383
   full:        4.721       4.426     -10.430      -9.927      -7.633       5.709

SCC energy    :     -50.7517799
rep           :       0.2906599
ES            :       0.2688346
AES           :      -0.0738934
AXC           :      -0.0083589
disp          :      -0.0199632
XB            :       0.0000000
fix           :       0.0000000
total E       :     -50.4607742
atomizationE  :       4.9910784     3131.95
(atE without considering molecular charge,
 total energy contains solvation terms)
H-L gap (eV)  :          9.1053
optimized geometry written to: xtbopt.xyz


------------------------------------------------------------------------
 * finished run on 2019/09/16 at 11:22:43.846     
------------------------------------------------------------------------
 total:
 * wall-time:     0 d,  0 h,  0 min,  4.442 sec
 *  cpu-time:     0 d,  0 h,  0 min,  4.408 sec
 * ratio c/w:     0.993 speedup
 SCF:
 * wall-time:     0 d,  0 h,  0 min,  0.509 sec
 *  cpu-time:     0 d,  0 h,  0 min,  0.502 sec
 * ratio c/w:     0.986 speedup
 ANC optimizer:
 * wall-time:     0 d,  0 h,  0 min,  3.878 sec
 *  cpu-time:     0 d,  0 h,  0 min,  3.855 sec
 * ratio c/w:     0.994 speedup

