      -----------------------------------------------------------      
     |                   =====================                   |     
     |                           x T B                           |     
     |                   =====================                   |     
     |                         S. Grimme                         |     
     |          Mulliken Center for Theoretical Chemistry        |     
     |                    University of Bonn                     |     
     |                 Version 6.0.1 (SAW181210)                 |     
      -----------------------------------------------------------      

   This program is distributed in the hope that it will be useful,
   but WITHOUT ANY WARRANTY; without even the implied warranty of
   MERCHANTABILITY or FITNESS FOR A PARTICULAR PURPOSE.
   
   FOR NON-COMMERCIAL, ACADEMIA USE ONLY.
   
   Cite this work as:
   S. Grimme, C. Bannwarth, P. Shushkov, J. Comput. Theory Chem., 2017,
   13, 1989-2009.
   C. Bannwarth, S. Ehlert and S. Grimme., ChemRxiv, 2018, preprint.
   http://doi.org/10.26434/chemrxiv.7246238.v1
   
   for sTDA-xTB:
   S. Grimme and C. Bannwarth, J. Chem. Phys., 2016, 145, 054103.
   
   in the mass-spec context:
   V. Asgeirsson, C. Bauer and S. Grimme, Chem. Sci., 2017, 8, 4879.
   
   if GBSA is used:
   P. Shushkov, F. März and S. Grimme, unpublished.
   
   for ANC optimizer:
   S. Grimme, unpublished.
   Rational Function algorithm used in ANCopt:
   F. Eckert, P. Pulay, H.-J. Werner, J. Comput. Chem., 1997, 18, 1473.
   
   with help from (in alphabetical order)
   C. Bannwarth, F. Bohle, G. Brandenburg, E. Caldeweyher, M. Checinski,
   S. Dohm, S. Ehlert, S. Ehrlich, F. März, H. Neugebauer, J. Pisarek,
   P. Pracht, P. Shushkov, and S. Spicher.
   
 * started run on 2019/09/16 at 12:02:51.618     
========================================================================
 # omp threads = 1
========================================================================
number of atoms            : 26
number of electrons        : 80
charge                     : 0
spin                       : .0
first test random number   : .4550

########################################################################
# WARNING! Please study the warnings concerning your input carefully
#  - XTBPATH is not set, using XTBHOME instead
#  - the use of '-opt' is discouraged, please use '--opt' next time
#  - the use of '-chrg' is discouraged, please use '--chrg' next time
#  - the use of '-uhf' is discouraged, please use '--uhf' next time
########################################################################

           ------------------------------------------------- 
          |                 G F N 2 - x T B                 |
          | Geometry, Frequencies, Noncovalent interactions |
          |            JCTC 2018 parametrisation            |
           ------------------------------------------------- 
      method parameters     
 k(s)        :  1.8500
 k(p)        :  2.2300
 k(d)        :  2.2300
 k(f)        :  2.0000
 kEN (H0ij)  : -2.0000
 D4 a1       :  0.5200
 D4 a2       :  5.0000
 D4 s6       :  1.0000
 D4 s8       :  2.7000
 D4 s9       :  5.0000
 alphaj      :  2.0000


            Z     q(EN)     CN     RAES       Cart. coordinates
     1  S   6.0    0.65    4.26    4.17     3.07697     1.72297     3.80628
     2  O   6.0   -0.31    1.22    1.80     0.66666     2.95850     4.57568
     3  O   6.0   -0.31    1.20    1.80     2.79253    -1.07347     3.97105
     4  O   6.0   -0.31    1.24    1.80     3.69997     2.44858     1.15798
     5  O   6.0   -0.25    2.08    1.84     5.12037     2.54682     5.49693
     6  H   1.0    0.15    1.21    1.47     4.71975     2.07969     7.20350
     7  O   6.0   -0.38    1.64    1.81    -2.91444     2.11359    -2.10287
     8  H   1.0    0.17    0.94    1.42    -4.29719     2.76477    -3.17418
     9  O   6.0   -0.29    2.05    1.83     2.21989    -1.51298    -5.61209
    10  H   1.0    0.15    0.97    1.43     3.01284    -2.84411    -6.56810
    11  H   1.0    0.15    1.05    1.44     0.76033    -2.27907    -4.83915
    12  O   6.0   -0.31    2.06    1.83    -1.49481    -3.44711     2.87866
    13  H   1.0    0.18    1.05    1.44     0.18011    -2.83372     3.24335
    14  H   1.0    0.15    0.97    1.43    -1.50826    -5.17689     3.44639
    15  O   6.0   -0.23    2.92    2.59    -3.29695     1.13355     2.29578
    16  H   1.0    0.16    1.22    1.47    -3.31649     1.62863     0.49457
    17  H   1.0    0.14    1.04    1.43    -2.98494    -0.69514     2.51615
    18  H   1.0    0.15    1.06    1.44    -2.10512     2.17094     3.29321
    19  O   6.0   -0.22    2.92    2.58     1.45448     2.68779    -3.17735
    20  H   1.0    0.16    1.07    1.44     2.47636     2.78610    -1.61660
    21  H   1.0    0.14    1.05    1.44     1.98525     1.27155    -4.27396
    22  H   1.0    0.16    1.21    1.47    -0.37737     2.64004    -2.81191
    23  N   5.0   -0.23    3.03    1.93    -2.03526    -2.87432    -2.89837
    24  H   1.0    0.13    1.06    1.44    -2.46500    -1.00152    -2.76044
    25  H   1.0    0.11    1.00    1.43    -1.70667    -3.46977    -1.09600
    26  H   1.0    0.10    0.99    1.43    -3.66301    -3.74541    -3.44853

  Z AO/shell   Hii/eV     exponent
  1     Wed Apr 25 08:07:45 CEST 2018   EN: 2.200 GM2: 0.406  GM3: 0.0800  RAES: 1.40
     1s    -10.707211    1.230000
  7     Wed Apr 25 08:07:45 CEST 2018   EN: 3.040 GM2: 0.461  GM3:-0.0640  RAES: 1.90
     2s    -16.686243    2.339881
     2p    -12.523956    2.014332
  8     Wed Apr 25 08:07:45 CEST 2018   EN: 3.440 GM2: 0.452  GM3:-0.0517  RAES: 1.80
     2s    -20.229985    2.439742
     2p    -15.503117    2.137023
 16     Tue Apr 24 11:44:34 CEST 2018   EN: 2.580 GM2: 0.340  GM3:-0.0502  RAES: 3.10
     3s    -20.029654    1.981333
     3p    -11.377694    2.025643
     3d     -0.420282    1.702555
 no old-style atom pair restraining (fixing) potential

molecular fragmentation (1/2 indicates fragments):
11111122222222222222222222
# atoms in fragment 1/2:     6    20
 fragment masses (1/2) :       97.07      108.11
CMA distance (Bohr)    :   6.933
constraining FC (au)   :  0.0500
           ------------------------------------------------- 
          |        Self-Consistent Charge Iterations        |
           ------------------------------------------------- 

 Ncao       : 65
 Nao        : 64
 Nshell     : 38
 Nel        : 80
 T(el)      :   300.0
 intcut     :    25.0
 scfconv/Eh :  0.100E-05
   qconv/e  :  0.100E-03
 intneglect :  0.100E-07
 broydamp   :      0.250
 iter      E             dE          RMSdq      gap      omega  full diag
   1    -50.5763057 -0.505763E+02  0.702E+00   10.00       0.0  T
   2    -50.6271725 -0.508668E-01  0.505E+00    9.18       1.0  T
   3    -50.6641180 -0.369455E-01  0.135E+00    7.32       1.0  T
   4    -50.6697839 -0.566588E-02  0.543E-01    7.78       1.0  T
   5    -50.6703721 -0.588255E-03  0.306E-01    7.77       1.0  T
   6    -50.6707984 -0.426331E-03  0.132E-01    7.84       1.0  T
   7    -50.6708926 -0.941212E-04  0.485E-02    7.83       1.0  T
   8    -50.6709027 -0.101059E-04  0.325E-02    7.82       1.0  T
   9    -50.6709100 -0.729975E-05  0.715E-03    7.84       2.7  T
  10    -50.6709102 -0.258127E-06  0.227E-03    7.84       8.6  T
  11    -50.6709102 -0.116437E-07  0.126E-03    7.84      15.5  T
  12    -50.6709102 -0.872608E-08  0.432E-04    7.84      45.4  T
  13    -50.6709103 -0.103530E-08  0.142E-04    7.84     138.5  T
speedup  1.02
cpu  time for SCC    0.02 s
wall time for SCC    0.02 s

   *** convergence criteria satisfied after 13 iterations ***

          eigenvalues
 #    :          28         29         30         31         32         33         34         35
 occ. :        2.000      2.000      2.000      2.000      2.000      2.000      2.000      2.000
 eps  :       -12.768    -12.532    -12.215    -12.070    -11.829    -11.654    -11.519    -11.034
 #    :          36         37         38         39         40         41         42         43
 occ. :        2.000      2.000      2.000      2.000      2.000      0.000      0.000      0.000
 eps  :       -10.987    -10.779    -10.434    -10.346     -9.716     -1.879     -0.209     -0.084
 #    :          44         45         46         47         48         49         50         51
 occ. :        0.000      0.000      0.000      0.000      0.000      0.000      0.000      0.000
 eps  :         0.425      1.271      1.425      2.536      2.959      3.832      4.219      5.166


   #   Z            q   n(s)   n(p)   n(d)      C6AA      α(0)
   1  16 S      1.596  1.583  1.840  0.982    91.175    16.071
   2   8 O     -0.759  1.772  4.987  0.000    30.370     7.389
   3   8 O     -0.760  1.777  4.983  0.000    30.401     7.393
   4   8 O     -0.730  1.760  4.970  0.000    29.529     7.286
   5   8 O     -0.541  1.719  4.822  0.000    23.794     6.585
   6   1 H      0.358  0.642  0.000  0.000     0.561     1.172
   7   8 O     -0.852  1.825  5.027  0.000    33.108     7.718
   8   1 H      0.206  0.794  0.000  0.000     1.088     1.639
   9   8 O     -0.611  1.727  4.884  0.000    25.440     6.808
  10   1 H      0.285  0.715  0.000  0.000     0.768     1.377
  11   1 H      0.327  0.673  0.000  0.000     0.645     1.261
  12   8 O     -0.616  1.728  4.888  0.000    25.580     6.826
  13   1 H      0.341  0.659  0.000  0.000     0.611     1.227
  14   1 H      0.289  0.711  0.000  0.000     0.753     1.363
  15   8 O     -0.456  1.657  4.799  0.000    21.918     6.323
  16   1 H      0.406  0.594  0.000  0.000     0.466     1.068
  17   1 H      0.396  0.604  0.000  0.000     0.493     1.103
  18   1 H      0.395  0.605  0.000  0.000     0.494     1.104
  19   8 O     -0.459  1.660  4.800  0.000    21.979     6.332
  20   1 H      0.401  0.599  0.000  0.000     0.482     1.091
  21   1 H      0.401  0.599  0.000  0.000     0.484     1.093
  22   1 H      0.405  0.595  0.000  0.000     0.469     1.072
  23   7 N     -0.505  1.413  4.092  0.000    33.480     8.593
  24   1 H      0.204  0.796  0.000  0.000     1.087     1.633
  25   1 H      0.156  0.844  0.000  0.000     1.360     1.827
  26   1 H      0.124  0.876  0.000  0.000     1.594     1.978

 Mol. C6AA /au·bohr⁶  :       5521.540077
 Mol. C8AA /au·bohr⁸  :     119549.025352
 Mol. α(0) /au        :        107.331164

 
 Wiberg/Mayer (AO) data. WBOs > 0.1 written file <wbo>
 largest (>0.05) Wiberg bond orders for each atom
           total WBO             WBO to atom ...
     1  S   4.924    O    4 1.318    O    3 1.294    O    2 1.277    O    5 0.997
     2  O   1.687    S    1 1.277    O    3 0.115    O    4 0.112    H   18 0.081    O    5 0.070
     3  O   1.675    S    1 1.294    O    2 0.115    O    4 0.112    O    5 0.073    H   13 0.056
     4  O   1.716    S    1 1.318    O    2 0.112    O    3 0.112    H   20 0.082    O    5 0.053
     5  O   2.049    S    1 0.997    H    6 0.848    O    3 0.073    O    2 0.070    O    4 0.053
     6  H   0.871    O    5 0.848
     7  O   1.600    H    8 0.946    H   16 0.205    H   22 0.198    H   24 0.070    O   15 0.062    O   19 0.061
     8  H   0.958    O    7 0.946
     9  O   1.855    H   10 0.904    H   11 0.832    H   21 0.067
    10  H   0.919    O    9 0.904
    11  H   0.893    O    9 0.832    N   23 0.059
    12  O   1.868    H   14 0.903    H   13 0.824    H   17 0.066
    13  H   0.884    O   12 0.824    O    3 0.056
    14  H   0.916    O   12 0.903
    15  O   2.284    H   17 0.769    H   18 0.755    H   16 0.625    O    7 0.062
    16  H   0.835    O   15 0.625    O    7 0.205
    17  H   0.843    O   15 0.769    O   12 0.066
    18  H   0.844    O   15 0.755    O    2 0.081
    19  O   2.282    H   21 0.765    H   20 0.748    H   22 0.633    O    7 0.061
    20  H   0.839    O   19 0.748    O    4 0.082
    21  H   0.840    O   19 0.765    O    9 0.067
    22  H   0.836    O   19 0.633    O    7 0.198
    23  N   2.970    H   26 0.980    H   25 0.958    H   24 0.886    H   11 0.059
    24  H   0.958    N   23 0.886    O    7 0.070
    25  H   0.976    N   23 0.958
    26  H   0.985    N   23 0.980
 MOs/occ written to file <molden.input>
 
molecular dipole:
                 x           y           z       tot (Debye)
 q only:       -0.687      -0.872      -0.507
   full:       -0.489      -1.217       0.196       3.371
molecular quadrupole (traceless):
                xx          xy          yy          xz          yz          zz
 q only:       -6.410       0.180      -2.739      -5.479      -0.835       9.149
  q+dip:       -6.528       0.976      -4.063       2.561       1.196      10.591
   full:       -6.392       1.179      -4.207       3.018       1.171      10.599

SCC energy    :     -50.6709103
rep           :       0.2894430
ES            :       0.2886155
AES           :      -0.0664972
AXC           :      -0.0073367
disp          :      -0.0174766
XB            :       0.0000000
fix           :       0.0000000
total E       :     -50.3810995
atomizationE  :       4.9114037     3081.95
(atE without considering molecular charge,
 total energy contains solvation terms)
H-L gap (eV)  :          7.8366
           ------------------------------------------------- 
          |                 ===============                 |
          |                   A N C O P T                   |
          |                 ===============                 |
          |          Approximate Normal Coordinate          |
          |           Rational Function Optimizer           |
           ------------------------------------------------- 
dumping coords to <xtbopt.coord> and <xtbopt.log>
 optlevel               2
 Maxcycle             520
 Maxmicro              25
 Econv         1.000000000000000E-007
 Gconv         2.000000000000000E-004
 Maxdispl       1.00000000000000     
 Hlow          5.000000000000000E-003
 S6             20.0000000000000     
 Nvar               72

generating ANC from model Hessian ...
 Shifting diagonal of input Hessian by   5.075908167979121E-003
 Lowest  eigenvalues of input Hessian
    0.005000   -0.000000   -0.000000   -0.000000    0.000000    0.000000
    0.000000    0.005164    0.005567    0.006074    0.006324    0.006563
    0.006858    0.007458    0.007708    0.008925    0.009195    0.009872
 Highest eigenvalues
    1.564116    1.591060    1.591422    3.146364    3.216521    3.321193
 
cpu  time for ANC gen    0.02 s
wall time for ANC gen    0.02 s
................................................................................
.............................. CYCLE    1 ......................................
................................................................................
   1    -50.6709103 -0.506709E+02  0.755E-05    7.84       0.0  T
   2    -50.6709103 -0.123777E-10  0.580E-05    7.84     338.0  T
   3    -50.6709103 -0.124274E-10  0.277E-05    7.84     706.8  T
speedup  0.91
cpu  time for SCC    0.00 s
wall time for SCC    0.00 s
speedup  1.01
cpu  time for grad    0.01 s
wall time for grad    0.01 s
 E :    -50.38109950  G :  0.203988    pred/act E change:  0.000D+00  0.452D-07
Maxdispl :   0.1074   ||displ|| :   0.2840   Lambda : -0.293D-01
Largest |displ|/coords:  0.1074 (  54)  0.1040 (  26)  0.0891 (  19)
................................................................................
.............................. CYCLE    2 ......................................
................................................................................
   1    -50.6800182 -0.506800E+02  0.300E-01    7.88       0.0  T
   2    -50.6801798 -0.161527E-03  0.228E-01    7.93       1.0  T
   3    -50.6802540 -0.741994E-04  0.725E-02    8.02       1.0  T
   4    -50.6802692 -0.152028E-04  0.175E-02    8.00       1.1  T
   5    -50.6802700 -0.849380E-06  0.503E-03    8.00       3.9  T
   6    -50.6802701 -0.383353E-07  0.292E-03    8.00       6.7  T
speedup  0.98
cpu  time for SCC    0.01 s
wall time for SCC    0.01 s
speedup  0.99
cpu  time for grad    0.01 s
wall time for grad    0.01 s
 E :    -50.40449648  G :  0.127361    pred/act E change:  0.000D+00 -0.234D-01
Maxdispl :   0.1331   ||displ|| :   0.3241   Lambda : -0.156D-01
Largest |displ|/coords:  0.1331 (  26)  0.1294 (  19)  0.1061 (  11)
................................................................................
.............................. CYCLE    3 ......................................
................................................................................
   1    -50.6842204 -0.506842E+02  0.293E-01    8.02       0.0  T
   2    -50.6844462 -0.225784E-03  0.219E-01    8.07       1.0  T
   3    -50.6845416 -0.953969E-04  0.785E-02    8.13       1.0  T
   4    -50.6845567 -0.151488E-04  0.157E-02    8.12       1.2  T
   5    -50.6845573 -0.625304E-06  0.482E-03    8.12       4.1  T
   6    -50.6845574 -0.352741E-07  0.285E-03    8.12       6.9  T
speedup  1.02
cpu  time for SCC    0.01 s
wall time for SCC    0.01 s
speedup  0.99
cpu  time for grad    0.01 s
wall time for grad    0.01 s
 E :    -50.41716873  G :  0.082391    pred/act E change: -0.158D-01 -0.127D-01
Maxdispl :   0.1497   ||displ|| :   0.3479   Lambda : -0.851D-02
Largest |displ|/coords:  0.1497 (  11)  0.1468 (  19)  0.1092 (  26)
................................................................................
.............................. CYCLE    4 ......................................
................................................................................
   1    -50.6860886 -0.506861E+02  0.302E-01    8.11       0.0  T
   2    -50.6863412 -0.252565E-03  0.220E-01    8.15       1.0  T
   3    -50.6864456 -0.104419E-03  0.779E-02    8.21       1.0  T
   4    -50.6864608 -0.152081E-04  0.147E-02    8.20       1.3  T
   5    -50.6864613 -0.527718E-06  0.481E-03    8.20       4.1  T
   6    -50.6864614 -0.315934E-07  0.278E-03    8.20       7.0  T
speedup  0.97
cpu  time for SCC    0.01 s
wall time for SCC    0.01 s
speedup  0.97
cpu  time for grad    0.01 s
wall time for grad    0.01 s
 E :    -50.42403588  G :  0.056036    pred/act E change: -0.863D-02 -0.687D-02
Maxdispl :   0.1101   ||displ|| :   0.2915   Lambda : -0.467D-02
Largest |displ|/coords:  0.1101 (   7)  0.1042 (  19)  0.1034 (  11)
................................................................................
.............................. CYCLE    5 ......................................
................................................................................
   1    -50.6879169 -0.506879E+02  0.250E-01    8.19       0.0  T
   2    -50.6880774 -0.160511E-03  0.183E-01    8.22       1.0  T
   3    -50.6881420 -0.645825E-04  0.615E-02    8.28       1.0  T
   4    -50.6881533 -0.112729E-04  0.122E-02    8.28       1.6  T
   5    -50.6881536 -0.357821E-06  0.383E-03    8.28       5.1  T
   6    -50.6881537 -0.153387E-07  0.214E-03    8.28       9.2  T
speedup  1.00
cpu  time for SCC    0.01 s
wall time for SCC    0.01 s
speedup  0.99
cpu  time for grad    0.01 s
wall time for grad    0.01 s
 E :    -50.42790822  G :  0.040904    pred/act E change: -0.477D-02 -0.387D-02
Maxdispl :   0.1554   ||displ|| :   0.4663   Lambda : -0.724D-02
Largest |displ|/coords:  0.1554 (  11)  0.1532 (  10)  0.1477 (   8)
................................................................................
.............................. CYCLE    6 ......................................
................................................................................
   1    -50.7007226 -0.507007E+02  0.424E-01    8.27       0.0  T
   2    -50.7014296 -0.706975E-03  0.303E-01    8.32       1.0  T
   3    -50.7017283 -0.298744E-03  0.119E-01    8.41       1.0  T
   4    -50.7017551 -0.267571E-04  0.256E-02    8.43       1.0  T
   5    -50.7017567 -0.163679E-05  0.838E-03    8.43       2.3  T
   6    -50.7017568 -0.915652E-07  0.451E-03    8.43       4.3  T
   7    -50.7017568 -0.330724E-07  0.118E-03    8.42      16.6  T
speedup  1.03
cpu  time for SCC    0.01 s
wall time for SCC    0.01 s
speedup  1.00
cpu  time for grad    0.01 s
wall time for grad    0.01 s
 E :    -50.43125963  G :  0.032390    pred/act E change: -0.253D-02 -0.335D-02
Maxdispl :   0.2979   ||displ|| :   0.5931   Lambda : -0.567D-02
Largest |displ|/coords:  0.2979 (   7)  0.2409 (  11)  0.1913 (  13)
................................................................................
.............................. CYCLE    7 ......................................
................................................................................
   1    -50.6834330 -0.506834E+02  0.763E-01    8.15       0.0  T
   2    -50.6840878 -0.654842E-03  0.566E-01    8.21       1.0  T
   3    -50.6843492 -0.261444E-03  0.134E-01    8.33       1.0  T
   4    -50.6844392 -0.899233E-04  0.254E-02    8.32       1.0  T
   5    -50.6844402 -0.993599E-06  0.102E-02    8.32       1.9  T
   6    -50.6844404 -0.259987E-06  0.480E-03    8.32       4.1  T
   7    -50.6844404 -0.287671E-07  0.110E-03    8.32      17.8  T
speedup  1.00
cpu  time for SCC    0.01 s
wall time for SCC    0.01 s
speedup  0.99
cpu  time for grad    0.01 s
wall time for grad    0.02 s
 E :    -50.43095570  G :  0.072533    pred/act E change: -0.440D-02  0.304D-03
Maxdispl :   0.1937   ||displ|| :   0.4932   Lambda : -0.136D-01
Largest |displ|/coords:  0.1937 (   7)  0.1759 (   8)  0.1680 (  13)
................................................................................
.............................. CYCLE    8 ......................................
................................................................................
   1    -50.7075852 -0.507076E+02  0.764E-01    8.58       0.0  T
   2    -50.7082265 -0.641354E-03  0.569E-01    8.57       1.0  T
   3    -50.7085402 -0.313710E-03  0.136E-01    8.54       1.0  T
   4    -50.7086294 -0.891320E-04  0.257E-02    8.53       1.0  T
   5    -50.7086306 -0.126350E-05  0.115E-02    8.53       1.7  T
   6    -50.7086308 -0.156606E-06  0.491E-03    8.53       4.0  T
   7    -50.7086308 -0.440711E-07  0.119E-03    8.53      16.5  T
speedup  1.01
cpu  time for SCC    0.01 s
wall time for SCC    0.01 s
speedup  1.00
cpu  time for grad    0.01 s
wall time for grad    0.01 s
 E :    -50.43108571  G :  0.059329    pred/act E change: -0.383D-02 -0.130D-03
Maxdispl :   0.1488   ||displ|| :   0.3950   Lambda : -0.891D-02
Largest |displ|/coords:  0.1488 (  17)  0.1457 (  19)  0.1368 (  16)
................................................................................
.............................. CYCLE    9 ......................................
................................................................................
   1    -50.6883975 -0.506884E+02  0.590E-01    8.32       0.0  T
   2    -50.6888438 -0.446275E-03  0.432E-01    8.31       1.0  T
   3    -50.6890402 -0.196370E-03  0.115E-01    8.30       1.0  T
   4    -50.6890898 -0.496077E-04  0.212E-02    8.32       1.0  T
   5    -50.6890906 -0.797744E-06  0.914E-03    8.32       2.1  T
   6    -50.6890908 -0.263625E-06  0.483E-03    8.32       4.1  T
   7    -50.6890909 -0.350186E-07  0.101E-03    8.32      19.4  T
speedup  0.87
cpu  time for SCC    0.01 s
wall time for SCC    0.01 s
speedup  0.99
cpu  time for grad    0.01 s
wall time for grad    0.02 s
 E :    -50.43033640  G :  0.077362    pred/act E change: -0.844D-02  0.749D-03
Maxdispl :   0.1749   ||displ|| :   0.4614   Lambda : -0.160D-01
Largest |displ|/coords:  0.1749 (   7)  0.1296 (  19)  0.1213 (  20)
................................................................................
.............................. CYCLE   10 ......................................
................................................................................
   1    -50.7079090 -0.507079E+02  0.732E-01    8.57       0.0  T
   2    -50.7082631 -0.354055E-03  0.548E-01    8.58       1.0  T
   3    -50.7085011 -0.237991E-03  0.107E-01    8.62       1.0  T
   4    -50.7085463 -0.451970E-04  0.208E-02    8.60       1.0  T
   5    -50.7085471 -0.788747E-06  0.108E-02    8.60       1.8  T
   6    -50.7085472 -0.943200E-07  0.458E-03    8.60       4.3  T
   7    -50.7085472 -0.540338E-07  0.101E-03    8.60      19.4  T
speedup  1.01
cpu  time for SCC    0.01 s
wall time for SCC    0.01 s
speedup  1.01
cpu  time for grad    0.01 s
wall time for grad    0.01 s
 E :    -50.43052485  G :  0.081125    pred/act E change: -0.515D-02 -0.188D-03
Maxdispl :   0.1477   ||displ|| :   0.3954   Lambda : -0.133D-01
Largest |displ|/coords:  0.1477 (  11)  0.1434 (   7)  0.1133 (   4)
................................................................................
.............................. CYCLE   11 ......................................
................................................................................
   1    -50.6951869 -0.506952E+02  0.601E-01    8.45       0.0  T
   2    -50.6954187 -0.231813E-03  0.451E-01    8.44       1.0  T
   3    -50.6955719 -0.153207E-03  0.864E-02    8.43       1.0  T
   4    -50.6956020 -0.300423E-04  0.162E-02    8.43       1.2  T
   5    -50.6956024 -0.438153E-06  0.819E-03    8.44       2.4  T
   6    -50.6956025 -0.107157E-06  0.372E-03    8.44       5.3  T
   7    -50.6956026 -0.272063E-07  0.832E-04    8.44      23.6  T
speedup  1.01
cpu  time for SCC    0.01 s
wall time for SCC    0.01 s
speedup  1.00
cpu  time for grad    0.01 s
wall time for grad    0.01 s
 E :    -50.43299875  G :  0.054727    pred/act E change: -0.972D-02 -0.247D-02
Maxdispl :   0.0988   ||displ|| :   0.2452   Lambda : -0.476D-02
Largest |displ|/coords:  0.0988 (  12)  0.0824 (   7)  0.0799 (   2)
................................................................................
.............................. CYCLE   12 ......................................
................................................................................
   1    -50.7047839 -0.507048E+02  0.338E-01    8.52       0.0  T
   2    -50.7048396 -0.557568E-04  0.254E-01    8.52       1.0  T
   3    -50.7048854 -0.457441E-04  0.410E-02    8.51       1.0  T
   4    -50.7048915 -0.609425E-05  0.898E-03    8.52       2.2  T
   5    -50.7048916 -0.131287E-06  0.442E-03    8.52       4.4  T
   6    -50.7048916 -0.326211E-07  0.153E-03    8.52      12.9  T
speedup  1.00
cpu  time for SCC    0.01 s
wall time for SCC    0.01 s
speedup  0.99
cpu  time for grad    0.01 s
wall time for grad    0.01 s
 E :    -50.43441872  G :  0.028940    pred/act E change: -0.768D-02 -0.142D-02
Maxdispl :   0.1068   ||displ|| :   0.2364   Lambda : -0.192D-02
Largest |displ|/coords:  0.1068 (  12)  0.0831 (   5)  0.0789 (  14)
................................................................................
.............................. CYCLE   13 ......................................
................................................................................
   1    -50.7026536 -0.507027E+02  0.285E-01    8.50       0.0  T
   2    -50.7027275 -0.738419E-04  0.211E-01    8.52       1.0  T
   3    -50.7027674 -0.399324E-04  0.465E-02    8.56       1.0  T
   4    -50.7027772 -0.982632E-05  0.913E-03    8.55       2.1  T
   5    -50.7027774 -0.136973E-06  0.461E-03    8.55       4.3  T
   6    -50.7027774 -0.244824E-07  0.170E-03    8.55      11.5  T
speedup  1.00
cpu  time for SCC    0.01 s
wall time for SCC    0.01 s
speedup  0.99
cpu  time for grad    0.01 s
wall time for grad    0.01 s
 E :    -50.43442799  G :  0.045998    pred/act E change: -0.252D-02 -0.927D-05
Maxdispl :   0.0822   ||displ|| :   0.1732   Lambda : -0.226D-02
Largest |displ|/coords:  0.0822 (  14)  0.0717 (   5)  0.0638 (  11)
................................................................................
.............................. CYCLE   14 ......................................
................................................................................
   1    -50.6985489 -0.506985E+02  0.234E-01    8.49       0.0  T
   2    -50.6985809 -0.320325E-04  0.175E-01    8.50       1.0  T
   3    -50.6986009 -0.199514E-04  0.322E-02    8.50       1.0  T
   4    -50.6986053 -0.445215E-05  0.657E-03    8.50       3.0  T
   5    -50.6986054 -0.561619E-07  0.325E-03    8.50       6.0  T
   6    -50.6986054 -0.124162E-07  0.149E-03    8.50      13.1  T
speedup  1.00
cpu  time for SCC    0.01 s
wall time for SCC    0.01 s
speedup  1.00
cpu  time for grad    0.01 s
wall time for grad    0.01 s
 E :    -50.43550951  G :  0.028683    pred/act E change: -0.101D-02 -0.108D-02
Maxdispl :   0.0698   ||displ|| :   0.1341   Lambda : -0.886D-03
Largest |displ|/coords:  0.0698 (   3)  0.0550 (  12)  0.0452 (   7)
................................................................................
.............................. CYCLE   15 ......................................
................................................................................
   1    -50.7006928 -0.507007E+02  0.149E-01    8.53       0.0  T
   2    -50.7007028 -0.996616E-05  0.112E-01    8.52       1.0  T
   3    -50.7007091 -0.635669E-05  0.181E-02    8.52       1.1  T
   4    -50.7007106 -0.143610E-05  0.431E-03    8.53       4.6  T
   5    -50.7007106 -0.288046E-07  0.183E-03    8.52      10.7  T
speedup  1.00
cpu  time for SCC    0.00 s
wall time for SCC    0.01 s
speedup  0.98
cpu  time for grad    0.01 s
wall time for grad    0.01 s
 E :    -50.43604945  G :  0.025684    pred/act E change: -0.116D-02 -0.540D-03
Maxdispl :   0.0934   ||displ|| :   0.2255   Lambda : -0.150D-02
Largest |displ|/coords:  0.0934 (  11)  0.0681 (   7)  0.0677 (  18)
................................................................................
.............................. CYCLE   16 ......................................
................................................................................
   1    -50.7085601 -0.507086E+02  0.185E-01    8.59       0.0  T
   2    -50.7085844 -0.243662E-04  0.138E-01    8.60       1.0  T
   3    -50.7086007 -0.162810E-04  0.287E-02    8.61       1.0  T
   4    -50.7086037 -0.299006E-05  0.735E-03    8.61       2.7  T
   5    -50.7086038 -0.616068E-07  0.283E-03    8.61       6.9  T
   6    -50.7086038 -0.870850E-08  0.121E-03    8.61      16.2  T
speedup  0.98
cpu  time for SCC    0.01 s
wall time for SCC    0.01 s
speedup  0.99
cpu  time for grad    0.01 s
wall time for grad    0.01 s
 E :    -50.43692850  G :  0.022160    pred/act E change: -0.451D-03 -0.879D-03
Maxdispl :   0.2574   ||displ|| :   0.5388   Lambda : -0.280D-02
Largest |displ|/coords:  0.2574 (   3)  0.2550 (  11)  0.1370 (  18)
................................................................................
.............................. CYCLE   17 ......................................
................................................................................
   1    -50.7077300 -0.507077E+02  0.446E-01    8.62       0.0  T
   2    -50.7078329 -0.102905E-03  0.331E-01    8.65       1.0  T
   3    -50.7078925 -0.596914E-04  0.594E-02    8.73       1.0  T
   4    -50.7079074 -0.148907E-04  0.149E-02    8.71       1.3  T
   5    -50.7079077 -0.280588E-06  0.626E-03    8.71       3.1  T
   6    -50.7079078 -0.400585E-07  0.284E-03    8.71       6.9  T
   7    -50.7079078 -0.145717E-07  0.669E-04    8.71      29.3  T
speedup  0.97
cpu  time for SCC    0.01 s
wall time for SCC    0.01 s
speedup  0.98
cpu  time for grad    0.01 s
wall time for grad    0.02 s
 E :    -50.43888816  G :  0.036540    pred/act E change: -0.788D-03 -0.196D-02
Maxdispl :   0.2982   ||displ|| :   0.5280   Lambda : -0.407D-02
Largest |displ|/coords:  0.2982 (  11)  0.1640 (  18)  0.1465 (  19)
................................................................................
.............................. CYCLE   18 ......................................
................................................................................
   1    -50.7106519 -0.507107E+02  0.445E-01    8.77       0.0  T
   2    -50.7107609 -0.108957E-03  0.331E-01    8.78       1.0  T
   3    -50.7108321 -0.711916E-04  0.625E-02    8.82       1.0  T
   4    -50.7108468 -0.146910E-04  0.165E-02    8.82       1.2  T
   5    -50.7108471 -0.342946E-06  0.673E-03    8.82       2.9  T
   6    -50.7108472 -0.590535E-07  0.325E-03    8.82       6.0  T
   7    -50.7108472 -0.164080E-07  0.826E-04    8.82      23.7  T
speedup  1.01
cpu  time for SCC    0.01 s
wall time for SCC    0.01 s
speedup  1.01
cpu  time for grad    0.01 s
wall time for grad    0.01 s
 E :    -50.44058460  G :  0.044559    pred/act E change: -0.181D-02 -0.170D-02
Maxdispl :   0.0862   ||displ|| :   0.2316   Lambda : -0.281D-02
Largest |displ|/coords:  0.0862 (   9)  0.0759 (  30)  0.0684 (  11)
................................................................................
.............................. CYCLE   19 ......................................
................................................................................
   1    -50.7135413 -0.507135E+02  0.214E-01    8.89       0.0  T
   2    -50.7136011 -0.598179E-04  0.158E-01    8.89       1.0  T
   3    -50.7136317 -0.305807E-04  0.410E-02    8.89       1.0  T
   4    -50.7136387 -0.695003E-05  0.920E-03    8.89       2.1  T
   5    -50.7136388 -0.110897E-06  0.401E-03    8.89       4.9  T
   6    -50.7136388 -0.113848E-07  0.179E-03    8.89      10.9  T
speedup  1.00
cpu  time for SCC    0.01 s
wall time for SCC    0.01 s
speedup  1.00
cpu  time for grad    0.01 s
wall time for grad    0.01 s
 E :    -50.44229150  G :  0.034915    pred/act E change: -0.260D-02 -0.171D-02
Maxdispl :   0.1199   ||displ|| :   0.3249   Lambda : -0.302D-02
Largest |displ|/coords:  0.1199 (   1)  0.1119 (   4)  0.0972 (  30)
................................................................................
.............................. CYCLE   20 ......................................
................................................................................
   1    -50.7238046 -0.507238E+02  0.256E-01    9.06       0.0  T
   2    -50.7238955 -0.909157E-04  0.189E-01    9.04       1.0  T
   3    -50.7239446 -0.490939E-04  0.518E-02    9.01       1.0  T
   4    -50.7239545 -0.989473E-05  0.106E-02    9.03       1.9  T
   5    -50.7239547 -0.181660E-06  0.452E-03    9.02       4.3  T
   6    -50.7239547 -0.815718E-08  0.221E-03    9.02       8.9  T
speedup  1.03
cpu  time for SCC    0.01 s
wall time for SCC    0.01 s
speedup  1.01
cpu  time for grad    0.01 s
wall time for grad    0.01 s
 E :    -50.44348623  G :  0.038094    pred/act E change: -0.148D-02 -0.119D-02
Maxdispl :   0.1442   ||displ|| :   0.2725   Lambda : -0.259D-02
Largest |displ|/coords:  0.1442 (  11)  0.0880 (   9)  0.0627 (  21)
................................................................................
.............................. CYCLE   21 ......................................
................................................................................
   1    -50.7284792 -0.507285E+02  0.207E-01    8.96       0.0  T
   2    -50.7285275 -0.482995E-04  0.152E-01    8.98       1.0  T
   3    -50.7285555 -0.280020E-04  0.383E-02    9.01       1.0  T
   4    -50.7285609 -0.534103E-05  0.129E-02    9.00       1.5  T
   5    -50.7285611 -0.237286E-06  0.399E-03    9.00       4.9  T
   6    -50.7285611 -0.200974E-07  0.205E-03    9.00       9.5  T
speedup  0.86
cpu  time for SCC    0.00 s
wall time for SCC    0.01 s
speedup  0.94
cpu  time for grad    0.01 s
wall time for grad    0.01 s
 E :    -50.44435893  G :  0.031247    pred/act E change: -0.167D-02 -0.873D-03
Maxdispl :   0.1057   ||displ|| :   0.2586   Lambda : -0.217D-02
Largest |displ|/coords:  0.1057 (   4)  0.0914 (  11)  0.0880 (  23)
................................................................................
.............................. CYCLE   22 ......................................
................................................................................
   1    -50.7152562 -0.507153E+02  0.258E-01    8.74       0.0  T
   2    -50.7153122 -0.560216E-04  0.191E-01    8.76       1.0  T
   3    -50.7153468 -0.345512E-04  0.415E-02    8.81       1.0  T
   4    -50.7153536 -0.689221E-05  0.136E-02    8.80       1.4  T
   5    -50.7153539 -0.224226E-06  0.415E-03    8.80       4.7  T
   6    -50.7153539 -0.222179E-07  0.228E-03    8.80       8.6  T
speedup  1.03
cpu  time for SCC    0.01 s
wall time for SCC    0.01 s
speedup  1.01
cpu  time for grad    0.01 s
wall time for grad    0.01 s
 E :    -50.44465773  G :  0.033477    pred/act E change: -0.139D-02 -0.299D-03
Maxdispl :   0.1627   ||displ|| :   0.3380   Lambda : -0.264D-02
Largest |displ|/coords:  0.1627 (  11)  0.1255 (   2)  0.1197 (   7)
................................................................................
.............................. CYCLE   23 ......................................
................................................................................
   1    -50.7262166 -0.507262E+02  0.279E-01    8.97       0.0  T
   2    -50.7262848 -0.682051E-04  0.204E-01    8.94       1.0  T
   3    -50.7263205 -0.357053E-04  0.497E-02    8.88       1.0  T
   4    -50.7263278 -0.730751E-05  0.129E-02    8.90       1.5  T
   5    -50.7263281 -0.279390E-06  0.416E-03    8.90       4.7  T
   6    -50.7263281 -0.121165E-07  0.223E-03    8.90       8.8  T
speedup  0.98
cpu  time for SCC    0.01 s
wall time for SCC    0.01 s
speedup  0.98
cpu  time for grad    0.01 s
wall time for grad    0.01 s
 E :    -50.44419198  G :  0.036207    pred/act E change: -0.116D-02  0.466D-03
Maxdispl :   0.0931   ||displ|| :   0.2213   Lambda : -0.321D-02
Largest |displ|/coords:  0.0931 (   2)  0.0862 (  11)  0.0753 (   7)
................................................................................
.............................. CYCLE   24 ......................................
................................................................................
   1    -50.7249472 -0.507249E+02  0.216E-01    8.95       0.0  T
   2    -50.7249922 -0.450797E-04  0.158E-01    8.97       1.0  T
   3    -50.7250159 -0.236399E-04  0.383E-02    9.02       1.0  T
   4    -50.7250208 -0.496639E-05  0.940E-03    9.00       2.1  T
   5    -50.7250210 -0.169098E-06  0.356E-03    9.00       5.5  T
   6    -50.7250210 -0.116862E-07  0.186E-03    9.00      10.6  T
speedup  1.02
cpu  time for SCC    0.01 s
wall time for SCC    0.01 s
speedup  1.00
cpu  time for grad    0.01 s
wall time for grad    0.01 s
 E :    -50.44538334  G :  0.024158    pred/act E change: -0.147D-02 -0.119D-02
Maxdispl :   0.0887   ||displ|| :   0.1874   Lambda : -0.122D-02
Largest |displ|/coords:  0.0887 (   5)  0.0864 (   9)  0.0681 (   4)
................................................................................
.............................. CYCLE   25 ......................................
................................................................................
   1    -50.7239393 -0.507239E+02  0.169E-01    8.83       0.0  T
   2    -50.7239517 -0.124178E-04  0.126E-01    8.82       1.0  T
   3    -50.7239633 -0.116336E-04  0.219E-02    8.80       1.0  T
   4    -50.7239646 -0.132301E-05  0.731E-03    8.81       2.7  T
   5    -50.7239647 -0.703880E-07  0.252E-03    8.81       7.8  T
   6    -50.7239647 -0.717687E-08  0.114E-03    8.81      17.2  T
speedup  1.02
cpu  time for SCC    0.01 s
wall time for SCC    0.01 s
speedup  1.00
cpu  time for grad    0.01 s
wall time for grad    0.01 s
 E :    -50.44564888  G :  0.016643    pred/act E change: -0.168D-02 -0.266D-03
Maxdispl :   0.0737   ||displ|| :   0.1458   Lambda : -0.702D-03
Largest |displ|/coords:  0.0737 (   5)  0.0536 (  12)  0.0455 (   4)

generating ANC from model Hessian ...
 Shifting diagonal of input Hessian by   5.043565150304134E-003
 Lowest  eigenvalues of input Hessian
    0.005000   -0.000000   -0.000000    0.000000    0.000000    0.000000
    0.000000    0.005248    0.005520    0.005900    0.005992    0.006109
    0.006755    0.007448    0.008230    0.009446    0.009948    0.010159
 Highest eigenvalues
    1.376212    1.398435    1.402008    2.571472    3.527914    3.561776
 
cpu  time for ANC gen    0.02 s
wall time for ANC gen    0.02 s
................................................................................
.............................. CYCLE   26 ......................................
................................................................................
   1    -50.7224934 -0.507225E+02  0.984E-02    8.87       0.0  T
   2    -50.7224982 -0.488858E-05  0.732E-02    8.88       1.0  T
   3    -50.7225010 -0.276751E-05  0.133E-02    8.91       1.5  T
   4    -50.7225018 -0.759196E-06  0.437E-03    8.90       4.5  T
   5    -50.7225018 -0.312457E-07  0.149E-03    8.90      13.2  T
   6    -50.7225018 -0.294917E-08  0.716E-04    8.90      27.4  T
   7    -50.7225018 -0.136753E-08  0.237E-04    8.90      82.7  T
speedup  1.01
cpu  time for SCC    0.01 s
wall time for SCC    0.01 s
speedup  1.03
cpu  time for grad    0.02 s
wall time for grad    0.02 s
 E :    -50.44595125  G :  0.011113    pred/act E change:  0.000D+00 -0.302D-03
Maxdispl :   0.1565   ||displ|| :   0.2611   Lambda : -0.836D-03
Largest |displ|/coords:  0.1565 (   4)  0.1129 (  11)  0.0975 (   1)
................................................................................
.............................. CYCLE   27 ......................................
................................................................................
   1    -50.7238939 -0.507239E+02  0.178E-01    8.93       0.0  T
   2    -50.7238984 -0.451752E-05  0.135E-01    8.92       1.0  T
   3    -50.7239044 -0.601221E-05  0.102E-02    8.92       1.9  T
   4    -50.7239046 -0.210479E-06  0.422E-03    8.93       4.6  T
   5    -50.7239046 -0.205740E-07  0.150E-03    8.93      13.1  T
   6    -50.7239046 -0.369936E-08  0.557E-04    8.93      35.2  T
speedup  1.02
cpu  time for SCC    0.01 s
wall time for SCC    0.01 s
speedup  0.99
cpu  time for grad    0.01 s
wall time for grad    0.01 s
 E :    -50.44654923  G :  0.008126    pred/act E change:  0.000D+00 -0.598D-03
Maxdispl :   0.1824   ||displ|| :   0.3972   Lambda : -0.930D-03
Largest |displ|/coords:  0.1824 (   1)  0.1466 (   6)  0.1197 (  11)
................................................................................
.............................. CYCLE   28 ......................................
................................................................................
   1    -50.7230443 -0.507230E+02  0.293E-01    8.92       0.0  T
   2    -50.7230644 -0.201398E-04  0.222E-01    8.92       1.0  T
   3    -50.7230830 -0.185626E-04  0.243E-02    8.93       1.0  T
   4    -50.7230854 -0.243283E-05  0.711E-03    8.93       2.8  T
   5    -50.7230854 -0.567100E-07  0.312E-03    8.93       6.3  T
   6    -50.7230855 -0.940875E-08  0.146E-03    8.93      13.4  T
   7    -50.7230855 -0.583663E-08  0.313E-04    8.93      62.6  T
speedup  1.00
cpu  time for SCC    0.01 s
wall time for SCC    0.01 s
speedup  0.99
cpu  time for grad    0.01 s
wall time for grad    0.02 s
 E :    -50.44690914  G :  0.025382    pred/act E change: -0.446D-03 -0.360D-03
Maxdispl :   0.0897   ||displ|| :   0.1452   Lambda : -0.735D-03
Largest |displ|/coords:  0.0897 (   6)  0.0437 (  21)  0.0398 (  11)
................................................................................
.............................. CYCLE   29 ......................................
................................................................................
   1    -50.7257087 -0.507257E+02  0.930E-02    8.94       0.0  T
   2    -50.7257149 -0.619677E-05  0.696E-02    8.94       1.0  T
   3    -50.7257198 -0.481927E-05  0.139E-02    8.93       1.4  T
   4    -50.7257205 -0.782941E-06  0.343E-03    8.93       5.7  T
   5    -50.7257206 -0.149749E-07  0.167E-03    8.93      11.8  T
speedup  1.02
cpu  time for SCC    0.00 s
wall time for SCC    0.00 s
speedup  1.00
cpu  time for grad    0.01 s
wall time for grad    0.01 s
 E :    -50.44736336  G :  0.009273    pred/act E change: -0.539D-03 -0.454D-03
Maxdispl :   0.1359   ||displ|| :   0.3332   Lambda : -0.632D-03
Largest |displ|/coords:  0.1359 (   6)  0.1252 (   5)  0.1228 (   4)
................................................................................
.............................. CYCLE   30 ......................................
................................................................................
   1    -50.7241104 -0.507241E+02  0.193E-01    8.90       0.0  T
   2    -50.7241157 -0.526872E-05  0.146E-01    8.90       1.0  T
   3    -50.7241216 -0.593739E-05  0.122E-02    8.91       1.6  T
   4    -50.7241221 -0.432364E-06  0.399E-03    8.91       4.9  T
   5    -50.7241221 -0.239372E-07  0.183E-03    8.91      10.7  T
   6    -50.7241221 -0.472656E-08  0.879E-04    8.91      22.3  T
speedup  0.86
cpu  time for SCC    0.00 s
wall time for SCC    0.01 s
speedup  1.01
cpu  time for grad    0.01 s
wall time for grad    0.01 s
 E :    -50.44775622  G :  0.008914    pred/act E change: -0.375D-03 -0.393D-03
Maxdispl :   0.1853   ||displ|| :   0.4367   Lambda : -0.592D-03
Largest |displ|/coords:  0.1853 (   6)  0.1774 (   1)  0.1399 (  11)
................................................................................
.............................. CYCLE   31 ......................................
................................................................................
   1    -50.7203591 -0.507204E+02  0.257E-01    8.79       0.0  T
   2    -50.7203696 -0.105074E-04  0.195E-01    8.79       1.0  T
   3    -50.7203818 -0.121570E-04  0.174E-02    8.81       1.1  T
   4    -50.7203825 -0.782178E-06  0.620E-03    8.81       3.2  T
   5    -50.7203826 -0.425836E-07  0.235E-03    8.81       8.4  T
   6    -50.7203826 -0.536806E-08  0.118E-03    8.81      16.6  T
speedup  1.02
cpu  time for SCC    0.01 s
wall time for SCC    0.01 s
speedup  1.00
cpu  time for grad    0.01 s
wall time for grad    0.01 s
 E :    -50.44811576  G :  0.015385    pred/act E change: -0.351D-03 -0.360D-03
Maxdispl :   0.1486   ||displ|| :   0.2346   Lambda : -0.402D-03
Largest |displ|/coords:  0.1486 (   1)  0.0854 (   2)  0.0693 (  21)
................................................................................
.............................. CYCLE   32 ......................................
................................................................................
   1    -50.7220515 -0.507221E+02  0.111E-01    8.86       0.0  T
   2    -50.7220550 -0.348387E-05  0.830E-02    8.87       1.0  T
   3    -50.7220577 -0.275007E-05  0.113E-02    8.88       1.7  T
   4    -50.7220582 -0.489005E-06  0.476E-03    8.88       4.1  T
   5    -50.7220582 -0.313075E-07  0.141E-03    8.88      13.9  T
   6    -50.7220582 -0.231084E-08  0.775E-04    8.88      25.3  T
speedup  1.03
cpu  time for SCC    0.01 s
wall time for SCC    0.01 s
speedup  1.06
cpu  time for grad    0.01 s
wall time for grad    0.01 s
 E :    -50.44840637  G :  0.011209    pred/act E change: -0.352D-03 -0.291D-03
Maxdispl :   0.1662   ||displ|| :   0.2920   Lambda : -0.375D-03
Largest |displ|/coords:  0.1662 (   1)  0.1037 (  21)  0.0817 (   2)
................................................................................
.............................. CYCLE   33 ......................................
................................................................................
   1    -50.7248761 -0.507249E+02  0.135E-01    8.92       0.0  T
   2    -50.7248803 -0.425395E-05  0.101E-01    8.92       1.0  T
   3    -50.7248839 -0.360128E-05  0.123E-02    8.93       1.6  T
   4    -50.7248845 -0.558284E-06  0.567E-03    8.93       3.5  T
   5    -50.7248845 -0.382786E-07  0.150E-03    8.93      13.1  T
   6    -50.7248845 -0.285600E-08  0.916E-04    8.93      21.4  T
speedup  1.00
cpu  time for SCC    0.01 s
wall time for SCC    0.01 s
speedup  1.05
cpu  time for grad    0.01 s
wall time for grad    0.01 s
 E :    -50.44867058  G :  0.006114    pred/act E change: -0.212D-03 -0.264D-03
Maxdispl :   0.2139   ||displ|| :   0.4158   Lambda : -0.310D-03
Largest |displ|/coords:  0.2139 (   1)  0.1227 (   4)  0.1216 (  21)
................................................................................
.............................. CYCLE   34 ......................................
................................................................................
   1    -50.7232824 -0.507233E+02  0.228E-01    8.88       0.0  T
   2    -50.7232918 -0.944602E-05  0.172E-01    8.89       1.0  T
   3    -50.7233021 -0.102263E-04  0.180E-02    8.91       1.1  T
   4    -50.7233030 -0.884849E-06  0.717E-03    8.91       2.7  T
   5    -50.7233030 -0.605130E-07  0.238E-03    8.91       8.2  T
   6    -50.7233030 -0.739283E-08  0.141E-03    8.91      13.9  T
speedup  0.98
cpu  time for SCC    0.01 s
wall time for SCC    0.01 s
speedup  0.97
cpu  time for grad    0.01 s
wall time for grad    0.01 s
 E :    -50.44878286  G :  0.013416    pred/act E change: -0.203D-03 -0.112D-03
Maxdispl :   0.0587   ||displ|| :   0.1380   Lambda : -0.366D-03
Largest |displ|/coords:  0.0587 (  21)  0.0518 (  14)  0.0411 (   3)
................................................................................
.............................. CYCLE   35 ......................................
................................................................................
   1    -50.7283877 -0.507284E+02  0.689E-02    9.00       0.0  T
   2    -50.7283907 -0.309234E-05  0.508E-02    9.01       1.0  T
   3    -50.7283925 -0.176103E-05  0.114E-02    9.01       1.7  T
   4    -50.7283929 -0.352647E-06  0.483E-03    9.01       4.1  T
   5    -50.7283929 -0.290141E-07  0.987E-04    9.01      19.9  T
   6    -50.7283929 -0.133147E-08  0.597E-04    9.01      32.8  T
speedup  1.00
cpu  time for SCC    0.01 s
wall time for SCC    0.01 s
speedup  0.97
cpu  time for grad    0.01 s
wall time for grad    0.01 s
 E :    -50.44895746  G :  0.005651    pred/act E change: -0.182D-03 -0.175D-03
Maxdispl :   0.0789   ||displ|| :   0.1668   Lambda : -0.106D-03
Largest |displ|/coords:  0.0789 (   1)  0.0566 (  13)  0.0515 (  12)
................................................................................
.............................. CYCLE   36 ......................................
................................................................................
   1    -50.7267030 -0.507267E+02  0.103E-01    8.95       0.0  T
   2    -50.7267047 -0.172040E-05  0.769E-02    8.95       1.0  T
   3    -50.7267066 -0.188669E-05  0.101E-02    8.96       1.9  T
   4    -50.7267067 -0.134131E-06  0.234E-03    8.96       8.4  T
   5    -50.7267067 -0.990795E-08  0.961E-04    8.96      20.4  T
speedup  0.98
cpu  time for SCC    0.00 s
wall time for SCC    0.01 s
speedup  0.96
cpu  time for grad    0.01 s
wall time for grad    0.01 s
 E :    -50.44903322  G :  0.003812    pred/act E change: -0.186D-03 -0.758D-04
Maxdispl :   0.1066   ||displ|| :   0.2309   Lambda : -0.165D-03
Largest |displ|/coords:  0.1066 (   1)  0.0738 (  13)  0.0704 (   4)
................................................................................
.............................. CYCLE   37 ......................................
................................................................................
   1    -50.7263613 -0.507264E+02  0.146E-01    8.98       0.0  T
   2    -50.7263671 -0.579270E-05  0.108E-01    8.98       1.0  T
   3    -50.7263718 -0.471375E-05  0.170E-02    9.00       1.2  T
   4    -50.7263725 -0.672097E-06  0.506E-03    8.99       3.9  T
   5    -50.7263725 -0.359695E-07  0.178E-03    8.99      11.0  T
   6    -50.7263726 -0.521736E-08  0.100E-03    8.99      19.5  T
   7    -50.7263726 -0.162169E-08  0.280E-04    8.99      70.0  T
   8    -50.7263726 -0.250303E-09  0.582E-05    8.99     337.0  T
speedup  1.03
cpu  time for SCC    0.01 s
wall time for SCC    0.01 s
speedup  1.01
cpu  time for grad    0.02 s
wall time for grad    0.02 s
 E :    -50.44909930  G :  0.007869    pred/act E change: -0.546D-04 -0.661D-04
Maxdispl :   0.0338   ||displ|| :   0.0674   Lambda : -0.723D-04
Largest |displ|/coords:  0.0338 (   2)  0.0335 (   9)  0.0330 (   8)
................................................................................
.............................. CYCLE   38 ......................................
................................................................................
   1    -50.7267744 -0.507268E+02  0.406E-02    8.98       0.0  T
   2    -50.7267749 -0.542672E-06  0.300E-02    8.98       1.0  T
   3    -50.7267754 -0.446459E-06  0.532E-03    8.98       3.7  T
   4    -50.7267754 -0.565009E-07  0.135E-03    8.98      14.5  T
   5    -50.7267754 -0.273354E-08  0.489E-04    8.98      40.1  T
speedup  1.00
cpu  time for SCC    0.00 s
wall time for SCC    0.01 s
speedup  0.98
cpu  time for grad    0.01 s
wall time for grad    0.01 s
 E :    -50.44914051  G :  0.003239    pred/act E change: -0.867D-04 -0.412D-04
Maxdispl :   0.0302   ||displ|| :   0.0618   Lambda : -0.370D-04
Largest |displ|/coords:  0.0302 (   2)  0.0294 (   6)  0.0243 (   8)
................................................................................
.............................. CYCLE   39 ......................................
................................................................................
   1    -50.7278920 -0.507279E+02  0.322E-02    9.00       0.0  T
   2    -50.7278924 -0.375440E-06  0.237E-02    9.00       1.0  T
   3    -50.7278926 -0.179141E-06  0.499E-03    9.00       3.9  T
   4    -50.7278927 -0.546513E-07  0.105E-03    9.00      18.8  T
   5    -50.7278927 -0.231736E-08  0.370E-04    9.00      53.0  T
   6    -50.7278927 -0.158565E-09  0.197E-04    9.00      99.7  T
speedup  1.02
cpu  time for SCC    0.01 s
wall time for SCC    0.01 s
speedup  0.95
cpu  time for grad    0.01 s
wall time for grad    0.01 s
 E :    -50.44916251  G :  0.002622    pred/act E change: -0.363D-04 -0.220D-04
Maxdispl :   0.0442   ||displ|| :   0.1129   Lambda : -0.377D-04
Largest |displ|/coords:  0.0442 (   1)  0.0393 (   4)  0.0392 (   9)
................................................................................
.............................. CYCLE   40 ......................................
................................................................................
   1    -50.7283039 -0.507283E+02  0.677E-02    9.01       0.0  T
   2    -50.7283047 -0.825306E-06  0.501E-02    9.01       1.0  T
   3    -50.7283054 -0.728746E-06  0.793E-03    9.01       2.5  T
   4    -50.7283055 -0.985503E-07  0.215E-03    9.01       9.1  T
   5    -50.7283055 -0.649431E-08  0.648E-04    9.01      30.3  T
   6    -50.7283055 -0.537504E-09  0.390E-04    9.01      50.3  T
speedup  1.00
cpu  time for SCC    0.01 s
wall time for SCC    0.01 s
speedup  1.01
cpu  time for grad    0.01 s
wall time for grad    0.01 s
 E :    -50.44918783  G :  0.002890    pred/act E change: -0.186D-04 -0.253D-04
Maxdispl :   0.0463   ||displ|| :   0.0924   Lambda : -0.273D-04
Largest |displ|/coords:  0.0463 (   2)  0.0340 (   4)  0.0308 (   9)
................................................................................
.............................. CYCLE   41 ......................................
................................................................................
   1    -50.7284363 -0.507284E+02  0.507E-02    9.02       0.0  T
   2    -50.7284368 -0.547538E-06  0.374E-02    9.02       1.0  T
   3    -50.7284373 -0.439768E-06  0.630E-03    9.02       3.1  T
   4    -50.7284373 -0.665110E-07  0.171E-03    9.02      11.4  T
   5    -50.7284373 -0.445026E-08  0.529E-04    9.02      37.1  T
   6    -50.7284373 -0.389200E-09  0.316E-04    9.02      62.2  T
speedup  0.98
cpu  time for SCC    0.01 s
wall time for SCC    0.01 s
speedup  0.99
cpu  time for grad    0.01 s
wall time for grad    0.02 s
 E :    -50.44920701  G :  0.002685    pred/act E change: -0.191D-04 -0.192D-04
Maxdispl :   0.0529   ||displ|| :   0.1221   Lambda : -0.282D-04
Largest |displ|/coords:  0.0529 (   4)  0.0515 (   2)  0.0508 (   1)
................................................................................
.............................. CYCLE   42 ......................................
................................................................................
   1    -50.7276407 -0.507276E+02  0.708E-02    8.98       0.0  T
   2    -50.7276417 -0.975512E-06  0.523E-02    8.98       1.0  T
   3    -50.7276426 -0.929988E-06  0.882E-03    8.97       2.2  T
   4    -50.7276427 -0.105891E-06  0.247E-03    8.97       7.9  T
   5    -50.7276427 -0.837080E-08  0.725E-04    8.97      27.0  T
   6    -50.7276427 -0.648335E-09  0.447E-04    8.97      43.8  T
speedup  1.00
cpu  time for SCC    0.01 s
wall time for SCC    0.01 s
speedup  1.01
cpu  time for grad    0.01 s
wall time for grad    0.01 s
 E :    -50.44922318  G :  0.003139    pred/act E change: -0.138D-04 -0.162D-04
Maxdispl :   0.0527   ||displ|| :   0.1028   Lambda : -0.273D-04
Largest |displ|/coords:  0.0527 (   2)  0.0344 (  11)  0.0316 (   5)
................................................................................
.............................. CYCLE   43 ......................................
................................................................................
   1    -50.7279098 -0.507279E+02  0.523E-02    9.00       0.0  T
   2    -50.7279105 -0.681756E-06  0.391E-02    8.99       1.0  T
   3    -50.7279111 -0.569317E-06  0.510E-03    8.98       3.8  T
   4    -50.7279112 -0.801082E-07  0.160E-03    8.98      12.3  T
   5    -50.7279112 -0.408029E-08  0.577E-04    8.98      34.0  T
   6    -50.7279112 -0.414261E-09  0.297E-04    8.98      66.0  T
speedup  0.98
cpu  time for SCC    0.01 s
wall time for SCC    0.01 s
speedup  0.99
cpu  time for grad    0.01 s
wall time for grad    0.02 s
 E :    -50.44923661  G :  0.002397    pred/act E change: -0.143D-04 -0.134D-04
Maxdispl :   0.0234   ||displ|| :   0.0412   Lambda : -0.140D-04
Largest |displ|/coords:  0.0234 (   1)  0.0190 (   9)  0.0120 (   4)
................................................................................
.............................. CYCLE   44 ......................................
................................................................................
   1    -50.7275932 -0.507276E+02  0.236E-02    8.97       0.0  T
   2    -50.7275933 -0.129479E-06  0.170E-02    8.97       1.2  T
   3    -50.7275934 -0.981744E-07  0.311E-03    8.97       6.3  T
   4    -50.7275934 -0.119755E-07  0.702E-04    8.97      27.9  T
   5    -50.7275934 -0.112013E-08  0.237E-04    8.97      82.8  T
speedup  1.00
cpu  time for SCC    0.00 s
wall time for SCC    0.00 s
speedup  1.01
cpu  time for grad    0.01 s
wall time for grad    0.01 s
 E :    -50.44924744  G :  0.001636    pred/act E change: -0.138D-04 -0.108D-04
Maxdispl :   0.0403   ||displ|| :   0.0708   Lambda : -0.164D-04
Largest |displ|/coords:  0.0403 (   1)  0.0324 (   9)  0.0206 (   2)
................................................................................
.............................. CYCLE   45 ......................................
................................................................................
   1    -50.7275080 -0.507275E+02  0.391E-02    8.96       0.0  T
   2    -50.7275084 -0.360079E-06  0.283E-02    8.96       1.0  T
   3    -50.7275087 -0.306552E-06  0.493E-03    8.96       4.0  T
   4    -50.7275087 -0.321857E-07  0.101E-03    8.96      19.5  T
   5    -50.7275087 -0.309602E-08  0.440E-04    8.96      44.6  T
   6    -50.7275087 -0.409898E-09  0.243E-04    8.96      80.6  T
speedup  0.85
cpu  time for SCC    0.01 s
wall time for SCC    0.01 s
speedup  0.95
cpu  time for grad    0.01 s
wall time for grad    0.01 s
 E :    -50.44925772  G :  0.001527    pred/act E change: -0.703D-05 -0.103D-04
Maxdispl :   0.0298   ||displ|| :   0.0556   Lambda : -0.694D-05
Largest |displ|/coords:  0.0298 (   1)  0.0215 (   9)  0.0192 (   2)
................................................................................
.............................. CYCLE   46 ......................................
................................................................................
   1    -50.7275974 -0.507276E+02  0.288E-02    8.95       0.0  T
   2    -50.7275975 -0.147755E-06  0.211E-02    8.96       1.0  T
   3    -50.7275977 -0.165938E-06  0.337E-03    8.96       5.8  T
   4    -50.7275977 -0.107249E-07  0.879E-04    8.96      22.3  T
   5    -50.7275977 -0.150688E-08  0.316E-04    8.96      62.0  T
speedup  0.96
cpu  time for SCC    0.00 s
wall time for SCC    0.01 s
speedup  1.05
cpu  time for grad    0.01 s
wall time for grad    0.01 s
 E :    -50.44926307  G :  0.001623    pred/act E change: -0.823D-05 -0.535D-05
Maxdispl :   0.0476   ||displ|| :   0.1005   Lambda : -0.119D-04
Largest |displ|/coords:  0.0476 (   1)  0.0382 (   2)  0.0345 (   9)
................................................................................
.............................. CYCLE   47 ......................................
................................................................................
   1    -50.7277976 -0.507278E+02  0.527E-02    8.96       0.0  T
   2    -50.7277981 -0.513656E-06  0.389E-02    8.96       1.0  T
   3    -50.7277987 -0.548558E-06  0.589E-03    8.96       3.3  T
   4    -50.7277987 -0.420853E-07  0.207E-03    8.96       9.5  T
   5    -50.7277987 -0.578979E-08  0.575E-04    8.96      34.1  T
   6    -50.7277987 -0.394031E-09  0.385E-04    8.96      51.0  T
speedup  1.04
cpu  time for SCC    0.01 s
wall time for SCC    0.01 s
speedup  1.03
cpu  time for grad    0.02 s
wall time for grad    0.02 s
 E :    -50.44927133  G :  0.001673    pred/act E change: -0.348D-05 -0.825D-05
Maxdispl :   0.0342   ||displ|| :   0.0810   Lambda : -0.863D-05
Largest |displ|/coords:  0.0342 (   7)  0.0330 (   1)  0.0298 (   2)
................................................................................
.............................. CYCLE   48 ......................................
................................................................................
   1    -50.7278909 -0.507279E+02  0.434E-02    8.96       0.0  T
   2    -50.7278913 -0.324448E-06  0.323E-02    8.96       1.0  T
   3    -50.7278916 -0.323042E-06  0.446E-03    8.97       4.4  T
   4    -50.7278916 -0.319388E-07  0.172E-03    8.97      11.4  T
   5    -50.7278916 -0.331524E-08  0.442E-04    8.97      44.4  T
   6    -50.7278916 -0.250530E-09  0.295E-04    8.97      66.5  T
speedup  1.00
cpu  time for SCC    0.01 s
wall time for SCC    0.01 s
speedup  1.00
cpu  time for grad    0.01 s
wall time for grad    0.01 s
 E :    -50.44927765  G :  0.001503    pred/act E change: -0.602D-05 -0.632D-05
Maxdispl :   0.0349   ||displ|| :   0.0759   Lambda : -0.729D-05
Largest |displ|/coords:  0.0349 (   7)  0.0288 (   2)  0.0255 (   1)
................................................................................
.............................. CYCLE   49 ......................................
................................................................................
   1    -50.7278284 -0.507278E+02  0.431E-02    8.96       0.0  T
   2    -50.7278287 -0.308148E-06  0.322E-02    8.96       1.0  T
   3    -50.7278290 -0.284175E-06  0.435E-03    8.97       4.5  T
   4    -50.7278291 -0.352950E-07  0.160E-03    8.97      12.2  T
   5    -50.7278291 -0.262805E-08  0.405E-04    8.97      48.4  T
   6    -50.7278291 -0.206896E-09  0.264E-04    8.97      74.3  T
speedup  1.00
cpu  time for SCC    0.01 s
wall time for SCC    0.01 s
speedup  1.01
cpu  time for grad    0.01 s
wall time for grad    0.01 s
 E :    -50.44928266  G :  0.001205    pred/act E change: -0.434D-05 -0.501D-05
Maxdispl :   0.0224   ||displ|| :   0.0427   Lambda : -0.390D-05
Largest |displ|/coords:  0.0224 (   7)  0.0167 (   3)  0.0132 (   2)
................................................................................
.............................. CYCLE   50 ......................................
................................................................................
   1    -50.7277723 -0.507278E+02  0.269E-02    8.96       0.0  T
   2    -50.7277725 -0.105684E-06  0.201E-02    8.96       1.0  T
   3    -50.7277725 -0.940365E-07  0.259E-03    8.96       7.6  T
   4    -50.7277726 -0.130707E-07  0.838E-04    8.96      23.4  T
   5    -50.7277726 -0.653273E-09  0.228E-04    8.96      86.1  T
speedup  1.02
cpu  time for SCC    0.00 s
wall time for SCC    0.00 s
speedup  1.01
cpu  time for grad    0.01 s
wall time for grad    0.01 s
 E :    -50.44928538  G :  0.000977    pred/act E change: -0.366D-05 -0.272D-05
Maxdispl :   0.0129   ||displ|| :   0.0269   Lambda : -0.225D-05
Largest |displ|/coords:  0.0129 (   7)  0.0110 (   3)  0.0083 (   2)
................................................................................
.............................. CYCLE   51 ......................................
................................................................................
   1    -50.7276362 -0.507276E+02  0.177E-02    8.96       0.0  T
   2    -50.7276362 -0.494046E-07  0.132E-02    8.96       1.5  T
   3    -50.7276363 -0.422405E-07  0.177E-03    8.96      11.1  T
   4    -50.7276363 -0.644801E-08  0.514E-04    8.96      38.1  T
   5    -50.7276363 -0.242686E-09  0.136E-04    8.96     144.7  T
speedup  0.98
cpu  time for SCC    0.00 s
wall time for SCC    0.01 s
speedup  1.01
cpu  time for grad    0.01 s
wall time for grad    0.01 s
 E :    -50.44928688  G :  0.000668    pred/act E change: -0.195D-05 -0.150D-05
Maxdispl :   0.0055   ||displ|| :   0.0142   Lambda : -0.106D-05
Largest |displ|/coords:  0.0055 (   6)  0.0053 (   3)  0.0048 (   8)
................................................................................
.............................. CYCLE   52 ......................................
................................................................................
   1    -50.7276898 -0.507277E+02  0.853E-03    8.96       0.0  T
   2    -50.7276898 -0.191880E-07  0.643E-03    8.96       3.0  T
   3    -50.7276899 -0.138939E-07  0.738E-04    8.96      26.6  T
   4    -50.7276899 -0.301358E-08  0.373E-04    8.96      52.6  T
speedup  1.14
cpu  time for SCC    0.00 s
wall time for SCC    0.00 s
speedup  1.03
cpu  time for grad    0.01 s
wall time for grad    0.01 s
 E :    -50.44928756  G :  0.000508    pred/act E change: -0.113D-05 -0.679D-06
Maxdispl :   0.0055   ||displ|| :   0.0117   Lambda : -0.756D-06
Largest |displ|/coords:  0.0055 (   1)  0.0040 (   4)  0.0040 (   6)

generating ANC from model Hessian ...
 Shifting diagonal of input Hessian by   5.049924066420406E-003
 Lowest  eigenvalues of input Hessian
    0.005000   -0.000000   -0.000000    0.000000    0.000000    0.000000
    0.000000    0.005286    0.005579    0.005863    0.006079    0.006831
    0.007119    0.007310    0.008430    0.008844    0.009532    0.010310
 Highest eigenvalues
    1.377219    1.390778    1.406933    2.577374    3.538247    3.615417
 
cpu  time for ANC gen    0.02 s
wall time for ANC gen    0.02 s
................................................................................
.............................. CYCLE   53 ......................................
................................................................................
   1    -50.7275499 -0.507275E+02  0.735E-03    8.96       0.0  T
   2    -50.7275499 -0.179271E-07  0.539E-03    8.96       3.6  T
   3    -50.7275499 -0.808429E-08  0.115E-03    8.96      17.0  T
   4    -50.7275499 -0.252275E-08  0.329E-04    8.96      59.6  T
   5    -50.7275499 -0.108166E-09  0.602E-05    8.96     325.6  T
speedup  0.98
cpu  time for SCC    0.00 s
wall time for SCC    0.01 s
speedup  1.00
cpu  time for grad    0.01 s
wall time for grad    0.01 s
 E :    -50.44928800  G :  0.000369    pred/act E change:  0.000D+00 -0.439D-06
Maxdispl :   0.0023   ||displ|| :   0.0061   Lambda : -0.583D-06
Largest |displ|/coords:  0.0023 (   7)  0.0021 (   3)  0.0020 (  16)
................................................................................
.............................. CYCLE   54 ......................................
................................................................................
   1    -50.7275851 -0.507276E+02  0.416E-03    8.96       0.0  T
   2    -50.7275851 -0.336209E-08  0.313E-03    8.96       6.3  T
   3    -50.7275851 -0.336643E-08  0.383E-04    8.96      51.3  T
   4    -50.7275851 -0.317179E-09  0.127E-04    8.96     154.9  T
speedup  0.95
cpu  time for SCC    0.00 s
wall time for SCC    0.00 s
speedup  0.99
cpu  time for grad    0.01 s
wall time for grad    0.01 s
 E :    -50.44928848  G :  0.000233    pred/act E change:  0.000D+00 -0.483D-06
Maxdispl :   0.0094   ||displ|| :   0.0201   Lambda : -0.133D-05
Largest |displ|/coords:  0.0094 (   7)  0.0092 (   3)  0.0060 (  16)
................................................................................
.............................. CYCLE   55 ......................................
................................................................................
   1    -50.7276456 -0.507276E+02  0.128E-02    8.96       0.0  T
   2    -50.7276456 -0.295522E-07  0.964E-03    8.96       2.0  T
   3    -50.7276456 -0.318655E-07  0.116E-03    8.96      16.9  T
   4    -50.7276456 -0.251259E-08  0.367E-04    8.96      53.4  T
   5    -50.7276456 -0.168086E-09  0.990E-05    8.96     198.0  T
speedup  0.98
cpu  time for SCC    0.00 s
wall time for SCC    0.01 s
speedup  0.99
cpu  time for grad    0.01 s
wall time for grad    0.01 s
 E :    -50.44928926  G :  0.000303    pred/act E change: -0.292D-06 -0.778D-06
Maxdispl :   0.0063   ||displ|| :   0.0142   Lambda : -0.550D-06
Largest |displ|/coords:  0.0063 (   5)  0.0056 (   7)  0.0054 (   2)
................................................................................
.............................. CYCLE   56 ......................................
................................................................................
   1    -50.7276402 -0.507276E+02  0.874E-03    8.96       0.0  T
   2    -50.7276402 -0.133135E-07  0.659E-03    8.96       3.0  T
   3    -50.7276403 -0.163474E-07  0.746E-04    8.96      26.3  T
   4    -50.7276403 -0.869335E-09  0.247E-04    8.96      79.3  T
speedup  0.98
cpu  time for SCC    0.00 s
wall time for SCC    0.00 s
speedup  1.00
cpu  time for grad    0.01 s
wall time for grad    0.01 s
 E :    -50.44928964  G :  0.000325    pred/act E change: -0.667D-06 -0.381D-06
Maxdispl :   0.0096   ||displ|| :   0.0196   Lambda : -0.622D-06
Largest |displ|/coords:  0.0096 (   7)  0.0080 (   3)  0.0080 (   5)
................................................................................
.............................. CYCLE   57 ......................................
................................................................................
   1    -50.7276098 -0.507276E+02  0.114E-02    8.96       0.0  T
   2    -50.7276098 -0.227357E-07  0.858E-03    8.96       2.3  T
   3    -50.7276098 -0.282729E-07  0.916E-04    8.96      21.4  T
   4    -50.7276098 -0.139070E-08  0.318E-04    8.96      61.7  T
speedup  1.19
cpu  time for SCC    0.01 s
wall time for SCC    0.00 s
speedup  0.99
cpu  time for grad    0.01 s
wall time for grad    0.01 s
 E :    -50.44929012  G :  0.000314    pred/act E change: -0.275D-06 -0.475D-06
Maxdispl :   0.0123   ||displ|| :   0.0236   Lambda : -0.660D-06
Largest |displ|/coords:  0.0123 (   5)  0.0096 (   7)  0.0095 (   3)
................................................................................
.............................. CYCLE   58 ......................................
................................................................................
   1    -50.7275701 -0.507276E+02  0.125E-02    8.95       0.0  T
   2    -50.7275702 -0.292980E-07  0.941E-03    8.95       2.1  T
   3    -50.7275702 -0.336730E-07  0.104E-03    8.95      18.8  T
   4    -50.7275702 -0.220468E-08  0.406E-04    8.95      48.3  T
   5    -50.7275702 -0.204849E-09  0.105E-04    8.95     186.7  T
speedup  1.15
cpu  time for SCC    0.01 s
wall time for SCC    0.01 s
speedup  1.05
cpu  time for grad    0.01 s
wall time for grad    0.01 s
 E :    -50.44929055  G :  0.000261    pred/act E change: -0.311D-06 -0.437D-06
Maxdispl :   0.0084   ||displ|| :   0.0153   Lambda : -0.346D-06
Largest |displ|/coords:  0.0084 (   5)  0.0073 (   7)  0.0050 (   2)
................................................................................
.............................. CYCLE   59 ......................................
................................................................................
   1    -50.7275522 -0.507276E+02  0.789E-03    8.95       0.0  T
   2    -50.7275522 -0.125476E-07  0.596E-03    8.95       3.3  T
   3    -50.7275522 -0.142156E-07  0.639E-04    8.95      30.7  T
   4    -50.7275522 -0.105214E-08  0.294E-04    8.95      66.7  T
speedup  0.91
cpu  time for SCC    0.00 s
wall time for SCC    0.00 s
speedup  0.97
cpu  time for grad    0.01 s
wall time for grad    0.01 s
 E :    -50.44929079  G :  0.000211    pred/act E change: -0.330D-06 -0.231D-06
Maxdispl :   0.0072   ||displ|| :   0.0108   Lambda : -0.293D-06
Largest |displ|/coords:  0.0072 (   5)  0.0034 (   7)  0.0033 (   4)
................................................................................
.............................. CYCLE   60 ......................................
................................................................................
   1    -50.7275612 -0.507276E+02  0.501E-03    8.95       0.0  T
   2    -50.7275612 -0.561391E-08  0.377E-03    8.95       5.2  T
   3    -50.7275612 -0.533245E-08  0.477E-04    8.95      41.1  T
   4    -50.7275612 -0.598014E-09  0.227E-04    8.95      86.2  T
speedup  0.98
cpu  time for SCC    0.00 s
wall time for SCC    0.00 s
speedup  1.00
cpu  time for grad    0.01 s
wall time for grad    0.01 s
 E :    -50.44929102  G :  0.000177    pred/act E change: -0.173D-06 -0.236D-06
Maxdispl :   0.0129   ||displ|| :   0.0192   Lambda : -0.428D-06
Largest |displ|/coords:  0.0129 (   5)  0.0076 (   4)  0.0057 (   7)
................................................................................
.............................. CYCLE   61 ......................................
................................................................................
   1    -50.7275734 -0.507276E+02  0.933E-03    8.95       0.0  T
   2    -50.7275734 -0.172733E-07  0.703E-03    8.95       2.8  T
   3    -50.7275735 -0.184742E-07  0.821E-04    8.95      23.9  T
   4    -50.7275735 -0.154381E-08  0.362E-04    8.95      54.2  T
speedup  0.93
cpu  time for SCC    0.00 s
wall time for SCC    0.00 s
speedup  0.98
cpu  time for grad    0.01 s
wall time for grad    0.01 s
 E :    -50.44929131  G :  0.000260    pred/act E change: -0.146D-06 -0.286D-06
Maxdispl :   0.0095   ||displ|| :   0.0153   Lambda : -0.302D-06
Largest |displ|/coords:  0.0095 (   5)  0.0069 (   4)  0.0042 (   7)
................................................................................
.............................. CYCLE   62 ......................................
................................................................................
   1    -50.7275772 -0.507276E+02  0.763E-03    8.95       0.0  T
   2    -50.7275772 -0.101288E-07  0.574E-03    8.96       3.4  T
   3    -50.7275772 -0.120286E-07  0.615E-04    8.96      31.9  T
   4    -50.7275772 -0.681844E-09  0.237E-04    8.96      82.8  T
speedup  0.95
cpu  time for SCC    0.00 s
wall time for SCC    0.00 s
speedup  0.99
cpu  time for grad    0.01 s
wall time for grad    0.01 s
 E :    -50.44929151  G :  0.000280    pred/act E change: -0.214D-06 -0.206D-06
Maxdispl :   0.0120   ||displ|| :   0.0196   Lambda : -0.332D-06
Largest |displ|/coords:  0.0120 (   5)  0.0087 (   4)  0.0062 (   3)
................................................................................
.............................. CYCLE   63 ......................................
................................................................................
   1    -50.7275686 -0.507276E+02  0.981E-03    8.96       0.0  T
   2    -50.7275686 -0.166185E-07  0.738E-03    8.96       2.7  T
   3    -50.7275686 -0.203875E-07  0.786E-04    8.96      24.9  T
   4    -50.7275686 -0.985033E-09  0.288E-04    8.96      68.0  T
speedup  0.93
cpu  time for SCC    0.00 s
wall time for SCC    0.00 s
speedup  0.98
cpu  time for grad    0.01 s
wall time for grad    0.01 s
 E :    -50.44929175  G :  0.000229    pred/act E change: -0.151D-06 -0.240D-06
Maxdispl :   0.0064   ||displ|| :   0.0128   Lambda : -0.241D-06
Largest |displ|/coords:  0.0064 (   5)  0.0057 (   4)  0.0054 (   3)
................................................................................
.............................. CYCLE   64 ......................................
................................................................................
   1    -50.7275542 -0.507276E+02  0.666E-03    8.96       0.0  T
   2    -50.7275542 -0.766072E-08  0.499E-03    8.96       3.9  T
   3    -50.7275542 -0.917129E-08  0.560E-04    8.96      35.0  T
   4    -50.7275542 -0.422396E-09  0.203E-04    8.96      96.8  T
speedup  0.98
cpu  time for SCC    0.00 s
wall time for SCC    0.00 s
speedup  0.99
cpu  time for grad    0.01 s
wall time for grad    0.01 s
 E :    -50.44929194  G :  0.000136    pred/act E change: -0.166D-06 -0.187D-06
Maxdispl :   0.0049   ||displ|| :   0.0096   Lambda : -0.154D-06
Largest |displ|/coords:  0.0049 (   3)  0.0039 (   5)  0.0033 (   4)
................................................................................
.............................. CYCLE   65 ......................................
................................................................................
   1    -50.7275390 -0.507275E+02  0.523E-03    8.96       0.0  T
   2    -50.7275390 -0.469674E-08  0.389E-03    8.96       5.0  T
   3    -50.7275390 -0.516438E-08  0.491E-04    8.96      39.9  T
   4    -50.7275390 -0.285389E-09  0.179E-04    8.96     109.9  T
speedup  0.98
cpu  time for SCC    0.00 s
wall time for SCC    0.00 s
speedup  1.02
cpu  time for grad    0.01 s
wall time for grad    0.01 s
 E :    -50.44929205  G :  0.000102    pred/act E change: -0.120D-06 -0.108D-06
Maxdispl :   0.0015   ||displ|| :   0.0038   Lambda : -0.608D-07
Largest |displ|/coords:  0.0015 (   5)  0.0013 (   8)  0.0012 (   2)
................................................................................
.............................. CYCLE   66 ......................................
................................................................................
   1    -50.7275378 -0.507275E+02  0.255E-03    8.96       0.0  T
   2    -50.7275378 -0.113234E-08  0.190E-03    8.96      10.3  T
   3    -50.7275378 -0.113022E-08  0.264E-04    8.96      74.4  T
   4    -50.7275378 -0.938343E-10  0.999E-05    8.96     196.4  T
speedup  1.16
cpu  time for SCC    0.00 s
wall time for SCC    0.00 s
speedup  1.06
cpu  time for grad    0.01 s
wall time for grad    0.01 s
 E :    -50.44929210  G :  0.000080    pred/act E change: -0.768D-07 -0.483D-07
Maxdispl :   0.0042   ||displ|| :   0.0082   Lambda : -0.711D-07
Largest |displ|/coords:  0.0042 (   3)  0.0029 (   5)  0.0028 (   7)

   *** GEOMETRY OPTIMIZATION CONVERGED AFTER 66 ITERATIONS ***

------------------------------------------------------------------------
 total energy gain (kcal):     -0.0026
------------------------------------------------------------------------
================
 final structure:
================
$coord
        2.79313419696292        1.06103055769478        3.27634055317654      S 
        0.91867828179160        3.03124809848111        3.58127578734444      O 
        2.35353687433793       -1.13034216489156        4.85038746824736      O 
        3.15524931440027        0.40202351533944        0.62055842329173      O 
        5.41716128758575        2.23414859399127        4.13946844447558      O 
        5.10369150794983        2.63512923333597        5.86396407369716      H 
       -3.42737766831478        2.60629640791079       -2.15511331299522      O 
       -4.24471610684962        4.22283586629705       -2.15874205868418      H 
        2.34901313521540       -1.15447871216268       -5.06861633376485      O 
        3.67228645127568       -1.67340405791636       -3.93597758989719      H 
        0.76802145429291       -2.03371078770358       -4.43567841023790      H 
       -1.20099140055302       -3.61137241136280        2.54583972220934      O 
        0.26229169829640       -2.77578816389536        3.35528315286228      H 
       -1.71959529155407       -4.90862318940195        3.70087678107767      H 
       -3.47829001031188        1.02755900509068        2.42775673227763      O 
       -3.55484827872137        1.96484930989158       -0.35641943433556      H 
       -3.00102096906318       -0.74991187074001        2.47987715117806      H 
       -1.98948200479680        1.93282998102307        3.06990951295999      H 
        1.33266912314701        2.89344314173712       -2.87036675697401      O 
        2.12240478507288        2.12416553313447       -1.21957565078654      H 
        1.75885656493902        1.38577868194035       -4.11121391459292      H 
       -0.59678403807254        2.85049895237459       -2.62055917939231      H 
       -1.77087892535994       -2.96888155077285       -3.01611340798009      N 
       -3.03949098623357       -1.53467487127959       -3.08043041280445      H 
       -1.36738188232551       -3.29712660236254       -1.16479685092558      H 
       -2.61613705642923       -4.53352251461893       -3.71793448945222      H 
$end
 
 Bond Distances (Angstroems)
 ---------------------------
S1-O2=1.4481         S1-O3=1.4466         S1-O4=1.4606         S1-O5=1.5881         O2-S1=1.4481         O3-S1=1.4466         
O4-S1=1.4606         O5-S1=1.5881         O5-H6=0.9515         H6-O5=0.9515         O7-H8=0.9586         O7-H16=1.0128        
H8-O7=0.9586         O9-H10=0.9618        O9-H11=1.0142        H10-O9=0.9618        H11-O9=1.0142        O12-H13=0.9892       
O12-H14=0.9592       H13-O12=0.9892       H14-O12=0.9592       O15-H17=0.9743       O15-H18=0.9827       H16-O7=1.0128        
H17-O15=0.9743       H18-O15=0.9827       O19-H20=1.0505       O19-H21=1.0576       O19-H22=1.0298       H20-O19=1.0505       
H21-O19=1.0576       H22-O19=1.0298       N23-H24=1.0138       N23-H25=1.0176       N23-H26=1.0117       H24-N23=1.0138       
H25-N23=1.0176       H26-N23=1.0117       
 N  H  Rav=1.0144 sigma=0.0024  Rmin=1.0117  Rmax=1.0176     3
 O  H  Rav=0.9952 sigma=0.0355  Rmin=0.9515  Rmax=1.0576    12
 S  O  Rav=1.4859 sigma=0.0593  Rmin=1.4466  Rmax=1.5881     4
 
 selected bond angles (degree)
 --------------------
O3-S1-O2=113.76                O4-S1-O2=111.65                O4-S1-O3=112.56                O5-S1-O2=106.58                
O5-S1-O3=106.76                O5-S1-O4=104.79                H6-O5-S1=102.16                H16-O7-H8=105.72               
H11-O9-H10=105.30              
 
 selected dihedral angles (degree)
 ---------------------------------
H6-O5-S1-O2= 61.51            H6-O5-S1-O3=299.59            H6-O5-S1-O4=179.99            
 
 CMA Distance (Angstroems)
 ---------------------------
R(CMA):  3.2786

========================================================================
 FINAL SINGLEPOINT CALCULATION ON OPTIMIZED GEOMETRY
========================================================================

 Ncao       : 65
 Nao        : 64
 Nshell     : 38
 Nel        : 80
 T(el)      :   300.0
 intcut     :    25.0
 scfconv/Eh :  0.100E-05
   qconv/e  :  0.100E-03
 intneglect :  0.100E-07
 broydamp   :      0.250
 iter      E             dE          RMSdq      gap      omega  full diag
   1    -50.7275378 -0.507275E+02  0.435E-05    8.96       0.0  T
   2    -50.7275378 -0.596856E-12  0.270E-05    8.96     727.0  T
   3    -50.7275378 -0.454747E-12  0.291E-06    8.96    6737.6  T
speedup  0.97
cpu  time for SCC    0.00 s
wall time for SCC    0.00 s

   *** convergence criteria satisfied after 3 iterations ***

          eigenvalues
 #    :          28         29         30         31         32         33         34         35
 occ. :        2.000      2.000      2.000      2.000      2.000      2.000      2.000      2.000
 eps  :       -13.536    -13.293    -12.617    -12.582    -12.377    -12.241    -12.131    -12.110
 #    :          36         37         38         39         40         41         42         43
 occ. :        2.000      2.000      2.000      2.000      2.000      0.000      0.000      0.000
 eps  :       -11.965    -11.851    -11.797    -11.664    -11.190     -2.233     -0.606     -0.360
 #    :          44         45         46         47         48         49         50         51
 occ. :        0.000      0.000      0.000      0.000      0.000      0.000      0.000      0.000
 eps  :         0.692      1.475      1.524      1.710      2.697      4.010      4.186      4.795


   #   Z            q   n(s)   n(p)   n(d)      C6AA      α(0)
   1  16 S      1.657  1.582  1.799  0.961    89.746    15.944
   2   8 O     -0.737  1.771  4.966  0.000    29.729     7.310
   3   8 O     -0.729  1.772  4.957  0.000    29.504     7.283
   4   8 O     -0.718  1.756  4.962  0.000    29.169     7.243
   5   8 O     -0.586  1.750  4.835  0.000    24.816     6.725
   6   1 H      0.342  0.658  0.000  0.000     0.599     1.211
   7   8 O     -0.623  1.754  4.869  0.000    25.745     6.848
   8   1 H      0.291  0.709  0.000  0.000     0.747     1.358
   9   8 O     -0.598  1.755  4.843  0.000    25.130     6.767
  10   1 H      0.304  0.696  0.000  0.000     0.708     1.322
  11   1 H      0.330  0.670  0.000  0.000     0.634     1.249
  12   8 O     -0.629  1.745  4.883  0.000    25.886     6.867
  13   1 H      0.328  0.672  0.000  0.000     0.643     1.260
  14   1 H      0.289  0.711  0.000  0.000     0.755     1.365
  15   8 O     -0.631  1.756  4.875  0.000    25.943     6.875
  16   1 H      0.349  0.651  0.000  0.000     0.591     1.208
  17   1 H      0.316  0.684  0.000  0.000     0.674     1.290
  18   1 H      0.323  0.677  0.000  0.000     0.655     1.271
  19   8 O     -0.515  1.734  4.782  0.000    23.159     6.500
  20   1 H      0.387  0.613  0.000  0.000     0.505     1.115
  21   1 H      0.388  0.612  0.000  0.000     0.506     1.117
  22   1 H      0.382  0.618  0.000  0.000     0.520     1.133
  23   7 N     -0.455  1.368  4.087  0.000    31.953     8.395
  24   1 H      0.182  0.818  0.000  0.000     1.204     1.719
  25   1 H      0.198  0.802  0.000  0.000     1.116     1.655
  26   1 H      0.154  0.846  0.000  0.000     1.374     1.836

 Mol. C6AA /au·bohr⁶  :       5468.148585
 Mol. C8AA /au·bohr⁸  :     118245.085755
 Mol. α(0) /au        :        106.863899

 
 Wiberg/Mayer (AO) data. WBOs > 0.1 written file <wbo>
 largest (>0.05) Wiberg bond orders for each atom
           total WBO             WBO to atom ...
     1  S   4.884    O    2 1.336    O    3 1.335    O    4 1.285    O    5 0.891
     2  O   1.725    S    1 1.336    O    3 0.114    O    4 0.110    O    5 0.076    H   18 0.062
     3  O   1.742    S    1 1.335    O    2 0.114    O    4 0.102    H   13 0.077    O    5 0.076
     4  O   1.778    S    1 1.285    H   20 0.163    O    2 0.110    O    3 0.102    O    5 0.059
     5  O   1.973    S    1 0.891    H    6 0.867    O    3 0.076    O    2 0.076    O    4 0.059
     6  H   0.883    O    5 0.867
     7  O   1.926    H    8 0.910    H   16 0.753    H   22 0.145    O   19 0.053    O   15 0.051
     8  H   0.915    O    7 0.910
     9  O   1.977    H   10 0.904    H   11 0.759    H   21 0.185    O   19 0.066    N   23 0.056
    10  H   0.907    O    9 0.904
    11  H   0.891    O    9 0.759    N   23 0.130
    12  O   1.858    H   14 0.910    H   13 0.809
    13  H   0.893    O   12 0.809    O    3 0.077
    14  H   0.917    O   12 0.910
    15  O   1.913    H   17 0.849    H   18 0.830    H   16 0.123    O    7 0.051
    16  H   0.878    O    7 0.753    O   15 0.123
    17  H   0.900    O   15 0.849
    18  H   0.895    O   15 0.830    O    2 0.062
    19  O   2.233    H   22 0.707    H   20 0.678    H   21 0.661    O    9 0.066    O    7 0.053
    20  H   0.850    O   19 0.678    O    4 0.163
    21  H   0.849    O   19 0.661    O    9 0.185
    22  H   0.854    O   19 0.707    O    7 0.145
    23  N   3.079    H   26 0.973    H   24 0.958    H   25 0.938    H   11 0.130    O    9 0.056
    24  H   0.967    N   23 0.958
    25  H   0.961    N   23 0.938
    26  H   0.976    N   23 0.973
 MOs/occ written to file <molden.input>
 
molecular dipole:
                 x           y           z       tot (Debye)
 q only:       -0.719      -0.187      -1.417
   full:       -0.630      -0.457      -0.260       2.086
molecular quadrupole (traceless):
                xx          xy          yy          xz          yz          zz
 q only:       -3.315       1.450       5.353       2.169      -1.316      -2.038
  q+dip:       -2.551       2.043       6.516       7.073      -0.466      -3.965
   full:       -2.516       2.304       6.503       7.615      -0.441      -3.987

SCC energy    :     -50.7275378
rep           :       0.2778602
ES            :       0.2485890
AES           :      -0.0660206
AXC           :      -0.0069369
disp          :      -0.0187325
XB            :       0.0000000
fix           :       0.0000000
total E       :     -50.4492921
atomizationE  :       4.9795963     3124.74
(atE without considering molecular charge,
 total energy contains solvation terms)
H-L gap (eV)  :          8.9565
optimized geometry written to: xtbopt.xyz


------------------------------------------------------------------------
 * finished run on 2019/09/16 at 12:02:54.280     
------------------------------------------------------------------------
 total:
 * wall-time:     0 d,  0 h,  0 min,  2.658 sec
 *  cpu-time:     0 d,  0 h,  0 min,  2.639 sec
 * ratio c/w:     0.993 speedup
 SCF:
 * wall-time:     0 d,  0 h,  0 min,  0.523 sec
 *  cpu-time:     0 d,  0 h,  0 min,  0.518 sec
 * ratio c/w:     0.990 speedup
 ANC optimizer:
 * wall-time:     0 d,  0 h,  0 min,  2.080 sec
 *  cpu-time:     0 d,  0 h,  0 min,  2.069 sec
 * ratio c/w:     0.995 speedup

