      -----------------------------------------------------------      
     |                   =====================                   |     
     |                           x T B                           |     
     |                   =====================                   |     
     |                         S. Grimme                         |     
     |          Mulliken Center for Theoretical Chemistry        |     
     |                    University of Bonn                     |     
     |                 Version 6.0.1 (SAW181210)                 |     
      -----------------------------------------------------------      

   This program is distributed in the hope that it will be useful,
   but WITHOUT ANY WARRANTY; without even the implied warranty of
   MERCHANTABILITY or FITNESS FOR A PARTICULAR PURPOSE.
   
   FOR NON-COMMERCIAL, ACADEMIA USE ONLY.
   
   Cite this work as:
   S. Grimme, C. Bannwarth, P. Shushkov, J. Comput. Theory Chem., 2017,
   13, 1989-2009.
   C. Bannwarth, S. Ehlert and S. Grimme., ChemRxiv, 2018, preprint.
   http://doi.org/10.26434/chemrxiv.7246238.v1
   
   for sTDA-xTB:
   S. Grimme and C. Bannwarth, J. Chem. Phys., 2016, 145, 054103.
   
   in the mass-spec context:
   V. Asgeirsson, C. Bauer and S. Grimme, Chem. Sci., 2017, 8, 4879.
   
   if GBSA is used:
   P. Shushkov, F. März and S. Grimme, unpublished.
   
   for ANC optimizer:
   S. Grimme, unpublished.
   Rational Function algorithm used in ANCopt:
   F. Eckert, P. Pulay, H.-J. Werner, J. Comput. Chem., 1997, 18, 1473.
   
   with help from (in alphabetical order)
   C. Bannwarth, F. Bohle, G. Brandenburg, E. Caldeweyher, M. Checinski,
   S. Dohm, S. Ehlert, S. Ehrlich, F. März, H. Neugebauer, J. Pisarek,
   P. Pracht, P. Shushkov, and S. Spicher.
   
 * started run on 2019/09/16 at 12:04:02.654     
========================================================================
 # omp threads = 1
========================================================================
number of atoms            : 26
number of electrons        : 80
charge                     : 0
spin                       : .0
first test random number   : .1823

########################################################################
# WARNING! Please study the warnings concerning your input carefully
#  - XTBPATH is not set, using XTBHOME instead
#  - the use of '-opt' is discouraged, please use '--opt' next time
#  - the use of '-chrg' is discouraged, please use '--chrg' next time
#  - the use of '-uhf' is discouraged, please use '--uhf' next time
########################################################################

           ------------------------------------------------- 
          |                 G F N 2 - x T B                 |
          | Geometry, Frequencies, Noncovalent interactions |
          |            JCTC 2018 parametrisation            |
           ------------------------------------------------- 
      method parameters     
 k(s)        :  1.8500
 k(p)        :  2.2300
 k(d)        :  2.2300
 k(f)        :  2.0000
 kEN (H0ij)  : -2.0000
 D4 a1       :  0.5200
 D4 a2       :  5.0000
 D4 s6       :  1.0000
 D4 s8       :  2.7000
 D4 s9       :  5.0000
 alphaj      :  2.0000


            Z     q(EN)     CN     RAES       Cart. coordinates
     1  S   6.0    0.65    4.26    4.17    -1.47808     0.29835    -4.96461
     2  O   6.0   -0.31    1.22    1.80    -2.80977     2.56534    -3.95690
     3  O   6.0   -0.31    1.20    1.80     1.30446     0.67143    -4.74927
     4  O   6.0   -0.31    1.24    1.80    -2.23803    -1.97232    -3.48317
     5  O   6.0   -0.25    2.08    1.84    -2.15953    -0.06600    -7.63208
     6  H   1.0    0.15    1.21    1.47    -1.67023     1.39659    -8.58733
     7  O   6.0   -0.38    1.64    1.81    -2.30264     0.66971     3.41105
     8  H   1.0    0.17    0.94    1.42    -3.04568     0.94337     5.10124
     9  O   6.0   -0.31    2.06    1.83     3.44170     3.11601    -0.91979
    10  H   1.0    0.18    1.05    1.44     2.91859     2.12454    -2.35435
    11  H   1.0    0.15    0.97    1.43     5.18233     3.54365    -1.23906
    12  O   6.0   -0.29    2.05    1.83     1.47846    -5.41399     2.68308
    13  H   1.0    0.15    0.97    1.43     2.82233    -6.62072     2.91210
    14  H   1.0    0.15    1.05    1.44     2.19249    -3.80455     3.14620
    15  O   6.0   -0.22    2.92    2.58    -2.69307    -3.27466     1.20628
    16  H   1.0    0.16    1.21    1.47    -2.72433    -1.68268     2.18324
    17  H   1.0    0.16    1.07    1.44    -2.70322    -2.96603    -0.63618
    18  H   1.0    0.14    1.05    1.44    -1.28000    -4.38349     1.72128
    19  O   6.0   -0.23    2.92    2.59    -1.23390     3.95743     0.49493
    20  H   1.0    0.14    1.04    1.43     0.61272     3.91181     0.21603
    21  H   1.0    0.15    1.06    1.44    -2.18812     3.74183    -1.09661
    22  H   1.0    0.16    1.22    1.47    -1.77370     2.73819     1.80396
    23  N   5.0   -0.23    3.03    1.93     2.70030    -0.42475     3.65158
    24  H   1.0    0.10    0.99    1.43     3.47832     0.41028     5.20351
    25  H   1.0    0.13    1.06    1.44     0.81306    -0.05015     3.74678
    26  H   1.0    0.11    1.00    1.43     3.35553     0.57078     2.13809

  Z AO/shell   Hii/eV     exponent
  1     Wed Apr 25 08:07:45 CEST 2018   EN: 2.200 GM2: 0.406  GM3: 0.0800  RAES: 1.40
     1s    -10.707211    1.230000
  7     Wed Apr 25 08:07:45 CEST 2018   EN: 3.040 GM2: 0.461  GM3:-0.0640  RAES: 1.90
     2s    -16.686243    2.339881
     2p    -12.523956    2.014332
  8     Wed Apr 25 08:07:45 CEST 2018   EN: 3.440 GM2: 0.452  GM3:-0.0517  RAES: 1.80
     2s    -20.229985    2.439742
     2p    -15.503117    2.137023
 16     Tue Apr 24 11:44:34 CEST 2018   EN: 2.580 GM2: 0.340  GM3:-0.0502  RAES: 3.10
     3s    -20.029654    1.981333
     3p    -11.377694    2.025643
     3d     -0.420282    1.702555
 no old-style atom pair restraining (fixing) potential

molecular fragmentation (1/2 indicates fragments):
11111122222222222222222222
# atoms in fragment 1/2:     6    20
 fragment masses (1/2) :       97.07      108.11
CMA distance (Bohr)    :   6.933
constraining FC (au)   :  0.0500
           ------------------------------------------------- 
          |        Self-Consistent Charge Iterations        |
           ------------------------------------------------- 

 Ncao       : 65
 Nao        : 64
 Nshell     : 38
 Nel        : 80
 T(el)      :   300.0
 intcut     :    25.0
 scfconv/Eh :  0.100E-05
   qconv/e  :  0.100E-03
 intneglect :  0.100E-07
 broydamp   :      0.250
 iter      E             dE          RMSdq      gap      omega  full diag
   1    -50.5762971 -0.505763E+02  0.704E+00   10.00       0.0  T
   2    -50.6271633 -0.508662E-01  0.508E+00    9.18       1.0  T
   3    -50.6641203 -0.369570E-01  0.137E+00    7.33       1.0  T
   4    -50.6697451 -0.562479E-02  0.559E-01    7.77       1.0  T
   5    -50.6703200 -0.574895E-03  0.322E-01    7.76       1.0  T
   6    -50.6707875 -0.467464E-03  0.133E-01    7.84       1.0  T
   7    -50.6708824 -0.949461E-04  0.486E-02    7.83       1.0  T
   8    -50.6708927 -0.103133E-04  0.327E-02    7.82       1.0  T
   9    -50.6709001 -0.737213E-05  0.670E-03    7.84       2.9  T
  10    -50.6709003 -0.224150E-06  0.224E-03    7.84       8.8  T
  11    -50.6709003 -0.112810E-07  0.124E-03    7.84      15.9  T
  12    -50.6709003 -0.838111E-08  0.429E-04    7.84      45.7  T
  13    -50.6709003 -0.102786E-08  0.143E-04    7.84     137.4  T
speedup  1.01
cpu  time for SCC    0.02 s
wall time for SCC    0.02 s

   *** convergence criteria satisfied after 13 iterations ***

          eigenvalues
 #    :          28         29         30         31         32         33         34         35
 occ. :        2.000      2.000      2.000      2.000      2.000      2.000      2.000      2.000
 eps  :       -12.768    -12.532    -12.215    -12.071    -11.829    -11.653    -11.518    -11.034
 #    :          36         37         38         39         40         41         42         43
 occ. :        2.000      2.000      2.000      2.000      2.000      0.000      0.000      0.000
 eps  :       -10.986    -10.779    -10.434    -10.346     -9.716     -1.878     -0.209     -0.083
 #    :          44         45         46         47         48         49         50         51
 occ. :        0.000      0.000      0.000      0.000      0.000      0.000      0.000      0.000
 eps  :         0.425      1.271      1.425      2.535      2.959      3.832      4.220      5.166


   #   Z            q   n(s)   n(p)   n(d)      C6AA      α(0)
   1  16 S      1.596  1.583  1.840  0.982    91.175    16.071
   2   8 O     -0.759  1.772  4.987  0.000    30.370     7.389
   3   8 O     -0.760  1.777  4.983  0.000    30.402     7.393
   4   8 O     -0.730  1.760  4.970  0.000    29.529     7.286
   5   8 O     -0.541  1.719  4.822  0.000    23.794     6.585
   6   1 H      0.358  0.642  0.000  0.000     0.561     1.172
   7   8 O     -0.852  1.825  5.027  0.000    33.108     7.718
   8   1 H      0.206  0.794  0.000  0.000     1.088     1.639
   9   8 O     -0.616  1.728  4.888  0.000    25.579     6.826
  10   1 H      0.341  0.659  0.000  0.000     0.611     1.227
  11   1 H      0.289  0.711  0.000  0.000     0.754     1.363
  12   8 O     -0.611  1.727  4.884  0.000    25.440     6.807
  13   1 H      0.285  0.715  0.000  0.000     0.768     1.377
  14   1 H      0.327  0.673  0.000  0.000     0.645     1.261
  15   8 O     -0.459  1.660  4.800  0.000    21.978     6.332
  16   1 H      0.405  0.595  0.000  0.000     0.469     1.072
  17   1 H      0.401  0.599  0.000  0.000     0.482     1.091
  18   1 H      0.401  0.599  0.000  0.000     0.484     1.093
  19   8 O     -0.456  1.657  4.799  0.000    21.919     6.323
  20   1 H      0.396  0.604  0.000  0.000     0.493     1.103
  21   1 H      0.395  0.605  0.000  0.000     0.494     1.104
  22   1 H      0.406  0.594  0.000  0.000     0.466     1.069
  23   7 N     -0.505  1.413  4.092  0.000    33.481     8.593
  24   1 H      0.124  0.876  0.000  0.000     1.594     1.978
  25   1 H      0.204  0.796  0.000  0.000     1.087     1.633
  26   1 H      0.156  0.844  0.000  0.000     1.360     1.827

 Mol. C6AA /au·bohr⁶  :       5521.540912
 Mol. C8AA /au·bohr⁸  :     119549.189644
 Mol. α(0) /au        :        107.331169

 
 Wiberg/Mayer (AO) data. WBOs > 0.1 written file <wbo>
 largest (>0.05) Wiberg bond orders for each atom
           total WBO             WBO to atom ...
     1  S   4.924    O    4 1.318    O    3 1.294    O    2 1.277    O    5 0.997
     2  O   1.687    S    1 1.277    O    3 0.116    O    4 0.112    H   21 0.081    O    5 0.070
     3  O   1.675    S    1 1.294    O    2 0.116    O    4 0.112    O    5 0.073    H   10 0.056
     4  O   1.716    S    1 1.318    O    2 0.112    O    3 0.112    H   17 0.082    O    5 0.053
     5  O   2.049    S    1 0.997    H    6 0.848    O    3 0.073    O    2 0.070    O    4 0.053
     6  H   0.871    O    5 0.848
     7  O   1.600    H    8 0.946    H   22 0.205    H   16 0.198    H   25 0.070    O   19 0.062    O   15 0.061
     8  H   0.958    O    7 0.946
     9  O   1.868    H   11 0.903    H   10 0.824    H   20 0.066
    10  H   0.884    O    9 0.824    O    3 0.056
    11  H   0.916    O    9 0.903
    12  O   1.855    H   13 0.904    H   14 0.832    H   18 0.067
    13  H   0.919    O   12 0.904
    14  H   0.893    O   12 0.832    N   23 0.059
    15  O   2.282    H   18 0.765    H   17 0.748    H   16 0.633    O    7 0.061
    16  H   0.836    O   15 0.633    O    7 0.198
    17  H   0.839    O   15 0.748    O    4 0.082
    18  H   0.840    O   15 0.765    O   12 0.067
    19  O   2.284    H   20 0.769    H   21 0.755    H   22 0.625    O    7 0.062
    20  H   0.843    O   19 0.769    O    9 0.066
    21  H   0.844    O   19 0.755    O    2 0.081
    22  H   0.835    O   19 0.625    O    7 0.205
    23  N   2.970    H   24 0.980    H   26 0.958    H   25 0.886    H   14 0.059
    24  H   0.985    N   23 0.980
    25  H   0.958    N   23 0.886    O    7 0.070
    26  H   0.976    N   23 0.958
 MOs/occ written to file <molden.input>
 
molecular dipole:
                 x           y           z       tot (Debye)
 q only:        0.825       0.174       0.883
   full:        1.197       0.514       0.250       3.372
molecular quadrupole (traceless):
                xx          xy          yy          xz          yz          zz
 q only:       -2.728       0.948       6.271      -0.306      -8.143      -3.543
  q+dip:       -4.205       0.271      -1.170       1.205      -8.305       5.376
   full:       -4.366       0.436      -1.543       1.288      -8.196       5.909

SCC energy    :     -50.6709003
rep           :       0.2894431
ES            :       0.2886291
AES           :      -0.0665021
AXC           :      -0.0073368
disp          :      -0.0174771
XB            :       0.0000000
fix           :       0.0000000
total E       :     -50.3810895
atomizationE  :       4.9113936     3081.95
(atE without considering molecular charge,
 total energy contains solvation terms)
H-L gap (eV)  :          7.8372
           ------------------------------------------------- 
          |                 ===============                 |
          |                   A N C O P T                   |
          |                 ===============                 |
          |          Approximate Normal Coordinate          |
          |           Rational Function Optimizer           |
           ------------------------------------------------- 
dumping coords to <xtbopt.coord> and <xtbopt.log>
 optlevel               2
 Maxcycle             520
 Maxmicro              25
 Econv         1.000000000000000E-007
 Gconv         2.000000000000000E-004
 Maxdispl       1.00000000000000     
 Hlow          5.000000000000000E-003
 S6             20.0000000000000     
 Nvar               72

generating ANC from model Hessian ...
 Shifting diagonal of input Hessian by   5.075777698779009E-003
 Lowest  eigenvalues of input Hessian
    0.005000   -0.000000   -0.000000   -0.000000    0.000000    0.000000
    0.000000    0.005164    0.005568    0.006075    0.006325    0.006571
    0.006864    0.007460    0.007708    0.008923    0.009196    0.009872
 Highest eigenvalues
    1.563307    1.590344    1.592148    3.146349    3.216508    3.321189
 
cpu  time for ANC gen    0.02 s
wall time for ANC gen    0.02 s
................................................................................
.............................. CYCLE    1 ......................................
................................................................................
   1    -50.6709003 -0.506709E+02  0.773E-05    7.84       0.0  T
   2    -50.6709003 -0.127045E-10  0.596E-05    7.84     328.8  T
   3    -50.6709003 -0.131379E-10  0.293E-05    7.84     669.9  T
speedup  0.97
cpu  time for SCC    0.00 s
wall time for SCC    0.00 s
speedup  1.03
cpu  time for grad    0.01 s
wall time for grad    0.01 s
 E :    -50.38108943  G :  0.204007    pred/act E change:  0.000D+00  0.462D-07
Maxdispl :   0.1074   ||displ|| :   0.2840   Lambda : -0.293D-01
Largest |displ|/coords:  0.1074 (  54)  0.1044 (  26)  0.0891 (  19)
................................................................................
.............................. CYCLE    2 ......................................
................................................................................
   1    -50.6800143 -0.506800E+02  0.291E-01    7.88       0.0  T
   2    -50.6801758 -0.161540E-03  0.222E-01    7.93       1.0  T
   3    -50.6802516 -0.757718E-04  0.743E-02    8.02       1.0  T
   4    -50.6802652 -0.135617E-04  0.195E-02    8.00       1.0  T
   5    -50.6802661 -0.936094E-06  0.496E-03    8.00       4.0  T
   6    -50.6802661 -0.396727E-07  0.293E-03    8.00       6.7  T
speedup  1.02
cpu  time for SCC    0.01 s
wall time for SCC    0.01 s
speedup  1.01
cpu  time for grad    0.01 s
wall time for grad    0.01 s
 E :    -50.40449306  G :  0.127377    pred/act E change:  0.000D+00 -0.234D-01
Maxdispl :   0.1336   ||displ|| :   0.3244   Lambda : -0.156D-01
Largest |displ|/coords:  0.1336 (  26)  0.1297 (  19)  0.1064 (  11)
................................................................................
.............................. CYCLE    3 ......................................
................................................................................
   1    -50.6841357 -0.506841E+02  0.291E-01    8.02       0.0  T
   2    -50.6843577 -0.222013E-03  0.218E-01    8.07       1.0  T
   3    -50.6844518 -0.940936E-04  0.787E-02    8.13       1.0  T
   4    -50.6844665 -0.147110E-04  0.180E-02    8.12       1.1  T
   5    -50.6844671 -0.665707E-06  0.479E-03    8.11       4.1  T
   6    -50.6844672 -0.362982E-07  0.287E-03    8.11       6.8  T
speedup  1.00
cpu  time for SCC    0.01 s
wall time for SCC    0.01 s
speedup  1.00
cpu  time for grad    0.01 s
wall time for grad    0.01 s
 E :    -50.41712206  G :  0.082665    pred/act E change: -0.158D-01 -0.126D-01
Maxdispl :   0.1500   ||displ|| :   0.3482   Lambda : -0.843D-02
Largest |displ|/coords:  0.1500 (  11)  0.1471 (  19)  0.1100 (  26)
................................................................................
.............................. CYCLE    4 ......................................
................................................................................
   1    -50.6858769 -0.506859E+02  0.308E-01    8.11       0.0  T
   2    -50.6861207 -0.243806E-03  0.226E-01    8.14       1.0  T
   3    -50.6862201 -0.993969E-04  0.779E-02    8.20       1.0  T
   4    -50.6862365 -0.163699E-04  0.165E-02    8.19       1.2  T
   5    -50.6862371 -0.561591E-06  0.477E-03    8.19       4.1  T
   6    -50.6862371 -0.316437E-07  0.280E-03    8.19       7.0  T
speedup  1.02
cpu  time for SCC    0.01 s
wall time for SCC    0.01 s
speedup  0.99
cpu  time for grad    0.01 s
wall time for grad    0.01 s
 E :    -50.42393219  G :  0.056749    pred/act E change: -0.860D-02 -0.681D-02
Maxdispl :   0.1098   ||displ|| :   0.2904   Lambda : -0.459D-02
Largest |displ|/coords:  0.1098 (   7)  0.1039 (  19)  0.1022 (  11)
................................................................................
.............................. CYCLE    5 ......................................
................................................................................
   1    -50.6875780 -0.506876E+02  0.249E-01    8.18       0.0  T
   2    -50.6877265 -0.148564E-03  0.183E-01    8.21       1.0  T
   3    -50.6877857 -0.591674E-04  0.599E-02    8.27       1.0  T
   4    -50.6877971 -0.114469E-04  0.130E-02    8.27       1.5  T
   5    -50.6877975 -0.356576E-06  0.374E-03    8.27       5.2  T
   6    -50.6877975 -0.151200E-07  0.208E-03    8.27       9.4  T
speedup  1.00
cpu  time for SCC    0.01 s
wall time for SCC    0.01 s
speedup  0.99
cpu  time for grad    0.01 s
wall time for grad    0.01 s
 E :    -50.42775441  G :  0.042042    pred/act E change: -0.472D-02 -0.382D-02
Maxdispl :   0.1556   ||displ|| :   0.4710   Lambda : -0.739D-02
Largest |displ|/coords:  0.1556 (  11)  0.1538 (  10)  0.1497 (   8)
................................................................................
.............................. CYCLE    6 ......................................
................................................................................
   1    -50.7003748 -0.507004E+02  0.433E-01    8.25       0.0  T
   2    -50.7010669 -0.692123E-03  0.311E-01    8.31       1.0  T
   3    -50.7013584 -0.291484E-03  0.119E-01    8.40       1.0  T
   4    -50.7013874 -0.290529E-04  0.266E-02    8.41       1.0  T
   5    -50.7013891 -0.165869E-05  0.843E-03    8.41       2.3  T
   6    -50.7013892 -0.954946E-07  0.445E-03    8.41       4.4  T
   7    -50.7013892 -0.328263E-07  0.123E-03    8.41      16.0  T
speedup  1.03
cpu  time for SCC    0.01 s
wall time for SCC    0.01 s
speedup  1.00
cpu  time for grad    0.01 s
wall time for grad    0.01 s
 E :    -50.43120722  G :  0.033706    pred/act E change: -0.249D-02 -0.345D-02
Maxdispl :   0.2953   ||displ|| :   0.5934   Lambda : -0.579D-02
Largest |displ|/coords:  0.2953 (   7)  0.2408 (  11)  0.1909 (  13)
................................................................................
.............................. CYCLE    7 ......................................
................................................................................
   1    -50.6833266 -0.506833E+02  0.748E-01    8.13       0.0  T
   2    -50.6839818 -0.655210E-03  0.554E-01    8.19       1.0  T
   3    -50.6842471 -0.265276E-03  0.133E-01    8.31       1.0  T
   4    -50.6843340 -0.869548E-04  0.259E-02    8.31       1.0  T
   5    -50.6843351 -0.102535E-05  0.103E-02    8.30       1.9  T
   6    -50.6843353 -0.266846E-06  0.481E-03    8.30       4.1  T
   7    -50.6843354 -0.310791E-07  0.115E-03    8.30      17.1  T
speedup  0.90
cpu  time for SCC    0.01 s
wall time for SCC    0.01 s
speedup  0.95
cpu  time for grad    0.01 s
wall time for grad    0.01 s
 E :    -50.43102912  G :  0.072801    pred/act E change: -0.451D-02  0.178D-03
Maxdispl :   0.1869   ||displ|| :   0.4906   Lambda : -0.135D-01
Largest |displ|/coords:  0.1869 (   7)  0.1743 (   8)  0.1689 (  13)
................................................................................
.............................. CYCLE    8 ......................................
................................................................................
   1    -50.7077877 -0.507078E+02  0.742E-01    8.57       0.0  T
   2    -50.7084148 -0.627144E-03  0.552E-01    8.56       1.0  T
   3    -50.7087273 -0.312471E-03  0.133E-01    8.53       1.0  T
   4    -50.7088112 -0.839252E-04  0.275E-02    8.52       1.0  T
   5    -50.7088124 -0.124177E-05  0.118E-02    8.53       1.7  T
   6    -50.7088126 -0.156585E-06  0.503E-03    8.53       3.9  T
   7    -50.7088126 -0.455183E-07  0.119E-03    8.53      16.5  T
speedup  1.03
cpu  time for SCC    0.01 s
wall time for SCC    0.01 s
speedup  1.00
cpu  time for grad    0.01 s
wall time for grad    0.01 s
 E :    -50.43100652  G :  0.061905    pred/act E change: -0.391D-02  0.226D-04
Maxdispl :   0.1514   ||displ|| :   0.3993   Lambda : -0.951D-02
Largest |displ|/coords:  0.1514 (  17)  0.1481 (  19)  0.1374 (  16)
................................................................................
.............................. CYCLE    9 ......................................
................................................................................
   1    -50.6881544 -0.506882E+02  0.586E-01    8.31       0.0  T
   2    -50.6886160 -0.461527E-03  0.428E-01    8.30       1.0  T
   3    -50.6888216 -0.205643E-03  0.116E-01    8.30       1.0  T
   4    -50.6888710 -0.494379E-04  0.212E-02    8.31       1.0  T
   5    -50.6888718 -0.773887E-06  0.954E-03    8.31       2.1  T
   6    -50.6888721 -0.287761E-06  0.480E-03    8.31       4.1  T
   7    -50.6888721 -0.391953E-07  0.103E-03    8.31      19.0  T
speedup  1.04
cpu  time for SCC    0.01 s
wall time for SCC    0.01 s
speedup  1.01
cpu  time for grad    0.01 s
wall time for grad    0.01 s
 E :    -50.43032099  G :  0.078296    pred/act E change: -0.837D-02  0.686D-03
Maxdispl :   0.1808   ||displ|| :   0.4621   Lambda : -0.163D-01
Largest |displ|/coords:  0.1808 (   7)  0.1293 (  19)  0.1197 (  17)
................................................................................
.............................. CYCLE   10 ......................................
................................................................................
   1    -50.7077537 -0.507078E+02  0.709E-01    8.56       0.0  T
   2    -50.7081035 -0.349783E-03  0.530E-01    8.57       1.0  T
   3    -50.7083429 -0.239351E-03  0.104E-01    8.61       1.0  T
   4    -50.7083859 -0.430056E-04  0.204E-02    8.59       1.0  T
   5    -50.7083867 -0.780267E-06  0.108E-02    8.59       1.8  T
   6    -50.7083868 -0.101131E-06  0.441E-03    8.59       4.4  T
   7    -50.7083868 -0.509983E-07  0.101E-03    8.59      19.4  T
speedup  1.03
cpu  time for SCC    0.01 s
wall time for SCC    0.01 s
speedup  1.01
cpu  time for grad    0.01 s
wall time for grad    0.01 s
 E :    -50.43062918  G :  0.082149    pred/act E change: -0.552D-02 -0.308D-03
Maxdispl :   0.1518   ||displ|| :   0.4021   Lambda : -0.137D-01
Largest |displ|/coords:  0.1518 (   7)  0.1486 (  11)  0.1193 (   4)
................................................................................
.............................. CYCLE   11 ......................................
................................................................................
   1    -50.6953946 -0.506954E+02  0.599E-01    8.45       0.0  T
   2    -50.6956333 -0.238699E-03  0.448E-01    8.44       1.0  T
   3    -50.6957928 -0.159509E-03  0.865E-02    8.43       1.0  T
   4    -50.6958231 -0.302598E-04  0.171E-02    8.43       1.1  T
   5    -50.6958235 -0.446460E-06  0.859E-03    8.43       2.3  T
   6    -50.6958237 -0.104505E-06  0.384E-03    8.44       5.1  T
   7    -50.6958237 -0.266174E-07  0.846E-04    8.44      23.2  T
speedup  0.88
cpu  time for SCC    0.01 s
wall time for SCC    0.01 s
speedup  0.95
cpu  time for grad    0.01 s
wall time for grad    0.01 s
 E :    -50.43308585  G :  0.055625    pred/act E change: -0.991D-02 -0.246D-02
Maxdispl :   0.0926   ||displ|| :   0.2403   Lambda : -0.478D-02
Largest |displ|/coords:  0.0926 (  12)  0.0829 (   7)  0.0756 (   2)
................................................................................
.............................. CYCLE   12 ......................................
................................................................................
   1    -50.7054342 -0.507054E+02  0.324E-01    8.52       0.0  T
   2    -50.7054890 -0.548178E-04  0.244E-01    8.52       1.0  T
   3    -50.7055332 -0.441449E-04  0.393E-02    8.52       1.0  T
   4    -50.7055392 -0.604989E-05  0.896E-03    8.53       2.2  T
   5    -50.7055394 -0.120529E-06  0.437E-03    8.52       4.5  T
   6    -50.7055394 -0.286844E-07  0.152E-03    8.52      12.9  T
speedup  1.02
cpu  time for SCC    0.01 s
wall time for SCC    0.01 s
speedup  1.01
cpu  time for grad    0.01 s
wall time for grad    0.01 s
 E :    -50.43472909  G :  0.025801    pred/act E change: -0.794D-02 -0.164D-02
Maxdispl :   0.1044   ||displ|| :   0.2225   Lambda : -0.153D-02
Largest |displ|/coords:  0.1044 (  12)  0.0845 (   3)  0.0762 (  11)
................................................................................
.............................. CYCLE   13 ......................................
................................................................................
   1    -50.7023250 -0.507023E+02  0.242E-01    8.49       0.0  T
   2    -50.7023839 -0.588928E-04  0.179E-01    8.51       1.0  T
   3    -50.7024145 -0.305885E-04  0.408E-02    8.55       1.0  T
   4    -50.7024221 -0.763060E-05  0.816E-03    8.54       2.4  T
   5    -50.7024222 -0.110123E-06  0.398E-03    8.54       4.9  T
   6    -50.7024222 -0.181644E-07  0.156E-03    8.54      12.5  T
speedup  1.02
cpu  time for SCC    0.01 s
wall time for SCC    0.01 s
speedup  1.01
cpu  time for grad    0.01 s
wall time for grad    0.01 s
 E :    -50.43492947  G :  0.041590    pred/act E change: -0.253D-02 -0.200D-03
Maxdispl :   0.0823   ||displ|| :   0.1915   Lambda : -0.203D-02
Largest |displ|/coords:  0.0823 (  14)  0.0811 (  11)  0.0702 (   5)
................................................................................
.............................. CYCLE   14 ......................................
................................................................................
   1    -50.6971317 -0.506971E+02  0.229E-01    8.47       0.0  T
   2    -50.6971670 -0.353069E-04  0.171E-01    8.48       1.0  T
   3    -50.6971879 -0.208892E-04  0.333E-02    8.50       1.0  T
   4    -50.6971927 -0.486518E-05  0.698E-03    8.49       2.8  T
   5    -50.6971928 -0.721146E-07  0.336E-03    8.49       5.8  T
   6    -50.6971928 -0.144754E-07  0.156E-03    8.50      12.6  T
speedup  1.02
cpu  time for SCC    0.01 s
wall time for SCC    0.01 s
speedup  0.94
cpu  time for grad    0.01 s
wall time for grad    0.01 s
 E :    -50.43581173  G :  0.034054    pred/act E change: -0.804D-03 -0.882D-03
Maxdispl :   0.0615   ||displ|| :   0.1067   Lambda : -0.105D-02
Largest |displ|/coords:  0.0615 (  12)  0.0347 (   7)  0.0302 (   4)
................................................................................
.............................. CYCLE   15 ......................................
................................................................................
   1    -50.7023795 -0.507024E+02  0.990E-02    8.55       0.0  T
   2    -50.7023871 -0.765030E-05  0.734E-02    8.54       1.0  T
   3    -50.7023912 -0.407338E-05  0.153E-02    8.53       1.3  T
   4    -50.7023922 -0.101842E-05  0.444E-03    8.54       4.4  T
   5    -50.7023922 -0.254124E-07  0.128E-03    8.54      15.3  T
speedup  1.00
cpu  time for SCC    0.00 s
wall time for SCC    0.00 s
speedup  1.01
cpu  time for grad    0.01 s
wall time for grad    0.01 s
 E :    -50.43657774  G :  0.023388    pred/act E change: -0.105D-02 -0.766D-03
Maxdispl :   0.1337   ||displ|| :   0.3242   Lambda : -0.223D-02
Largest |displ|/coords:  0.1337 (  11)  0.1034 (   7)  0.0972 (   9)
................................................................................
.............................. CYCLE   16 ......................................
................................................................................
   1    -50.7096433 -0.507096E+02  0.269E-01    8.61       0.0  T
   2    -50.7096972 -0.539396E-04  0.201E-01    8.63       1.0  T
   3    -50.7097297 -0.324266E-04  0.406E-02    8.66       1.0  T
   4    -50.7097372 -0.750720E-05  0.117E-02    8.66       1.7  T
   5    -50.7097373 -0.137323E-06  0.373E-03    8.66       5.3  T
   6    -50.7097373 -0.120116E-07  0.190E-03    8.66      10.3  T
speedup  1.02
cpu  time for SCC    0.01 s
wall time for SCC    0.01 s
speedup  1.01
cpu  time for grad    0.01 s
wall time for grad    0.01 s
 E :    -50.43819854  G :  0.024335    pred/act E change: -0.529D-03 -0.162D-02
Maxdispl :   0.2894   ||displ|| :   0.5503   Lambda : -0.342D-02
Largest |displ|/coords:  0.2894 (  11)  0.1828 (  18)  0.1404 (  19)
................................................................................
.............................. CYCLE   17 ......................................
................................................................................
   1    -50.7182414 -0.507182E+02  0.440E-01    8.76       0.0  T
   2    -50.7183658 -0.124349E-03  0.328E-01    8.77       1.0  T
   3    -50.7184439 -0.781678E-04  0.640E-02    8.81       1.0  T
   4    -50.7184614 -0.174314E-04  0.193E-02    8.81       1.0  T
   5    -50.7184617 -0.385585E-06  0.633E-03    8.81       3.1  T
   6    -50.7184618 -0.403031E-07  0.331E-03    8.81       5.9  T
   7    -50.7184618 -0.154001E-07  0.795E-04    8.81      24.7  T
speedup  1.01
cpu  time for SCC    0.01 s
wall time for SCC    0.01 s
speedup  1.01
cpu  time for grad    0.01 s
wall time for grad    0.01 s
 E :    -50.44068925  G :  0.031872    pred/act E change: -0.123D-02 -0.249D-02
Maxdispl :   0.2978   ||displ|| :   0.6278   Lambda : -0.388D-02
Largest |displ|/coords:  0.2978 (   3)  0.2885 (  11)  0.1333 (  18)
................................................................................
.............................. CYCLE   18 ......................................
................................................................................
   1    -50.7098823 -0.507099E+02  0.548E-01    8.80       0.0  T
   2    -50.7100282 -0.145934E-03  0.409E-01    8.83       1.0  T
   3    -50.7101249 -0.966310E-04  0.703E-02    8.90       1.0  T
   4    -50.7101455 -0.206039E-04  0.198E-02    8.88       1.0  T
   5    -50.7101459 -0.449975E-06  0.763E-03    8.88       2.6  T
   6    -50.7101460 -0.811581E-07  0.385E-03    8.88       5.1  T
   7    -50.7101460 -0.232622E-07  0.818E-04    8.88      24.0  T
speedup  1.03
cpu  time for SCC    0.01 s
wall time for SCC    0.01 s
speedup  1.01
cpu  time for grad    0.01 s
wall time for grad    0.01 s
 E :    -50.44104192  G :  0.064118    pred/act E change: -0.223D-02 -0.353D-03
Maxdispl :   0.2205   ||displ|| :   0.3958   Lambda : -0.124D-01
Largest |displ|/coords:  0.2205 (   3)  0.1439 (   6)  0.1427 (   7)
................................................................................
.............................. CYCLE   19 ......................................
................................................................................
   1    -50.7367251 -0.507367E+02  0.531E-01    9.11       0.0  T
   2    -50.7370734 -0.348287E-03  0.393E-01    9.08       1.0  T
   3    -50.7373268 -0.253382E-03  0.990E-02    9.01       1.0  T
   4    -50.7373581 -0.313228E-04  0.204E-02    9.02       1.0  T
   5    -50.7373589 -0.771808E-06  0.115E-02    9.02       1.7  T
   6    -50.7373590 -0.953709E-07  0.346E-03    9.02       5.7  T
   7    -50.7373590 -0.377123E-07  0.991E-04    9.02      19.8  T
speedup  1.00
cpu  time for SCC    0.01 s
wall time for SCC    0.01 s
speedup  1.05
cpu  time for grad    0.02 s
wall time for grad    0.02 s
 E :    -50.43393756  G :  0.164350    pred/act E change: -0.271D-02  0.710D-02
Maxdispl :   0.1300   ||displ|| :   0.4271   Lambda : -0.369D-01
Largest |displ|/coords:  0.1300 (   4)  0.1227 (   6)  0.1220 (   8)
................................................................................
.............................. CYCLE   20 ......................................
................................................................................
   1    -50.7004100 -0.507004E+02  0.606E-01    8.67       0.0  T
   2    -50.7011628 -0.752803E-03  0.433E-01    8.70       1.0  T
   3    -50.7015354 -0.372546E-03  0.137E-01    8.77       1.0  T
   4    -50.7015858 -0.504586E-04  0.379E-02    8.77       1.0  T
   5    -50.7015870 -0.112360E-05  0.132E-02    8.77       1.5  T
   6    -50.7015878 -0.889327E-06  0.606E-03    8.77       3.2  T
   7    -50.7015879 -0.593585E-07  0.167E-03    8.77      11.7  T
   8    -50.7015879 -0.466686E-08  0.404E-04    8.77      48.5  T
speedup  1.03
cpu  time for SCC    0.01 s
wall time for SCC    0.01 s
speedup  0.96
cpu  time for grad    0.01 s
wall time for grad    0.02 s
 E :    -50.43813719  G :  0.083849    pred/act E change: -0.715D-02 -0.420D-02
Maxdispl :   0.1231   ||displ|| :   0.3291   Lambda : -0.151D-01
Largest |displ|/coords:  0.1231 (  11)  0.1033 (   9)  0.0834 (  17)
................................................................................
.............................. CYCLE   21 ......................................
................................................................................
   1    -50.7244426 -0.507244E+02  0.412E-01    9.02       0.0  T
   2    -50.7247501 -0.307488E-03  0.298E-01    9.02       1.0  T
   3    -50.7249251 -0.174990E-03  0.872E-02    9.01       1.0  T
   4    -50.7249476 -0.224490E-04  0.230E-02    8.99       1.0  T
   5    -50.7249484 -0.848525E-06  0.880E-03    9.00       2.2  T
   6    -50.7249485 -0.532872E-07  0.384E-03    9.00       5.1  T
   7    -50.7249485 -0.324409E-07  0.101E-03    9.00      19.4  T
speedup  1.04
cpu  time for SCC    0.01 s
wall time for SCC    0.01 s
speedup  1.02
cpu  time for grad    0.01 s
wall time for grad    0.01 s
 E :    -50.44298097  G :  0.042215    pred/act E change: -0.218D-01 -0.484D-02
Maxdispl :   0.0686   ||displ|| :   0.1818   Lambda : -0.293D-02
Largest |displ|/coords:  0.0686 (  18)  0.0622 (  15)  0.0523 (  19)
................................................................................
.............................. CYCLE   22 ......................................
................................................................................
   1    -50.7244978 -0.507245E+02  0.191E-01    8.93       0.0  T
   2    -50.7245478 -0.500576E-04  0.139E-01    8.91       1.0  T
   3    -50.7245702 -0.223986E-04  0.381E-02    8.89       1.0  T
   4    -50.7245753 -0.506004E-05  0.931E-03    8.91       2.1  T
   5    -50.7245754 -0.146612E-06  0.278E-03    8.90       7.0  T
   6    -50.7245754 -0.446997E-08  0.155E-03    8.90      12.7  T
speedup  1.03
cpu  time for SCC    0.01 s
wall time for SCC    0.01 s
speedup  1.02
cpu  time for grad    0.01 s
wall time for grad    0.01 s
 E :    -50.44413679  G :  0.021529    pred/act E change: -0.839D-02 -0.116D-02
Maxdispl :   0.0721   ||displ|| :   0.1582   Lambda : -0.118D-02
Largest |displ|/coords:  0.0721 (  11)  0.0572 (  22)  0.0567 (   2)
................................................................................
.............................. CYCLE   23 ......................................
................................................................................
   1    -50.7187185 -0.507187E+02  0.146E-01    8.86       0.0  T
   2    -50.7187399 -0.214040E-04  0.107E-01    8.88       1.0  T
   3    -50.7187494 -0.950219E-05  0.257E-02    8.93       1.0  T
   4    -50.7187520 -0.261144E-05  0.658E-03    8.92       3.0  T
   5    -50.7187521 -0.649670E-07  0.208E-03    8.92       9.4  T
   6    -50.7187521 -0.320438E-08  0.111E-03    8.92      17.7  T
speedup  1.03
cpu  time for SCC    0.01 s
wall time for SCC    0.01 s
speedup  1.01
cpu  time for grad    0.01 s
wall time for grad    0.01 s
 E :    -50.44440748  G :  0.024786    pred/act E change: -0.151D-02 -0.271D-03
Maxdispl :   0.0403   ||displ|| :   0.0833   Lambda : -0.666D-03
Largest |displ|/coords:  0.0403 (   2)  0.0240 (   9)  0.0225 (   5)
................................................................................
.............................. CYCLE   24 ......................................
................................................................................
   1    -50.7233022 -0.507233E+02  0.628E-02    8.94       0.0  T
   2    -50.7233075 -0.533885E-05  0.460E-02    8.94       1.0  T
   3    -50.7233106 -0.310866E-05  0.121E-02    8.92       1.6  T
   4    -50.7233112 -0.528387E-06  0.268E-03    8.92       7.3  T
   5    -50.7233112 -0.138919E-07  0.118E-03    8.92      16.6  T
speedup  1.00
cpu  time for SCC    0.00 s
wall time for SCC    0.01 s
speedup  0.92
cpu  time for grad    0.01 s
wall time for grad    0.01 s
 E :    -50.44484151  G :  0.013928    pred/act E change: -0.603D-03 -0.434D-03
Maxdispl :   0.0534   ||displ|| :   0.1459   Lambda : -0.508D-03
Largest |displ|/coords:  0.0534 (  11)  0.0420 (  21)  0.0403 (  23)
................................................................................
.............................. CYCLE   25 ......................................
................................................................................
   1    -50.7245245 -0.507245E+02  0.112E-01    8.88       0.0  T
   2    -50.7245309 -0.646681E-05  0.838E-02    8.88       1.0  T
   3    -50.7245359 -0.502127E-05  0.141E-02    8.88       1.4  T
   4    -50.7245367 -0.758557E-06  0.642E-03    8.88       3.1  T
   5    -50.7245367 -0.439849E-07  0.150E-03    8.88      13.0  T
   6    -50.7245367 -0.321475E-08  0.877E-04    8.88      22.4  T
speedup  0.98
cpu  time for SCC    0.01 s
wall time for SCC    0.01 s
speedup  0.99
cpu  time for grad    0.01 s
wall time for grad    0.01 s
 E :    -50.44511398  G :  0.010902    pred/act E change: -0.335D-03 -0.272D-03
Maxdispl :   0.0712   ||displ|| :   0.1754   Lambda : -0.526D-03
Largest |displ|/coords:  0.0712 (   4)  0.0660 (   1)  0.0601 (   2)

generating ANC from model Hessian ...
 Shifting diagonal of input Hessian by   5.074848928005077E-003
 Lowest  eigenvalues of input Hessian
    0.005000   -0.000000   -0.000000   -0.000000    0.000000    0.000000
    0.000000    0.005261    0.005471    0.005853    0.006032    0.006221
    0.006841    0.007603    0.008356    0.009094    0.009677    0.010138
 Highest eigenvalues
    1.383856    1.403937    1.416545    2.578886    3.543571    3.576236
 
cpu  time for ANC gen    0.02 s
wall time for ANC gen    0.02 s
................................................................................
.............................. CYCLE   26 ......................................
................................................................................
   1    -50.7259339 -0.507259E+02  0.117E-01    8.88       0.0  T
   2    -50.7259405 -0.657080E-05  0.877E-02    8.88       1.0  T
   3    -50.7259452 -0.470632E-05  0.149E-02    8.88       1.3  T
   4    -50.7259460 -0.824414E-06  0.745E-03    8.89       2.6  T
   5    -50.7259460 -0.520656E-07  0.154E-03    8.89      12.7  T
   6    -50.7259460 -0.324473E-08  0.955E-04    8.89      20.5  T
   7    -50.7259460 -0.131020E-08  0.313E-04    8.89      62.6  T
speedup  1.01
cpu  time for SCC    0.01 s
wall time for SCC    0.01 s
speedup  1.03
cpu  time for grad    0.02 s
wall time for grad    0.02 s
 E :    -50.44540800  G :  0.009907    pred/act E change:  0.000D+00 -0.294D-03
Maxdispl :   0.1573   ||displ|| :   0.2786   Lambda : -0.885D-03
Largest |displ|/coords:  0.1573 (   4)  0.1076 (   5)  0.0904 (   1)
................................................................................
.............................. CYCLE   27 ......................................
................................................................................
   1    -50.7245202 -0.507245E+02  0.214E-01    8.89       0.0  T
   2    -50.7245251 -0.486219E-05  0.162E-01    8.89       1.0  T
   3    -50.7245312 -0.609029E-05  0.104E-02    8.91       1.9  T
   4    -50.7245314 -0.266182E-06  0.379E-03    8.90       5.2  T
   5    -50.7245314 -0.140572E-07  0.174E-03    8.90      11.2  T
   6    -50.7245315 -0.520422E-08  0.548E-04    8.90      35.8  T
speedup  1.00
cpu  time for SCC    0.01 s
wall time for SCC    0.01 s
speedup  0.99
cpu  time for grad    0.01 s
wall time for grad    0.01 s
 E :    -50.44608929  G :  0.008354    pred/act E change:  0.000D+00 -0.681D-03
Maxdispl :   0.1971   ||displ|| :   0.4630   Lambda : -0.113D-02
Largest |displ|/coords:  0.1971 (   6)  0.1722 (   1)  0.1552 (  12)
................................................................................
.............................. CYCLE   28 ......................................
................................................................................
   1    -50.7184885 -0.507185E+02  0.379E-01    8.86       0.0  T
   2    -50.7185219 -0.334101E-04  0.287E-01    8.87       1.0  T
   3    -50.7185507 -0.287632E-04  0.318E-02    8.91       1.0  T
   4    -50.7185551 -0.441947E-05  0.846E-03    8.90       2.3  T
   5    -50.7185552 -0.745853E-07  0.408E-03    8.90       4.8  T
   6    -50.7185552 -0.168434E-07  0.176E-03    8.90      11.2  T
   7    -50.7185552 -0.871938E-08  0.329E-04    8.90      59.6  T
speedup  1.11
cpu  time for SCC    0.01 s
wall time for SCC    0.01 s
speedup  1.05
cpu  time for grad    0.02 s
wall time for grad    0.02 s
 E :    -50.44614995  G :  0.036423    pred/act E change: -0.477D-03 -0.607D-04
Maxdispl :   0.0863   ||displ|| :   0.1621   Lambda : -0.145D-02
Largest |displ|/coords:  0.0863 (   5)  0.0859 (   1)  0.0428 (  21)
................................................................................
.............................. CYCLE   29 ......................................
................................................................................
   1    -50.7234291 -0.507234E+02  0.166E-01    8.92       0.0  T
   2    -50.7234474 -0.182744E-04  0.124E-01    8.92       1.0  T
   3    -50.7234602 -0.128336E-04  0.239E-02    8.91       1.0  T
   4    -50.7234627 -0.252076E-05  0.518E-03    8.91       3.8  T
   5    -50.7234627 -0.311200E-07  0.284E-03    8.91       6.9  T
speedup  1.00
cpu  time for SCC    0.01 s
wall time for SCC    0.00 s
speedup  0.97
cpu  time for grad    0.01 s
wall time for grad    0.01 s
 E :    -50.44686092  G :  0.009003    pred/act E change: -0.686D-03 -0.711D-03
Maxdispl :   0.1066   ||displ|| :   0.2233   Lambda : -0.455D-03
Largest |displ|/coords:  0.1066 (   6)  0.0983 (   4)  0.0874 (   5)
................................................................................
.............................. CYCLE   30 ......................................
................................................................................
   1    -50.7236169 -0.507236E+02  0.132E-01    8.91       0.0  T
   2    -50.7236193 -0.237521E-05  0.991E-02    8.91       1.0  T
   3    -50.7236216 -0.228841E-05  0.853E-03    8.91       2.3  T
   4    -50.7236218 -0.260820E-06  0.246E-03    8.91       8.0  T
   5    -50.7236218 -0.107538E-07  0.118E-03    8.91      16.7  T
speedup  1.00
cpu  time for SCC    0.00 s
wall time for SCC    0.01 s
speedup  0.98
cpu  time for grad    0.01 s
wall time for grad    0.01 s
 E :    -50.44718650  G :  0.006922    pred/act E change: -0.746D-03 -0.326D-03
Maxdispl :   0.2514   ||displ|| :   0.5009   Lambda : -0.768D-03
Largest |displ|/coords:  0.2514 (   6)  0.1822 (  12)  0.1693 (   4)
................................................................................
.............................. CYCLE   31 ......................................
................................................................................
   1    -50.7211334 -0.507211E+02  0.299E-01    8.80       0.0  T
   2    -50.7211470 -0.135486E-04  0.226E-01    8.81       1.0  T
   3    -50.7211622 -0.152046E-04  0.194E-02    8.82       1.0  T
   4    -50.7211633 -0.110176E-05  0.619E-03    8.82       3.2  T
   5    -50.7211633 -0.443610E-07  0.277E-03    8.82       7.1  T
   6    -50.7211633 -0.754774E-08  0.124E-03    8.82      15.9  T
speedup  1.03
cpu  time for SCC    0.01 s
wall time for SCC    0.01 s
speedup  1.01
cpu  time for grad    0.01 s
wall time for grad    0.01 s
 E :    -50.44769270  G :  0.014502    pred/act E change: -0.239D-03 -0.506D-03
Maxdispl :   0.1364   ||displ|| :   0.2942   Lambda : -0.416D-03
Largest |displ|/coords:  0.1364 (   6)  0.1318 (   1)  0.0989 (   4)
................................................................................
.............................. CYCLE   32 ......................................
................................................................................
   1    -50.7211431 -0.507211E+02  0.170E-01    8.83       0.0  T
   2    -50.7211480 -0.489001E-05  0.129E-01    8.83       1.0  T
   3    -50.7211530 -0.503085E-05  0.115E-02    8.84       1.7  T
   4    -50.7211536 -0.519363E-06  0.509E-03    8.84       3.9  T
   5    -50.7211536 -0.342643E-07  0.166E-03    8.84      11.8  T
   6    -50.7211536 -0.270587E-08  0.897E-04    8.84      21.9  T
speedup  1.02
cpu  time for SCC    0.01 s
wall time for SCC    0.01 s
speedup  1.00
cpu  time for grad    0.01 s
wall time for grad    0.01 s
 E :    -50.44799679  G :  0.015156    pred/act E change: -0.481D-03 -0.304D-03
Maxdispl :   0.1782   ||displ|| :   0.3225   Lambda : -0.613D-03
Largest |displ|/coords:  0.1782 (   1)  0.1106 (  21)  0.1048 (   4)
................................................................................
.............................. CYCLE   33 ......................................
................................................................................
   1    -50.7263186 -0.507263E+02  0.149E-01    8.96       0.0  T
   2    -50.7263258 -0.713247E-05  0.111E-01    8.96       1.0  T
   3    -50.7263305 -0.476203E-05  0.186E-02    8.97       1.1  T
   4    -50.7263316 -0.107101E-05  0.588E-03    8.97       3.3  T
   5    -50.7263317 -0.543769E-07  0.207E-03    8.97       9.5  T
   6    -50.7263317 -0.411209E-08  0.109E-03    8.97      18.0  T
speedup  1.05
cpu  time for SCC    0.01 s
wall time for SCC    0.01 s
speedup  1.01
cpu  time for grad    0.01 s
wall time for grad    0.01 s
 E :    -50.44837303  G :  0.007599    pred/act E change: -0.226D-03 -0.376D-03
Maxdispl :   0.1781   ||displ|| :   0.4112   Lambda : -0.389D-03
Largest |displ|/coords:  0.1781 (   1)  0.1467 (  12)  0.1431 (   6)
................................................................................
.............................. CYCLE   34 ......................................
................................................................................
   1    -50.7230656 -0.507231E+02  0.236E-01    8.87       0.0  T
   2    -50.7230733 -0.764962E-05  0.178E-01    8.88       1.0  T
   3    -50.7230825 -0.924777E-05  0.152E-02    8.90       1.3  T
   4    -50.7230830 -0.500596E-06  0.566E-03    8.90       3.5  T
   5    -50.7230831 -0.411999E-07  0.205E-03    8.90       9.6  T
   6    -50.7230831 -0.572955E-08  0.116E-03    8.90      17.0  T
speedup  1.00
cpu  time for SCC    0.01 s
wall time for SCC    0.01 s
speedup  0.99
cpu  time for grad    0.01 s
wall time for grad    0.01 s
 E :    -50.44860182  G :  0.009039    pred/act E change: -0.338D-03 -0.229D-03
Maxdispl :   0.0812   ||displ|| :   0.1800   Lambda : -0.249D-03
Largest |displ|/coords:  0.0812 (   1)  0.0721 (  21)  0.0571 (  12)
................................................................................
.............................. CYCLE   35 ......................................
................................................................................
   1    -50.7252441 -0.507252E+02  0.937E-02    8.95       0.0  T
   2    -50.7252462 -0.204795E-05  0.700E-02    8.95       1.0  T
   3    -50.7252475 -0.134725E-05  0.968E-03    8.97       2.0  T
   4    -50.7252478 -0.302963E-06  0.355E-03    8.96       5.5  T
   5    -50.7252478 -0.146097E-07  0.844E-04    8.96      23.2  T
   6    -50.7252478 -0.790159E-09  0.547E-04    8.96      35.8  T
speedup  0.98
cpu  time for SCC    0.01 s
wall time for SCC    0.01 s
speedup  0.98
cpu  time for grad    0.01 s
wall time for grad    0.01 s
 E :    -50.44877817  G :  0.004997    pred/act E change: -0.228D-03 -0.176D-03
Maxdispl :   0.1710   ||displ|| :   0.3348   Lambda : -0.277D-03
Largest |displ|/coords:  0.1710 (   1)  0.1077 (  21)  0.1071 (  12)
................................................................................
.............................. CYCLE   36 ......................................
................................................................................
   1    -50.7260758 -0.507261E+02  0.195E-01    8.97       0.0  T
   2    -50.7260851 -0.932235E-05  0.146E-01    8.98       1.0  T
   3    -50.7260927 -0.758438E-05  0.190E-02    9.00       1.0  T
   4    -50.7260939 -0.120196E-05  0.644E-03    9.00       3.0  T
   5    -50.7260940 -0.587509E-07  0.221E-03    9.00       8.9  T
   6    -50.7260940 -0.608613E-08  0.126E-03    9.00      15.6  T
speedup  1.02
cpu  time for SCC    0.01 s
wall time for SCC    0.01 s
speedup  0.99
cpu  time for grad    0.01 s
wall time for grad    0.01 s
 E :    -50.44889633  G :  0.011055    pred/act E change: -0.129D-03 -0.118D-03
Maxdispl :   0.0790   ||displ|| :   0.2097   Lambda : -0.305D-03
Largest |displ|/coords:  0.0790 (   1)  0.0705 (  14)  0.0604 (   8)
................................................................................
.............................. CYCLE   37 ......................................
................................................................................
   1    -50.7278599 -0.507279E+02  0.123E-01    9.04       0.0  T
   2    -50.7278645 -0.461788E-05  0.914E-02    9.04       1.0  T
   3    -50.7278684 -0.394171E-05  0.144E-02    9.04       1.4  T
   4    -50.7278689 -0.480167E-06  0.519E-03    9.04       3.8  T
   5    -50.7278689 -0.371770E-07  0.147E-03    9.04      13.4  T
   6    -50.7278689 -0.353786E-08  0.886E-04    9.04      22.1  T
speedup  1.03
cpu  time for SCC    0.01 s
wall time for SCC    0.01 s
speedup  1.07
cpu  time for grad    0.01 s
wall time for grad    0.01 s
 E :    -50.44901084  G :  0.006095    pred/act E change: -0.154D-03 -0.115D-03
Maxdispl :   0.0539   ||displ|| :   0.1407   Lambda : -0.117D-03
Largest |displ|/coords:  0.0539 (  12)  0.0488 (   4)  0.0473 (   1)
................................................................................
.............................. CYCLE   38 ......................................
................................................................................
   1    -50.7259981 -0.507260E+02  0.876E-02    8.97       0.0  T
   2    -50.7260001 -0.206707E-05  0.658E-02    8.97       1.0  T
   3    -50.7260016 -0.145839E-05  0.990E-03    8.98       2.0  T
   4    -50.7260019 -0.304785E-06  0.294E-03    8.98       6.7  T
   5    -50.7260019 -0.146824E-07  0.872E-04    8.98      22.5  T
speedup  1.02
cpu  time for SCC    0.01 s
wall time for SCC    0.00 s
speedup  0.99
cpu  time for grad    0.01 s
wall time for grad    0.01 s
 E :    -50.44905697  G :  0.004887    pred/act E change: -0.159D-03 -0.461D-04
Maxdispl :   0.0477   ||displ|| :   0.0991   Lambda : -0.886D-04
Largest |displ|/coords:  0.0477 (   6)  0.0456 (  12)  0.0395 (   3)
................................................................................
.............................. CYCLE   39 ......................................
................................................................................
   1    -50.7281238 -0.507281E+02  0.571E-02    9.05       0.0  T
   2    -50.7281246 -0.744178E-06  0.426E-02    9.05       1.0  T
   3    -50.7281252 -0.687225E-06  0.605E-03    9.04       3.2  T
   4    -50.7281253 -0.697894E-07  0.179E-03    9.05      10.9  T
   5    -50.7281253 -0.505844E-08  0.583E-04    9.05      33.6  T
speedup  1.02
cpu  time for SCC    0.00 s
wall time for SCC    0.00 s
speedup  1.07
cpu  time for grad    0.01 s
wall time for grad    0.01 s
 E :    -50.44909259  G :  0.004533    pred/act E change: -0.598D-04 -0.356D-04
Maxdispl :   0.0334   ||displ|| :   0.0725   Lambda : -0.450D-04
Largest |displ|/coords:  0.0334 (   9)  0.0253 (   8)  0.0241 (  14)
................................................................................
.............................. CYCLE   40 ......................................
................................................................................
   1    -50.7277185 -0.507277E+02  0.466E-02    9.01       0.0  T
   2    -50.7277189 -0.408733E-06  0.349E-02    9.01       1.0  T
   3    -50.7277193 -0.414275E-06  0.461E-03    9.01       4.3  T
   4    -50.7277193 -0.410580E-07  0.145E-03    9.01      13.5  T
   5    -50.7277193 -0.286556E-08  0.409E-04    9.01      47.9  T
speedup  1.00
cpu  time for SCC    0.01 s
wall time for SCC    0.00 s
speedup  0.98
cpu  time for grad    0.01 s
wall time for grad    0.01 s
 E :    -50.44911915  G :  0.003730    pred/act E change: -0.447D-04 -0.266D-04
Maxdispl :   0.0293   ||displ|| :   0.0774   Lambda : -0.427D-04
Largest |displ|/coords:  0.0293 (   1)  0.0281 (   9)  0.0211 (   2)
................................................................................
.............................. CYCLE   41 ......................................
................................................................................
   1    -50.7278230 -0.507278E+02  0.452E-02    9.02       0.0  T
   2    -50.7278235 -0.492140E-06  0.337E-02    9.02       1.0  T
   3    -50.7278239 -0.407189E-06  0.520E-03    9.01       3.8  T
   4    -50.7278240 -0.626362E-07  0.175E-03    9.01      11.2  T
   5    -50.7278240 -0.400840E-08  0.488E-04    9.01      40.2  T
   6    -50.7278240 -0.349587E-09  0.302E-04    9.01      65.0  T
speedup  1.00
cpu  time for SCC    0.01 s
wall time for SCC    0.01 s
speedup  1.01
cpu  time for grad    0.01 s
wall time for grad    0.01 s
 E :    -50.44914514  G :  0.002677    pred/act E change: -0.226D-04 -0.260D-04
Maxdispl :   0.0412   ||displ|| :   0.1073   Lambda : -0.373D-04
Largest |displ|/coords:  0.0412 (   9)  0.0391 (   2)  0.0381 (   6)
................................................................................
.............................. CYCLE   42 ......................................
................................................................................
   1    -50.7279867 -0.507280E+02  0.598E-02    9.00       0.0  T
   2    -50.7279876 -0.890624E-06  0.446E-02    8.99       1.0  T
   3    -50.7279882 -0.672271E-06  0.674E-03    8.99       2.9  T
   4    -50.7279884 -0.123824E-06  0.204E-03    8.99       9.6  T
   5    -50.7279884 -0.591736E-08  0.638E-04    8.99      30.7  T
   6    -50.7279884 -0.590781E-09  0.366E-04    8.99      53.6  T
speedup  1.02
cpu  time for SCC    0.01 s
wall time for SCC    0.01 s
speedup  1.03
cpu  time for grad    0.01 s
wall time for grad    0.01 s
 E :    -50.44916914  G :  0.002875    pred/act E change: -0.215D-04 -0.240D-04
Maxdispl :   0.0619   ||displ|| :   0.1374   Lambda : -0.413D-04
Largest |displ|/coords:  0.0619 (   9)  0.0506 (   4)  0.0435 (   1)
................................................................................
.............................. CYCLE   43 ......................................
................................................................................
   1    -50.7277029 -0.507277E+02  0.767E-02    8.99       0.0  T
   2    -50.7277039 -0.104350E-05  0.573E-02    8.98       1.0  T
   3    -50.7277050 -0.113053E-05  0.698E-03    8.97       2.8  T
   4    -50.7277051 -0.965158E-07  0.259E-03    8.98       7.6  T
   5    -50.7277051 -0.880100E-08  0.777E-04    8.98      25.3  T
   6    -50.7277051 -0.808363E-09  0.479E-04    8.98      41.0  T
speedup  1.00
cpu  time for SCC    0.01 s
wall time for SCC    0.01 s
speedup  1.01
cpu  time for grad    0.01 s
wall time for grad    0.01 s
 E :    -50.44919432  G :  0.003387    pred/act E change: -0.189D-04 -0.252D-04
Maxdispl :   0.0488   ||displ|| :   0.1159   Lambda : -0.367D-04
Largest |displ|/coords:  0.0488 (   2)  0.0442 (   3)  0.0421 (   6)
................................................................................
.............................. CYCLE   44 ......................................
................................................................................
   1    -50.7284674 -0.507285E+02  0.612E-02    9.00       0.0  T
   2    -50.7284681 -0.743927E-06  0.457E-02    9.00       1.0  T
   3    -50.7284689 -0.742643E-06  0.555E-03    8.98       3.5  T
   4    -50.7284689 -0.731354E-07  0.163E-03    8.99      12.1  T
   5    -50.7284689 -0.408828E-08  0.659E-04    8.99      29.7  T
   6    -50.7284689 -0.655426E-09  0.319E-04    8.99      61.5  T
speedup  1.02
cpu  time for SCC    0.01 s
wall time for SCC    0.01 s
speedup  1.02
cpu  time for grad    0.01 s
wall time for grad    0.01 s
 E :    -50.44921471  G :  0.002725    pred/act E change: -0.210D-04 -0.204D-04
Maxdispl :   0.0564   ||displ|| :   0.0900   Lambda : -0.240D-04
Largest |displ|/coords:  0.0564 (   1)  0.0394 (   9)  0.0297 (   2)
................................................................................
.............................. CYCLE   45 ......................................
................................................................................
   1    -50.7279489 -0.507279E+02  0.501E-02    8.97       0.0  T
   2    -50.7279493 -0.374847E-06  0.372E-02    8.96       1.0  T
   3    -50.7279497 -0.452406E-06  0.500E-03    8.96       3.9  T
   4    -50.7279498 -0.235633E-07  0.947E-04    8.96      20.7  T
   5    -50.7279498 -0.181284E-08  0.516E-04    8.96      38.0  T
speedup  1.00
cpu  time for SCC    0.00 s
wall time for SCC    0.01 s
speedup  1.02
cpu  time for grad    0.01 s
wall time for grad    0.01 s
 E :    -50.44923002  G :  0.002024    pred/act E change: -0.186D-04 -0.153D-04
Maxdispl :   0.0244   ||displ|| :   0.0507   Lambda : -0.149D-04
Largest |displ|/coords:  0.0244 (   2)  0.0241 (   1)  0.0189 (   9)
................................................................................
.............................. CYCLE   46 ......................................
................................................................................
   1    -50.7278357 -0.507278E+02  0.293E-02    8.96       0.0  T
   2    -50.7278359 -0.205099E-06  0.215E-02    8.96       1.0  T
   3    -50.7278361 -0.166572E-06  0.352E-03    8.96       5.6  T
   4    -50.7278361 -0.197434E-07  0.857E-04    8.96      22.9  T
   5    -50.7278361 -0.174870E-08  0.314E-04    8.96      62.5  T
speedup  0.96
cpu  time for SCC    0.00 s
wall time for SCC    0.01 s
speedup  1.00
cpu  time for grad    0.01 s
wall time for grad    0.01 s
 E :    -50.44924008  G :  0.001675    pred/act E change: -0.121D-04 -0.101D-04
Maxdispl :   0.0338   ||displ|| :   0.0620   Lambda : -0.109D-04
Largest |displ|/coords:  0.0338 (   1)  0.0291 (   2)  0.0213 (   7)
................................................................................
.............................. CYCLE   47 ......................................
................................................................................
   1    -50.7278253 -0.507278E+02  0.337E-02    8.96       0.0  T
   2    -50.7278255 -0.207948E-06  0.249E-02    8.96       1.0  T
   3    -50.7278257 -0.209195E-06  0.358E-03    8.96       5.5  T
   4    -50.7278257 -0.162143E-07  0.112E-03    8.96      17.6  T
   5    -50.7278257 -0.219853E-08  0.351E-04    8.96      55.9  T
   6    -50.7278257 -0.173074E-09  0.227E-04    8.96      86.4  T
speedup  1.00
cpu  time for SCC    0.01 s
wall time for SCC    0.01 s
speedup  1.01
cpu  time for grad    0.01 s
wall time for grad    0.01 s
 E :    -50.44924811  G :  0.001683    pred/act E change: -0.745D-05 -0.803D-05
Maxdispl :   0.0401   ||displ|| :   0.0845   Lambda : -0.121D-04
Largest |displ|/coords:  0.0401 (   2)  0.0399 (   1)  0.0313 (   7)
................................................................................
.............................. CYCLE   48 ......................................
................................................................................
   1    -50.7277698 -0.507278E+02  0.456E-02    8.96       0.0  T
   2    -50.7277702 -0.372203E-06  0.338E-02    8.96       1.0  T
   3    -50.7277706 -0.379473E-06  0.482E-03    8.96       4.1  T
   4    -50.7277706 -0.307067E-07  0.166E-03    8.96      11.8  T
   5    -50.7277706 -0.412138E-08  0.475E-04    8.96      41.3  T
   6    -50.7277706 -0.310543E-09  0.317E-04    8.96      61.8  T
speedup  1.00
cpu  time for SCC    0.01 s
wall time for SCC    0.01 s
speedup  1.01
cpu  time for grad    0.01 s
wall time for grad    0.01 s
 E :    -50.44925697  G :  0.001760    pred/act E change: -0.545D-05 -0.885D-05
Maxdispl :   0.0396   ||displ|| :   0.0888   Lambda : -0.114D-04
Largest |displ|/coords:  0.0396 (   2)  0.0378 (   1)  0.0371 (   7)
................................................................................
.............................. CYCLE   49 ......................................
................................................................................
   1    -50.7278107 -0.507278E+02  0.483E-02    8.96       0.0  T
   2    -50.7278110 -0.321728E-06  0.359E-02    8.96       1.0  T
   3    -50.7278114 -0.364528E-06  0.457E-03    8.97       4.3  T
   4    -50.7278114 -0.218636E-07  0.136E-03    8.97      14.4  T
   5    -50.7278114 -0.338339E-08  0.461E-04    8.97      42.5  T
   6    -50.7278114 -0.285006E-09  0.307E-04    8.97      63.9  T
speedup  1.02
cpu  time for SCC    0.01 s
wall time for SCC    0.01 s
speedup  1.02
cpu  time for grad    0.01 s
wall time for grad    0.01 s
 E :    -50.44926539  G :  0.001800    pred/act E change: -0.611D-05 -0.842D-05
Maxdispl :   0.0449   ||displ|| :   0.1027   Lambda : -0.109D-04
Largest |displ|/coords:  0.0449 (   2)  0.0410 (   1)  0.0410 (   4)
................................................................................
.............................. CYCLE   50 ......................................
................................................................................
   1    -50.7276442 -0.507276E+02  0.553E-02    8.96       0.0  T
   2    -50.7276446 -0.407508E-06  0.413E-02    8.96       1.0  T
   3    -50.7276451 -0.441547E-06  0.495E-03    8.97       4.0  T
   4    -50.7276451 -0.357466E-07  0.171E-03    8.97      11.5  T
   5    -50.7276451 -0.396497E-08  0.507E-04    8.97      38.7  T
   6    -50.7276451 -0.348322E-09  0.336E-04    8.97      58.5  T
speedup  1.02
cpu  time for SCC    0.01 s
wall time for SCC    0.01 s
speedup  1.02
cpu  time for grad    0.01 s
wall time for grad    0.01 s
 E :    -50.44927307  G :  0.001587    pred/act E change: -0.575D-05 -0.768D-05
Maxdispl :   0.0301   ||displ|| :   0.0696   Lambda : -0.820D-05
Largest |displ|/coords:  0.0301 (   3)  0.0281 (   2)  0.0280 (   4)
................................................................................
.............................. CYCLE   51 ......................................
................................................................................
   1    -50.7277760 -0.507278E+02  0.421E-02    8.97       0.0  T
   2    -50.7277763 -0.211732E-06  0.315E-02    8.97       1.0  T
   3    -50.7277765 -0.210416E-06  0.340E-03    8.98       5.8  T
   4    -50.7277765 -0.220683E-07  0.967E-04    8.97      20.3  T
   5    -50.7277765 -0.127019E-08  0.344E-04    8.97      57.0  T
speedup  1.00
cpu  time for SCC    0.00 s
wall time for SCC    0.01 s
speedup  1.00
cpu  time for grad    0.01 s
wall time for grad    0.01 s
 E :    -50.44927825  G :  0.001466    pred/act E change: -0.551D-05 -0.518D-05
Maxdispl :   0.0314   ||displ|| :   0.0684   Lambda : -0.503D-05
Largest |displ|/coords:  0.0314 (   4)  0.0309 (   2)  0.0260 (   1)
................................................................................
.............................. CYCLE   52 ......................................
................................................................................
   1    -50.7274522 -0.507275E+02  0.377E-02    8.96       0.0  T
   2    -50.7274525 -0.207629E-06  0.282E-02    8.96       1.0  T
   3    -50.7274526 -0.192225E-06  0.328E-03    8.96       6.0  T
   4    -50.7274527 -0.248688E-07  0.119E-03    8.96      16.5  T
   5    -50.7274527 -0.152637E-08  0.321E-04    8.96      61.1  T
   6    -50.7274527 -0.139686E-09  0.206E-04    8.96      95.0  T
speedup  1.02
cpu  time for SCC    0.01 s
wall time for SCC    0.01 s
speedup  1.02
cpu  time for grad    0.01 s
wall time for grad    0.01 s
 E :    -50.44928112  G :  0.000951    pred/act E change: -0.412D-05 -0.287D-05
Maxdispl :   0.0069   ||displ|| :   0.0179   Lambda : -0.293D-05
Largest |displ|/coords:  0.0069 (   6)  0.0066 (   3)  0.0063 (  13)

generating ANC from model Hessian ...
 Shifting diagonal of input Hessian by   5.038821262020416E-003
 Lowest  eigenvalues of input Hessian
    0.005000   -0.000000   -0.000000    0.000000    0.000000    0.000000
    0.000000    0.005277    0.005569    0.005854    0.006069    0.006803
    0.007091    0.007273    0.008404    0.008824    0.009505    0.010307
 Highest eigenvalues
    1.378173    1.390528    1.407865    2.577550    3.540239    3.617148
 
cpu  time for ANC gen    0.02 s
wall time for ANC gen    0.02 s
................................................................................
.............................. CYCLE   53 ......................................
................................................................................
   1    -50.7276375 -0.507276E+02  0.120E-02    8.97       0.0  T
   2    -50.7276375 -0.344903E-07  0.894E-03    8.97       2.2  T
   3    -50.7276375 -0.275709E-07  0.117E-03    8.97      16.8  T
   4    -50.7276375 -0.408317E-08  0.538E-04    8.97      36.5  T
   5    -50.7276375 -0.254531E-09  0.107E-04    8.97     183.2  T
speedup  0.98
cpu  time for SCC    0.00 s
wall time for SCC    0.01 s
speedup  1.01
cpu  time for grad    0.01 s
wall time for grad    0.01 s
 E :    -50.44928291  G :  0.000756    pred/act E change:  0.000D+00 -0.179D-05
Maxdispl :   0.0076   ||displ|| :   0.0111   Lambda : -0.196D-05
Largest |displ|/coords:  0.0076 (   7)  0.0028 (  10)  0.0028 (   2)
................................................................................
.............................. CYCLE   54 ......................................
................................................................................
   1    -50.7276083 -0.507276E+02  0.810E-03    8.97       0.0  T
   2    -50.7276084 -0.143504E-07  0.614E-03    8.97       3.2  T
   3    -50.7276084 -0.155068E-07  0.696E-04    8.97      28.2  T
   4    -50.7276084 -0.143151E-08  0.239E-04    8.97      82.2  T
speedup  1.00
cpu  time for SCC    0.00 s
wall time for SCC    0.00 s
speedup  1.02
cpu  time for grad    0.01 s
wall time for grad    0.01 s
 E :    -50.44928428  G :  0.000454    pred/act E change:  0.000D+00 -0.138D-05
Maxdispl :   0.0108   ||displ|| :   0.0219   Lambda : -0.258D-05
Largest |displ|/coords:  0.0108 (   3)  0.0102 (   7)  0.0065 (   5)
................................................................................
.............................. CYCLE   55 ......................................
................................................................................
   1    -50.7275647 -0.507276E+02  0.148E-02    8.96       0.0  T
   2    -50.7275647 -0.497138E-07  0.112E-02    8.96       1.8  T
   3    -50.7275648 -0.426809E-07  0.147E-03    8.96      13.3  T
   4    -50.7275648 -0.646654E-08  0.430E-04    8.96      45.6  T
   5    -50.7275648 -0.267775E-09  0.125E-04    8.96     156.3  T
speedup  0.98
cpu  time for SCC    0.00 s
wall time for SCC    0.01 s
speedup  0.94
cpu  time for grad    0.01 s
wall time for grad    0.01 s
 E :    -50.44928596  G :  0.000415    pred/act E change: -0.981D-06 -0.168D-05
Maxdispl :   0.0140   ||displ|| :   0.0245   Lambda : -0.159D-05
Largest |displ|/coords:  0.0140 (   3)  0.0132 (   7)  0.0066 (   5)
................................................................................
.............................. CYCLE   56 ......................................
................................................................................
   1    -50.7275465 -0.507275E+02  0.147E-02    8.96       0.0  T
   2    -50.7275466 -0.365472E-07  0.111E-02    8.96       1.8  T
   3    -50.7275466 -0.411199E-07  0.117E-03    8.96      16.8  T
   4    -50.7275466 -0.308386E-08  0.402E-04    8.96      48.8  T
   5    -50.7275466 -0.200565E-09  0.107E-04    8.96     182.9  T
speedup  0.98
cpu  time for SCC    0.00 s
wall time for SCC    0.01 s
speedup  0.99
cpu  time for grad    0.01 s
wall time for grad    0.01 s
 E :    -50.44928708  G :  0.000513    pred/act E change: -0.129D-05 -0.112D-05
Maxdispl :   0.0162   ||displ|| :   0.0320   Lambda : -0.161D-05
Largest |displ|/coords:  0.0162 (   3)  0.0152 (   7)  0.0146 (   5)
................................................................................
.............................. CYCLE   57 ......................................
................................................................................
   1    -50.7275574 -0.507276E+02  0.184E-02    8.95       0.0  T
   2    -50.7275575 -0.552980E-07  0.139E-02    8.95       1.4  T
   3    -50.7275575 -0.668507E-07  0.139E-03    8.95      14.1  T
   4    -50.7275575 -0.373499E-08  0.492E-04    8.95      39.9  T
   5    -50.7275575 -0.313641E-09  0.138E-04    8.95     142.4  T
speedup  0.98
cpu  time for SCC    0.00 s
wall time for SCC    0.01 s
speedup  1.00
cpu  time for grad    0.01 s
wall time for grad    0.01 s
 E :    -50.44928810  G :  0.000532    pred/act E change: -0.796D-06 -0.102D-05
Maxdispl :   0.0116   ||displ|| :   0.0232   Lambda : -0.106D-05
Largest |displ|/coords:  0.0116 (   5)  0.0112 (   3)  0.0109 (   7)
................................................................................
.............................. CYCLE   58 ......................................
................................................................................
   1    -50.7275996 -0.507276E+02  0.123E-02    8.95       0.0  T
   2    -50.7275996 -0.237209E-07  0.928E-03    8.95       2.1  T
   3    -50.7275996 -0.298412E-07  0.867E-04    8.95      22.6  T
   4    -50.7275996 -0.127505E-08  0.245E-04    8.95      80.0  T
speedup  1.00
cpu  time for SCC    0.00 s
wall time for SCC    0.00 s
speedup  1.02
cpu  time for grad    0.01 s
wall time for grad    0.01 s
 E :    -50.44928880  G :  0.000404    pred/act E change: -0.803D-06 -0.696D-06
Maxdispl :   0.0121   ||displ|| :   0.0174   Lambda : -0.734D-06
Largest |displ|/coords:  0.0121 (   5)  0.0074 (   7)  0.0048 (   2)
................................................................................
.............................. CYCLE   59 ......................................
................................................................................
   1    -50.7276389 -0.507276E+02  0.849E-03    8.95       0.0  T
   2    -50.7276389 -0.126456E-07  0.640E-03    8.95       3.1  T
   3    -50.7276389 -0.162872E-07  0.631E-04    8.95      31.1  T
   4    -50.7276389 -0.649003E-09  0.178E-04    8.95     110.3  T
speedup  1.25
cpu  time for SCC    0.00 s
wall time for SCC    0.00 s
speedup  1.02
cpu  time for grad    0.01 s
wall time for grad    0.01 s
 E :    -50.44928933  G :  0.000309    pred/act E change: -0.531D-06 -0.531D-06
Maxdispl :   0.0145   ||displ|| :   0.0195   Lambda : -0.646D-06
Largest |displ|/coords:  0.0145 (   5)  0.0069 (   7)  0.0058 (   2)
................................................................................
.............................. CYCLE   60 ......................................
................................................................................
   1    -50.7276561 -0.507277E+02  0.910E-03    8.95       0.0  T
   2    -50.7276561 -0.146846E-07  0.687E-03    8.95       2.9  T
   3    -50.7276561 -0.194586E-07  0.649E-04    8.95      30.2  T
   4    -50.7276561 -0.655390E-09  0.216E-04    8.95      90.7  T
speedup  1.00
cpu  time for SCC    0.00 s
wall time for SCC    0.00 s
speedup  1.02
cpu  time for grad    0.01 s
wall time for grad    0.01 s
 E :    -50.44928976  G :  0.000323    pred/act E change: -0.367D-06 -0.427D-06
Maxdispl :   0.0155   ||displ|| :   0.0217   Lambda : -0.595D-06
Largest |displ|/coords:  0.0155 (   5)  0.0082 (   7)  0.0078 (   4)
................................................................................
.............................. CYCLE   61 ......................................
................................................................................
   1    -50.7276391 -0.507276E+02  0.993E-03    8.95       0.0  T
   2    -50.7276391 -0.183249E-07  0.751E-03    8.95       2.6  T
   3    -50.7276392 -0.239804E-07  0.705E-04    8.95      27.8  T
   4    -50.7276392 -0.905672E-09  0.269E-04    8.95      73.0  T
speedup  0.95
cpu  time for SCC    0.00 s
wall time for SCC    0.00 s
speedup  0.99
cpu  time for grad    0.01 s
wall time for grad    0.01 s
 E :    -50.44929014  G :  0.000411    pred/act E change: -0.323D-06 -0.390D-06
Maxdispl :   0.0163   ||displ|| :   0.0223   Lambda : -0.594D-06
Largest |displ|/coords:  0.0163 (   5)  0.0080 (   4)  0.0068 (   7)
................................................................................
.............................. CYCLE   62 ......................................
................................................................................
   1    -50.7276031 -0.507276E+02  0.105E-02    8.95       0.0  T
   2    -50.7276032 -0.197450E-07  0.794E-03    8.95       2.5  T
   3    -50.7276032 -0.251540E-07  0.744E-04    8.96      26.4  T
   4    -50.7276032 -0.110080E-08  0.314E-04    8.96      62.5  T
speedup  0.95
cpu  time for SCC    0.00 s
wall time for SCC    0.00 s
speedup  0.98
cpu  time for grad    0.01 s
wall time for grad    0.01 s
 E :    -50.44929060  G :  0.000389    pred/act E change: -0.298D-06 -0.460D-06
Maxdispl :   0.0174   ||displ|| :   0.0258   Lambda : -0.657D-06
Largest |displ|/coords:  0.0174 (   5)  0.0107 (   4)  0.0082 (   3)
................................................................................
.............................. CYCLE   63 ......................................
................................................................................
   1    -50.7275555 -0.507276E+02  0.122E-02    8.95       0.0  T
   2    -50.7275555 -0.279486E-07  0.916E-03    8.95       2.1  T
   3    -50.7275556 -0.324888E-07  0.101E-03    8.96      19.4  T
   4    -50.7275556 -0.203876E-08  0.415E-04    8.96      47.3  T
   5    -50.7275556 -0.184563E-09  0.110E-04    8.96     178.1  T
speedup  0.98
cpu  time for SCC    0.00 s
wall time for SCC    0.01 s
speedup  1.01
cpu  time for grad    0.01 s
wall time for grad    0.01 s
 E :    -50.44929108  G :  0.000287    pred/act E change: -0.297D-06 -0.477D-06
Maxdispl :   0.0136   ||displ|| :   0.0222   Lambda : -0.403D-06
Largest |displ|/coords:  0.0136 (   5)  0.0096 (   3)  0.0090 (   4)
................................................................................
.............................. CYCLE   64 ......................................
................................................................................
   1    -50.7275250 -0.507275E+02  0.104E-02    8.95       0.0  T
   2    -50.7275250 -0.210336E-07  0.782E-03    8.95       2.5  T
   3    -50.7275250 -0.240312E-07  0.935E-04    8.95      21.0  T
   4    -50.7275250 -0.148439E-08  0.372E-04    8.95      52.8  T
speedup  1.22
cpu  time for SCC    0.00 s
wall time for SCC    0.00 s
speedup  1.08
cpu  time for grad    0.01 s
wall time for grad    0.01 s
 E :    -50.44929136  G :  0.000240    pred/act E change: -0.329D-06 -0.280D-06
Maxdispl :   0.0053   ||displ|| :   0.0094   Lambda : -0.266D-06
Largest |displ|/coords:  0.0053 (   3)  0.0039 (   4)  0.0029 (   5)
................................................................................
.............................. CYCLE   65 ......................................
................................................................................
   1    -50.7275348 -0.507275E+02  0.511E-03    8.95       0.0  T
   2    -50.7275349 -0.522757E-08  0.377E-03    8.95       5.2  T
   3    -50.7275349 -0.515129E-08  0.585E-04    8.96      33.5  T
   4    -50.7275349 -0.338304E-09  0.182E-04    8.96     107.9  T
speedup  0.98
cpu  time for SCC    0.00 s
wall time for SCC    0.00 s
speedup  0.99
cpu  time for grad    0.01 s
wall time for grad    0.01 s
 E :    -50.44929157  G :  0.000207    pred/act E change: -0.202D-06 -0.211D-06
Maxdispl :   0.0103   ||displ|| :   0.0185   Lambda : -0.295D-06
Largest |displ|/coords:  0.0103 (   3)  0.0081 (   5)  0.0064 (   4)
................................................................................
.............................. CYCLE   66 ......................................
................................................................................
   1    -50.7275185 -0.507275E+02  0.901E-03    8.95       0.0  T
   2    -50.7275185 -0.172992E-07  0.669E-03    8.95       2.9  T
   3    -50.7275185 -0.184508E-07  0.973E-04    8.96      20.2  T
   4    -50.7275185 -0.121486E-08  0.310E-04    8.96      63.2  T
speedup  0.98
cpu  time for SCC    0.00 s
wall time for SCC    0.00 s
speedup  1.01
cpu  time for grad    0.01 s
wall time for grad    0.01 s
 E :    -50.44929175  G :  0.000166    pred/act E change: -0.133D-06 -0.181D-06
Maxdispl :   0.0020   ||displ|| :   0.0048   Lambda : -0.102D-06
Largest |displ|/coords:  0.0020 (   3)  0.0017 (  12)  0.0016 (   9)
................................................................................
.............................. CYCLE   67 ......................................
................................................................................
   1    -50.7275290 -0.507275E+02  0.305E-03    8.96       0.0  T
   2    -50.7275290 -0.171368E-08  0.226E-03    8.96       8.7  T
   3    -50.7275290 -0.171141E-08  0.355E-04    8.96      55.2  T
   4    -50.7275290 -0.123272E-09  0.952E-05    8.96     206.0  T
speedup  1.00
cpu  time for SCC    0.00 s
wall time for SCC    0.00 s
speedup  1.00
cpu  time for grad    0.01 s
wall time for grad    0.01 s
 E :    -50.44929184  G :  0.000114    pred/act E change: -0.147D-06 -0.864D-07
Maxdispl :   0.0028   ||displ|| :   0.0050   Lambda : -0.924D-07
Largest |displ|/coords:  0.0028 (   5)  0.0018 (   8)  0.0016 (   9)

   *** GEOMETRY OPTIMIZATION CONVERGED AFTER 67 ITERATIONS ***

------------------------------------------------------------------------
 total energy gain (kcal):     -0.0056
------------------------------------------------------------------------
================
 final structure:
================
$coord
       -0.84515901271344        0.15977404391327       -4.35022733816598      S 
       -2.89542798912869        1.70550634374394       -3.40397962521385      O 
        1.36110810549488        1.59196437334387       -5.09474972610238      O 
       -0.23609743845051       -1.89799235386391       -2.61430638057771      O 
       -1.86826053044403       -1.20061775339356       -6.82203237976698      O 
       -2.23358609170983        0.19289164813109       -7.89785258510384      H 
       -2.81947972921340        0.99931660784134        3.77406063921711      O 
       -4.47246976150015        1.56657145656624        4.25047147212714      H 
        3.60954026355246        2.67863411431388       -0.86812441841297      O 
        2.86604218959485        2.13995092225694       -2.49655772744899      H 
        4.90739411911514        3.86929127675792       -1.29695576764024      H 
        1.14230382063653       -5.14550457010026        2.17804303058449      O 
        1.75080634414821       -5.33492445658635        0.47595557911790      H 
        1.95994766716598       -3.54004378556855        2.83176042057222      H 
       -2.89598166312309       -2.98233267726812        1.05521521315955      O 
       -2.93927898279386       -1.39731626626524        2.18339205733442      H 
       -2.05057888074997       -2.42429252537174       -0.65178550000373      H 
       -1.39924519711774       -4.10988264759049        1.75038309008656      H 
       -1.13542790563064        4.18034913676455        0.52742379850191      O 
        0.66371256988022        3.89907497199340        0.25545577925347      H 
       -1.95196944685673        3.50892921940072       -0.99932545370084      H 
       -2.14196680865938        2.32705069549824        2.57343566642926      H 
        2.80559183741498       -0.69660569993315        3.56282086691235      N 
        4.30981924023212       -0.52513716925364        4.73026276167092      H 
        1.31054319506917        0.16233964267478        4.39799191268319      H 
        3.19812004798136        0.27300543309835        1.94922461448448      H 
$end
 
 Bond Distances (Angstroems)
 ---------------------------
S1-O2=1.4481         S1-O3=1.4466         S1-O4=1.4606         S1-O5=1.5882         O2-S1=1.4481         O3-S1=1.4466         
O4-S1=1.4606         O5-S1=1.5882         O5-H6=0.9514         H6-O5=0.9514         O7-H8=0.9585         O7-H22=1.0128        
H8-O7=0.9585         O9-H10=0.9893        O9-H11=0.9593        H10-O9=0.9893        H11-O9=0.9593        O12-H13=0.9618       
O12-H14=1.0142       H13-O12=0.9618       H14-O12=1.0142       O15-H16=1.0298       O15-H17=1.0504       O15-H18=1.0577       
H16-O15=1.0298       H17-O15=1.0504       H18-O15=1.0577       O19-H20=0.9743       O19-H21=0.9827       H20-O19=0.9743       
H21-O19=0.9827       H22-O7=1.0128        N23-H24=1.0117       N23-H25=1.0138       N23-H26=1.0176       H24-N23=1.0117       
H25-N23=1.0138       H26-N23=1.0176       
 N  H  Rav=1.0144 sigma=0.0024  Rmin=1.0117  Rmax=1.0176     3
 O  H  Rav=0.9952 sigma=0.0355  Rmin=0.9514  Rmax=1.0577    12
 S  O  Rav=1.4859 sigma=0.0593  Rmin=1.4466  Rmax=1.5882     4
 
 selected bond angles (degree)
 --------------------
O3-S1-O2=113.76                O4-S1-O2=111.65                O4-S1-O3=112.57                O5-S1-O2=106.58                
O5-S1-O3=106.76                O5-S1-O4=104.79                H6-O5-S1=102.17                H22-O7-H8=105.71               
H11-O9-H10=105.54              
 
 selected dihedral angles (degree)
 ---------------------------------
H6-O5-S1-O2= 61.76            H6-O5-S1-O3=299.84            H6-O5-S1-O4=180.24            
 
 CMA Distance (Angstroems)
 ---------------------------
R(CMA):  3.2788

========================================================================
 FINAL SINGLEPOINT CALCULATION ON OPTIMIZED GEOMETRY
========================================================================

 Ncao       : 65
 Nao        : 64
 Nshell     : 38
 Nel        : 80
 T(el)      :   300.0
 intcut     :    25.0
 scfconv/Eh :  0.100E-05
   qconv/e  :  0.100E-03
 intneglect :  0.100E-07
 broydamp   :      0.250
 iter      E             dE          RMSdq      gap      omega  full diag
   1    -50.7275290 -0.507275E+02  0.403E-05    8.96       0.0  T
   2    -50.7275290 -0.753175E-12  0.255E-05    8.96     769.2  T
   3    -50.7275290 -0.476064E-12  0.365E-06    8.96    5366.4  T
speedup  1.00
cpu  time for SCC    0.00 s
wall time for SCC    0.00 s

   *** convergence criteria satisfied after 3 iterations ***

          eigenvalues
 #    :          28         29         30         31         32         33         34         35
 occ. :        2.000      2.000      2.000      2.000      2.000      2.000      2.000      2.000
 eps  :       -13.536    -13.292    -12.617    -12.581    -12.377    -12.240    -12.131    -12.110
 #    :          36         37         38         39         40         41         42         43
 occ. :        2.000      2.000      2.000      2.000      2.000      0.000      0.000      0.000
 eps  :       -11.964    -11.851    -11.797    -11.664    -11.190     -2.234     -0.605     -0.360
 #    :          44         45         46         47         48         49         50         51
 occ. :        0.000      0.000      0.000      0.000      0.000      0.000      0.000      0.000
 eps  :         0.692      1.474      1.525      1.711      2.697      4.014      4.185      4.795


   #   Z            q   n(s)   n(p)   n(d)      C6AA      α(0)
   1  16 S      1.657  1.582  1.799  0.961    89.747    15.945
   2   8 O     -0.737  1.771  4.966  0.000    29.726     7.310
   3   8 O     -0.729  1.772  4.957  0.000    29.506     7.283
   4   8 O     -0.718  1.756  4.962  0.000    29.171     7.243
   5   8 O     -0.586  1.750  4.835  0.000    24.817     6.725
   6   1 H      0.342  0.658  0.000  0.000     0.599     1.211
   7   8 O     -0.623  1.754  4.870  0.000    25.746     6.848
   8   1 H      0.291  0.709  0.000  0.000     0.747     1.358
   9   8 O     -0.629  1.745  4.883  0.000    25.886     6.867
  10   1 H      0.328  0.672  0.000  0.000     0.643     1.260
  11   1 H      0.289  0.711  0.000  0.000     0.755     1.365
  12   8 O     -0.598  1.755  4.843  0.000    25.130     6.767
  13   1 H      0.304  0.696  0.000  0.000     0.708     1.322
  14   1 H      0.330  0.670  0.000  0.000     0.634     1.249
  15   8 O     -0.515  1.734  4.782  0.000    23.159     6.500
  16   1 H      0.382  0.618  0.000  0.000     0.520     1.133
  17   1 H      0.387  0.613  0.000  0.000     0.505     1.115
  18   1 H      0.388  0.612  0.000  0.000     0.506     1.117
  19   8 O     -0.631  1.756  4.875  0.000    25.944     6.875
  20   1 H      0.316  0.684  0.000  0.000     0.674     1.290
  21   1 H      0.323  0.677  0.000  0.000     0.655     1.271
  22   1 H      0.349  0.651  0.000  0.000     0.591     1.208
  23   7 N     -0.455  1.368  4.087  0.000    31.953     8.395
  24   1 H      0.154  0.846  0.000  0.000     1.374     1.836
  25   1 H      0.182  0.818  0.000  0.000     1.204     1.719
  26   1 H      0.198  0.802  0.000  0.000     1.116     1.655

 Mol. C6AA /au·bohr⁶  :       5468.149940
 Mol. C8AA /au·bohr⁸  :     118245.302178
 Mol. α(0) /au        :        106.863889

 
 Wiberg/Mayer (AO) data. WBOs > 0.1 written file <wbo>
 largest (>0.05) Wiberg bond orders for each atom
           total WBO             WBO to atom ...
     1  S   4.884    O    2 1.336    O    3 1.335    O    4 1.285    O    5 0.891
     2  O   1.725    S    1 1.336    O    3 0.114    O    4 0.110    O    5 0.075    H   21 0.062
     3  O   1.742    S    1 1.335    O    2 0.114    O    4 0.102    H   10 0.077    O    5 0.076
     4  O   1.778    S    1 1.285    H   17 0.163    O    2 0.110    O    3 0.102    O    5 0.059
     5  O   1.973    S    1 0.891    H    6 0.867    O    3 0.076    O    2 0.075    O    4 0.059
     6  H   0.883    O    5 0.867
     7  O   1.926    H    8 0.910    H   22 0.752    H   16 0.145    O   15 0.053    O   19 0.051
     8  H   0.915    O    7 0.910
     9  O   1.858    H   11 0.910    H   10 0.809
    10  H   0.893    O    9 0.809    O    3 0.077
    11  H   0.917    O    9 0.910
    12  O   1.977    H   13 0.904    H   14 0.759    H   18 0.185    O   15 0.066    N   23 0.056
    13  H   0.907    O   12 0.904
    14  H   0.891    O   12 0.759    N   23 0.131
    15  O   2.233    H   16 0.707    H   17 0.678    H   18 0.661    O   12 0.066    O    7 0.053
    16  H   0.854    O   15 0.707    O    7 0.145
    17  H   0.850    O   15 0.678    O    4 0.163
    18  H   0.849    O   15 0.661    O   12 0.185
    19  O   1.913    H   20 0.849    H   21 0.829    H   22 0.123    O    7 0.051
    20  H   0.900    O   19 0.849
    21  H   0.895    O   19 0.829    O    2 0.062
    22  H   0.878    O    7 0.752    O   19 0.123
    23  N   3.079    H   24 0.973    H   25 0.958    H   26 0.938    H   14 0.131    O   12 0.056
    24  H   0.976    N   23 0.973
    25  H   0.967    N   23 0.958
    26  H   0.961    N   23 0.938
 MOs/occ written to file <molden.input>
 
molecular dipole:
                 x           y           z       tot (Debye)
 q only:        0.120      -0.433       1.535
   full:        0.423       0.294       0.641       2.090
molecular quadrupole (traceless):
                xx          xy          yy          xz          yz          zz
 q only:        5.231       2.175      -4.811       0.289      -0.356      -0.421
  q+dip:        6.296       2.067     -10.185       1.118       1.372       3.890
   full:        6.256       2.249     -10.711       1.281       1.454       4.454

SCC energy    :     -50.7275290
rep           :       0.2778517
ES            :       0.2485898
AES           :      -0.0660196
AXC           :      -0.0069358
disp          :      -0.0187323
XB            :       0.0000000
fix           :       0.0000000
total E       :     -50.4492918
atomizationE  :       4.9795960     3124.74
(atE without considering molecular charge,
 total energy contains solvation terms)
H-L gap (eV)  :          8.9558
optimized geometry written to: xtbopt.xyz


------------------------------------------------------------------------
 * finished run on 2019/09/16 at 12:04:05.322     
------------------------------------------------------------------------
 total:
 * wall-time:     0 d,  0 h,  0 min,  2.664 sec
 *  cpu-time:     0 d,  0 h,  0 min,  2.646 sec
 * ratio c/w:     0.993 speedup
 SCF:
 * wall-time:     0 d,  0 h,  0 min,  0.521 sec
 *  cpu-time:     0 d,  0 h,  0 min,  0.517 sec
 * ratio c/w:     0.993 speedup
 ANC optimizer:
 * wall-time:     0 d,  0 h,  0 min,  2.088 sec
 *  cpu-time:     0 d,  0 h,  0 min,  2.076 sec
 * ratio c/w:     0.994 speedup

