      -----------------------------------------------------------      
     |                   =====================                   |     
     |                           x T B                           |     
     |                   =====================                   |     
     |                         S. Grimme                         |     
     |          Mulliken Center for Theoretical Chemistry        |     
     |                    University of Bonn                     |     
     |                 Version 6.0.1 (SAW181210)                 |     
      -----------------------------------------------------------      

   This program is distributed in the hope that it will be useful,
   but WITHOUT ANY WARRANTY; without even the implied warranty of
   MERCHANTABILITY or FITNESS FOR A PARTICULAR PURPOSE.
   
   FOR NON-COMMERCIAL, ACADEMIA USE ONLY.
   
   Cite this work as:
   S. Grimme, C. Bannwarth, P. Shushkov, J. Comput. Theory Chem., 2017,
   13, 1989-2009.
   C. Bannwarth, S. Ehlert and S. Grimme., ChemRxiv, 2018, preprint.
   http://doi.org/10.26434/chemrxiv.7246238.v1
   
   for sTDA-xTB:
   S. Grimme and C. Bannwarth, J. Chem. Phys., 2016, 145, 054103.
   
   in the mass-spec context:
   V. Asgeirsson, C. Bauer and S. Grimme, Chem. Sci., 2017, 8, 4879.
   
   if GBSA is used:
   P. Shushkov, F. März and S. Grimme, unpublished.
   
   for ANC optimizer:
   S. Grimme, unpublished.
   Rational Function algorithm used in ANCopt:
   F. Eckert, P. Pulay, H.-J. Werner, J. Comput. Chem., 1997, 18, 1473.
   
   with help from (in alphabetical order)
   C. Bannwarth, F. Bohle, G. Brandenburg, E. Caldeweyher, M. Checinski,
   S. Dohm, S. Ehlert, S. Ehrlich, F. März, H. Neugebauer, J. Pisarek,
   P. Pracht, P. Shushkov, and S. Spicher.
   
 * started run on 2019/09/16 at 12:20:48.109     
========================================================================
 # omp threads = 1
========================================================================
number of atoms            : 26
number of electrons        : 80
charge                     : 0
spin                       : .0
first test random number   : .0007

########################################################################
# WARNING! Please study the warnings concerning your input carefully
#  - XTBPATH is not set, using XTBHOME instead
#  - the use of '-opt' is discouraged, please use '--opt' next time
#  - the use of '-chrg' is discouraged, please use '--chrg' next time
#  - the use of '-uhf' is discouraged, please use '--uhf' next time
########################################################################

           ------------------------------------------------- 
          |                 G F N 2 - x T B                 |
          | Geometry, Frequencies, Noncovalent interactions |
          |            JCTC 2018 parametrisation            |
           ------------------------------------------------- 
      method parameters     
 k(s)        :  1.8500
 k(p)        :  2.2300
 k(d)        :  2.2300
 k(f)        :  2.0000
 kEN (H0ij)  : -2.0000
 D4 a1       :  0.5200
 D4 a2       :  5.0000
 D4 s6       :  1.0000
 D4 s8       :  2.7000
 D4 s9       :  5.0000
 alphaj      :  2.0000


            Z     q(EN)     CN     RAES       Cart. coordinates
     1  S   6.0    0.64    4.26    4.17     2.69614    -2.56898     2.97693
     2  O   6.0   -0.31    1.22    1.80     4.69732    -2.11505     1.04889
     3  O   6.0   -0.33    1.20    1.80     1.34046    -0.15894     3.50791
     4  O   6.0   -0.30    1.23    1.80     0.87008    -4.47809     2.00279
     5  O   6.0   -0.25    2.08    1.84     3.86054    -3.51079     5.31567
     6  H   1.0    0.15    1.21    1.47     5.03726    -2.28131     5.94400
     7  O   6.0   -0.39    1.70    1.81    -0.52666    -0.54514    -4.24385
     8  H   1.0    0.17    0.95    1.42    -0.76990    -0.91561    -6.05696
     9  O   6.0   -0.31    2.04    1.83    -2.52985     3.26984    -2.37642
    10  H   1.0    0.14    0.97    1.43    -3.43142     4.13188    -3.70257
    11  H   1.0    0.18    1.13    1.45    -1.78728     1.80911    -3.16981
    12  O   6.0   -0.29    2.04    1.83     1.60993     4.02954     0.51648
    13  H   1.0    0.17    1.02    1.43     1.43868     2.89085     1.92668
    14  H   1.0    0.16    1.02    1.43    -0.06292     4.18113    -0.18583
    15  O   6.0   -0.22    2.92    2.60    -2.63545    -3.03626    -1.07260
    16  H   1.0    0.16    1.20    1.46    -1.83706    -2.16558    -2.51978
    17  H   1.0    0.15    1.06    1.44    -1.39744    -4.01885    -0.07668
    18  H   1.0    0.13    1.06    1.44    -3.61622    -1.85924    -0.00292
    19  O   6.0   -0.22    2.92    2.59     3.52039     0.83930    -2.68917
    20  H   1.0    0.15    1.06    1.44     4.32069    -0.46196    -1.61395
    21  H   1.0    0.16    1.20    1.46     1.98691     0.19739    -3.54147
    22  H   1.0    0.14    1.04    1.43     3.18682     2.41742    -1.74590
    23  N   5.0   -0.22    3.04    1.93    -4.15244     0.60010     2.20507
    24  H   1.0    0.11    1.01    1.43    -3.94969     2.02181     0.92106
    25  H   1.0    0.12    1.01    1.43    -2.46133     0.47576     3.11927
    26  H   1.0    0.11    0.99    1.43    -5.40758     1.25167     3.51317

  Z AO/shell   Hii/eV     exponent
  1     Wed Apr 25 08:07:45 CEST 2018   EN: 2.200 GM2: 0.406  GM3: 0.0800  RAES: 1.40
     1s    -10.707211    1.230000
  7     Wed Apr 25 08:07:45 CEST 2018   EN: 3.040 GM2: 0.461  GM3:-0.0640  RAES: 1.90
     2s    -16.686243    2.339881
     2p    -12.523956    2.014332
  8     Wed Apr 25 08:07:45 CEST 2018   EN: 3.440 GM2: 0.452  GM3:-0.0517  RAES: 1.80
     2s    -20.229985    2.439742
     2p    -15.503117    2.137023
 16     Tue Apr 24 11:44:34 CEST 2018   EN: 2.580 GM2: 0.340  GM3:-0.0502  RAES: 3.10
     3s    -20.029654    1.981333
     3p    -11.377694    2.025643
     3d     -0.420282    1.702555
 no old-style atom pair restraining (fixing) potential

molecular fragmentation (1/2 indicates fragments):
11111122222222222222222222
# atoms in fragment 1/2:     6    20
 fragment masses (1/2) :       97.07      108.11
CMA distance (Bohr)    :   6.490
constraining FC (au)   :  0.0500
           ------------------------------------------------- 
          |        Self-Consistent Charge Iterations        |
           ------------------------------------------------- 

 Ncao       : 65
 Nao        : 64
 Nshell     : 38
 Nel        : 80
 T(el)      :   300.0
 intcut     :    25.0
 scfconv/Eh :  0.100E-05
   qconv/e  :  0.100E-03
 intneglect :  0.100E-07
 broydamp   :      0.250
 iter      E             dE          RMSdq      gap      omega  full diag
   1    -50.5934821 -0.505935E+02  0.700E+00   10.10       0.0  T
   2    -50.6422761 -0.487940E-01  0.504E+00    9.50       1.0  T
   3    -50.6785184 -0.362423E-01  0.133E+00    8.16       1.0  T
   4    -50.6838522 -0.533374E-02  0.555E-01    8.53       1.0  T
   5    -50.6844768 -0.624625E-03  0.307E-01    8.54       1.0  T
   6    -50.6849043 -0.427529E-03  0.133E-01    8.61       1.0  T
   7    -50.6850022 -0.978834E-04  0.470E-02    8.59       1.0  T
   8    -50.6850120 -0.980787E-05  0.311E-02    8.59       1.0  T
   9    -50.6850186 -0.661651E-05  0.596E-03    8.60       3.3  T
  10    -50.6850188 -0.162875E-06  0.207E-03    8.60       9.5  T
  11    -50.6850188 -0.116893E-07  0.118E-03    8.60      16.6  T
  12    -50.6850188 -0.766141E-08  0.375E-04    8.60      52.3  T
  13    -50.6850188 -0.711530E-09  0.129E-04    8.60     151.8  T
speedup  0.88
cpu  time for SCC    0.02 s
wall time for SCC    0.02 s

   *** convergence criteria satisfied after 13 iterations ***

          eigenvalues
 #    :          28         29         30         31         32         33         34         35
 occ. :        2.000      2.000      2.000      2.000      2.000      2.000      2.000      2.000
 eps  :       -12.990    -12.866    -11.946    -11.866    -11.738    -11.705    -11.585    -11.158
 #    :          36         37         38         39         40         41         42         43
 occ. :        2.000      2.000      2.000      2.000      2.000      0.000      0.000      0.000
 eps  :       -11.131    -11.013    -10.889    -10.818    -10.523     -1.920     -0.227     -0.150
 #    :          44         45         46         47         48         49         50         51
 occ. :        0.000      0.000      0.000      0.000      0.000      0.000      0.000      0.000
 eps  :         0.734      1.100      1.392      2.364      3.002      3.741      4.282      5.320


   #   Z            q   n(s)   n(p)   n(d)      C6AA      α(0)
   1  16 S      1.603  1.584  1.838  0.976    91.014    16.057
   2   8 O     -0.760  1.773  4.987  0.000    30.399     7.392
   3   8 O     -0.766  1.775  4.992  0.000    30.584     7.415
   4   8 O     -0.731  1.766  4.964  0.000    29.558     7.289
   5   8 O     -0.544  1.720  4.824  0.000    23.857     6.594
   6   1 H      0.359  0.641  0.000  0.000     0.559     1.170
   7   8 O     -0.847  1.829  5.018  0.000    32.984     7.703
   8   1 H      0.215  0.785  0.000  0.000     1.043     1.605
   9   8 O     -0.652  1.754  4.898  0.000    26.454     6.942
  10   1 H      0.267  0.733  0.000  0.000     0.829     1.430
  11   1 H      0.340  0.660  0.000  0.000     0.611     1.227
  12   8 O     -0.630  1.746  4.883  0.000    25.904     6.869
  13   1 H      0.321  0.679  0.000  0.000     0.662     1.278
  14   1 H      0.322  0.678  0.000  0.000     0.659     1.275
  15   8 O     -0.455  1.653  4.802  0.000    21.885     6.318
  16   1 H      0.404  0.596  0.000  0.000     0.472     1.076
  17   1 H      0.399  0.601  0.000  0.000     0.487     1.097
  18   1 H      0.387  0.613  0.000  0.000     0.509     1.121
  19   8 O     -0.458  1.656  4.802  0.000    21.958     6.329
  20   1 H      0.395  0.605  0.000  0.000     0.495     1.105
  21   1 H      0.402  0.598  0.000  0.000     0.475     1.079
  22   1 H      0.396  0.604  0.000  0.000     0.492     1.102
  23   7 N     -0.475  1.389  4.086  0.000    32.568     8.476
  24   1 H      0.182  0.818  0.000  0.000     1.201     1.717
  25   1 H      0.185  0.815  0.000  0.000     1.187     1.707
  26   1 H      0.143  0.857  0.000  0.000     1.452     1.887

 Mol. C6AA /au·bohr⁶  :       5517.197187
 Mol. C8AA /au·bohr⁸  :     119491.532279
 Mol. α(0) /au        :        107.258425

 
 Wiberg/Mayer (AO) data. WBOs > 0.1 written file <wbo>
 largest (>0.05) Wiberg bond orders for each atom
           total WBO             WBO to atom ...
     1  S   4.911    O    4 1.315    O    3 1.286    O    2 1.278    O    5 0.995
     2  O   1.684    S    1 1.278    O    3 0.115    O    4 0.112    H   20 0.079    O    5 0.071
     3  O   1.665    S    1 1.286    O    2 0.115    O    4 0.113    O    5 0.074
     4  O   1.717    S    1 1.315    O    3 0.113    O    2 0.112    H   17 0.082    O    5 0.053
     5  O   2.046    S    1 0.995    H    6 0.847    O    3 0.074    O    2 0.071    O    4 0.053
     6  H   0.870    O    5 0.847
     7  O   1.627    H    8 0.943    H   16 0.193    H   21 0.191    H   11 0.116    O   15 0.061    O   19 0.061
     8  H   0.954    O    7 0.943
     9  O   1.825    H   10 0.920    H   11 0.766
    10  H   0.929    O    9 0.920
    11  H   0.885    O    9 0.766    O    7 0.116
    12  O   1.886    H   13 0.858    H   14 0.857    H   22 0.090
    13  H   0.897    O   12 0.858
    14  H   0.896    O   12 0.857
    15  O   2.287    H   18 0.759    H   17 0.751    H   16 0.640    O    7 0.061
    16  H   0.837    O   15 0.640    O    7 0.193
    17  H   0.841    O   15 0.751    O    4 0.082
    18  H   0.850    O   15 0.759    N   23 0.084
    19  O   2.285    H   20 0.757    H   22 0.748    H   21 0.643    O    7 0.061
    20  H   0.844    O   19 0.757    O    2 0.079
    21  H   0.838    O   19 0.643    O    7 0.191
    22  H   0.843    O   19 0.748    O   12 0.090
    23  N   3.010    H   26 0.972    H   25 0.946    H   24 0.944    H   18 0.084
    24  H   0.967    N   23 0.944
    25  H   0.966    N   23 0.946
    26  H   0.980    N   23 0.972
 MOs/occ written to file <molden.input>
 
molecular dipole:
                 x           y           z       tot (Debye)
 q only:       -0.691       0.567      -0.811
   full:       -0.513       0.641      -0.275       2.200
molecular quadrupole (traceless):
                xx          xy          yy          xz          yz          zz
 q only:        6.430       4.062     -10.720       2.171       1.528       4.290
  q+dip:        3.469      -2.673     -14.657       7.428      -0.030      11.187
   full:        3.397      -2.921     -15.005       7.927      -0.377      11.608

SCC energy    :     -50.6850188
rep           :       0.2894750
ES            :       0.2870933
AES           :      -0.0718185
AXC           :      -0.0076778
disp          :      -0.0192054
XB            :       0.0000000
fix           :       0.0000000
total E       :     -50.3951628
atomizationE  :       4.9254670     3090.78
(atE without considering molecular charge,
 total energy contains solvation terms)
H-L gap (eV)  :          8.6028
           ------------------------------------------------- 
          |                 ===============                 |
          |                   A N C O P T                   |
          |                 ===============                 |
          |          Approximate Normal Coordinate          |
          |           Rational Function Optimizer           |
           ------------------------------------------------- 
dumping coords to <xtbopt.coord> and <xtbopt.log>
 optlevel               2
 Maxcycle             520
 Maxmicro              25
 Econv         1.000000000000000E-007
 Gconv         2.000000000000000E-004
 Maxdispl       1.00000000000000     
 Hlow          5.000000000000000E-003
 S6             20.0000000000000     
 Nvar               72

generating ANC from model Hessian ...
 Shifting diagonal of input Hessian by   4.334780779104797E-003
 Lowest  eigenvalues of input Hessian
   -0.000000   -0.000000   -0.000000    0.000000    0.000000    0.000000
    0.005000    0.005324    0.006107    0.006347    0.006440    0.006648
    0.007229    0.008170    0.008574    0.008804    0.009613    0.010178
 Highest eigenvalues
    1.558386    1.583492    1.584466    3.141138    3.211474    3.318190
 
cpu  time for ANC gen    0.03 s
wall time for ANC gen    0.03 s
................................................................................
.............................. CYCLE    1 ......................................
................................................................................
   1    -50.6850188 -0.506850E+02  0.722E-05    8.60       0.0  T
   2    -50.6850188 -0.109992E-10  0.553E-05    8.60     354.7  T
   3    -50.6850188 -0.113687E-10  0.256E-05    8.60     767.0  T
speedup  0.94
cpu  time for SCC    0.00 s
wall time for SCC    0.00 s
speedup  0.99
cpu  time for grad    0.01 s
wall time for grad    0.01 s
 E :    -50.39516280  G :  0.201754    pred/act E change:  0.000D+00  0.408D-07
Maxdispl :   0.1521   ||displ|| :   0.3375   Lambda : -0.328D-01
Largest |displ|/coords:  0.1521 (  23)  0.1186 (  31)  0.1178 (  54)
................................................................................
.............................. CYCLE    2 ......................................
................................................................................
   1    -50.6937698 -0.506938E+02  0.311E-01    8.68       0.0  T
   2    -50.6939400 -0.170198E-03  0.237E-01    8.71       1.0  T
   3    -50.6940195 -0.794740E-04  0.725E-02    8.76       1.0  T
   4    -50.6940366 -0.171414E-04  0.186E-02    8.75       1.1  T
   5    -50.6940374 -0.756894E-06  0.541E-03    8.74       3.6  T
   6    -50.6940374 -0.459528E-07  0.295E-03    8.74       6.6  T
speedup  1.03
cpu  time for SCC    0.01 s
wall time for SCC    0.01 s
speedup  0.98
cpu  time for grad    0.01 s
wall time for grad    0.01 s
 E :    -50.42088468  G :  0.120783    pred/act E change:  0.000D+00 -0.257D-01
Maxdispl :   0.1589   ||displ|| :   0.3614   Lambda : -0.164D-01
Largest |displ|/coords:  0.1589 (  23)  0.1282 (  31)  0.1204 (  20)
................................................................................
.............................. CYCLE    3 ......................................
................................................................................
   1    -50.6973864 -0.506974E+02  0.261E-01    8.77       0.0  T
   2    -50.6976339 -0.247548E-03  0.193E-01    8.80       1.0  T
   3    -50.6977393 -0.105362E-03  0.783E-02    8.82       1.0  T
   4    -50.6977500 -0.107107E-04  0.149E-02    8.81       1.3  T
   5    -50.6977504 -0.365344E-06  0.525E-03    8.81       3.7  T
   6    -50.6977504 -0.390508E-07  0.272E-03    8.81       7.2  T
speedup  1.02
cpu  time for SCC    0.01 s
wall time for SCC    0.01 s
speedup  0.98
cpu  time for grad    0.01 s
wall time for grad    0.01 s
 E :    -50.43368646  G :  0.072855    pred/act E change: -0.183D-01 -0.128D-01
Maxdispl :   0.1278   ||displ|| :   0.3613   Lambda : -0.727D-02
Largest |displ|/coords:  0.1278 (  23)  0.1104 (  15)  0.0993 (  18)
................................................................................
.............................. CYCLE    4 ......................................
................................................................................
   1    -50.6978081 -0.506978E+02  0.241E-01    8.81       0.0  T
   2    -50.6980313 -0.223133E-03  0.172E-01    8.83       1.0  T
   3    -50.6981229 -0.916525E-04  0.669E-02    8.86       1.0  T
   4    -50.6981311 -0.817998E-05  0.123E-02    8.85       1.6  T
   5    -50.6981313 -0.220329E-06  0.453E-03    8.85       4.3  T
   6    -50.6981313 -0.231951E-07  0.236E-03    8.85       8.3  T
speedup  0.98
cpu  time for SCC    0.01 s
wall time for SCC    0.01 s
speedup  0.96
cpu  time for grad    0.01 s
wall time for grad    0.01 s
 E :    -50.43914696  G :  0.046741    pred/act E change: -0.929D-02 -0.546D-02
Maxdispl :   0.1251   ||displ|| :   0.3847   Lambda : -0.474D-02
Largest |displ|/coords:  0.1251 (   2)  0.1238 (  19)  0.1195 (  18)
................................................................................
.............................. CYCLE    5 ......................................
................................................................................
   1    -50.6975601 -0.506976E+02  0.278E-01    8.83       0.0  T
   2    -50.6977953 -0.235237E-03  0.202E-01    8.85       1.0  T
   3    -50.6978879 -0.925582E-04  0.722E-02    8.88       1.0  T
   4    -50.6979009 -0.130413E-04  0.162E-02    8.88       1.2  T
   5    -50.6979013 -0.368557E-06  0.459E-03    8.88       4.3  T
   6    -50.6979013 -0.293736E-07  0.255E-03    8.88       7.7  T
speedup  1.02
cpu  time for SCC    0.01 s
wall time for SCC    0.01 s
speedup  0.98
cpu  time for grad    0.01 s
wall time for grad    0.01 s
 E :    -50.44216065  G :  0.024629    pred/act E change: -0.411D-02 -0.301D-02
Maxdispl :   0.1920   ||displ|| :   0.3572   Lambda : -0.196D-02
Largest |displ|/coords:  0.1920 (  12)  0.1262 (   2)  0.1213 (   8)
................................................................................
.............................. CYCLE    6 ......................................
................................................................................
   1    -50.6969272 -0.506969E+02  0.253E-01    8.77       0.0  T
   2    -50.6970133 -0.860089E-04  0.187E-01    8.80       1.0  T
   3    -50.6970508 -0.375206E-04  0.466E-02    8.86       1.0  T
   4    -50.6970610 -0.102397E-04  0.144E-02    8.85       1.4  T
   5    -50.6970614 -0.355137E-06  0.398E-03    8.85       4.9  T
   6    -50.6970614 -0.190639E-07  0.218E-03    8.85       9.0  T
speedup  0.92
cpu  time for SCC    0.01 s
wall time for SCC    0.01 s
speedup  1.00
cpu  time for grad    0.01 s
wall time for grad    0.01 s
 E :    -50.44307468  G :  0.025125    pred/act E change: -0.272D-02 -0.914D-03
Maxdispl :   0.1411   ||displ|| :   0.3077   Lambda : -0.185D-02
Largest |displ|/coords:  0.1411 (   9)  0.1390 (   2)  0.0955 (   8)
................................................................................
.............................. CYCLE    7 ......................................
................................................................................
   1    -50.7025317 -0.507025E+02  0.219E-01    8.83       0.0  T
   2    -50.7025618 -0.301575E-04  0.164E-01    8.84       1.0  T
   3    -50.7025759 -0.140169E-04  0.278E-02    8.87       1.0  T
   4    -50.7025808 -0.495194E-05  0.937E-03    8.88       2.1  T
   5    -50.7025810 -0.149616E-06  0.276E-03    8.88       7.1  T
   6    -50.7025810 -0.662754E-08  0.157E-03    8.88      12.5  T
speedup  1.00
cpu  time for SCC    0.01 s
wall time for SCC    0.01 s
speedup  1.02
cpu  time for grad    0.01 s
wall time for grad    0.01 s
 E :    -50.44396782  G :  0.020029    pred/act E change: -0.110D-02 -0.893D-03
Maxdispl :   0.0724   ||displ|| :   0.1823   Lambda : -0.768D-03
Largest |displ|/coords:  0.0724 (   1)  0.0640 (   2)  0.0629 (   9)
................................................................................
.............................. CYCLE    8 ......................................
................................................................................
   1    -50.7050412 -0.507050E+02  0.109E-01    8.86       0.0  T
   2    -50.7050461 -0.489121E-05  0.827E-02    8.87       1.0  T
   3    -50.7050496 -0.351966E-05  0.122E-02    8.90       1.6  T
   4    -50.7050503 -0.700287E-06  0.494E-03    8.89       4.0  T
   5    -50.7050503 -0.317271E-07  0.130E-03    8.89      15.1  T
speedup  0.78
cpu  time for SCC    0.00 s
wall time for SCC    0.01 s
speedup  0.96
cpu  time for grad    0.01 s
wall time for grad    0.01 s
 E :    -50.44443566  G :  0.016967    pred/act E change: -0.101D-02 -0.468D-03
Maxdispl :   0.1580   ||displ|| :   0.3464   Lambda : -0.117D-02
Largest |displ|/coords:  0.1580 (   1)  0.1120 (  17)  0.1036 (  11)
................................................................................
.............................. CYCLE    9 ......................................
................................................................................
   1    -50.7055882 -0.507056E+02  0.186E-01    8.88       0.0  T
   2    -50.7056099 -0.216584E-04  0.139E-01    8.91       1.0  T
   3    -50.7056219 -0.120208E-04  0.260E-02    8.97       1.0  T
   4    -50.7056252 -0.327511E-05  0.975E-03    8.96       2.0  T
   5    -50.7056253 -0.106116E-06  0.276E-03    8.95       7.1  T
   6    -50.7056253 -0.103486E-07  0.149E-03    8.95      13.2  T
speedup  1.02
cpu  time for SCC    0.01 s
wall time for SCC    0.01 s
speedup  1.05
cpu  time for grad    0.01 s
wall time for grad    0.01 s
 E :    -50.44492196  G :  0.019447    pred/act E change: -0.397D-03 -0.486D-03
Maxdispl :   0.0739   ||displ|| :   0.1645   Lambda : -0.696D-03
Largest |displ|/coords:  0.0739 (   2)  0.0666 (   4)  0.0580 (  19)
................................................................................
.............................. CYCLE   10 ......................................
................................................................................
   1    -50.7091008 -0.507091E+02  0.112E-01    8.98       0.0  T
   2    -50.7091169 -0.160740E-04  0.829E-02    8.98       1.0  T
   3    -50.7091244 -0.756724E-05  0.213E-02    8.97       1.0  T
   4    -50.7091265 -0.208803E-05  0.637E-03    8.97       3.1  T
   5    -50.7091266 -0.547278E-07  0.190E-03    8.97      10.3  T
   6    -50.7091266 -0.386444E-08  0.996E-04    8.97      19.7  T
speedup  1.00
cpu  time for SCC    0.01 s
wall time for SCC    0.01 s
speedup  1.04
cpu  time for grad    0.01 s
wall time for grad    0.01 s
 E :    -50.44535141  G :  0.019337    pred/act E change: -0.653D-03 -0.429D-03
Maxdispl :   0.1399   ||displ|| :   0.3305   Lambda : -0.128D-02
Largest |displ|/coords:  0.1399 (   2)  0.1267 (  15)  0.1052 (  19)
................................................................................
.............................. CYCLE   11 ......................................
................................................................................
   1    -50.7086141 -0.507086E+02  0.234E-01    8.98       0.0  T
   2    -50.7086892 -0.750663E-04  0.170E-01    8.99       1.0  T
   3    -50.7087256 -0.364253E-04  0.414E-02    9.01       1.0  T
   4    -50.7087340 -0.836811E-05  0.109E-02    9.01       1.8  T
   5    -50.7087341 -0.159619E-06  0.423E-03    9.01       4.6  T
   6    -50.7087342 -0.243408E-07  0.195E-03    9.01      10.0  T
   7    -50.7087342 -0.787124E-08  0.605E-04    9.01      32.4  T
speedup  1.01
cpu  time for SCC    0.01 s
wall time for SCC    0.01 s
speedup  0.97
cpu  time for grad    0.01 s
wall time for grad    0.02 s
 E :    -50.44590099  G :  0.022002    pred/act E change: -0.358D-03 -0.550D-03
Maxdispl :   0.1295   ||displ|| :   0.3132   Lambda : -0.151D-02
Largest |displ|/coords:  0.1295 (   2)  0.1098 (  19)  0.0967 (  18)
................................................................................
.............................. CYCLE   12 ......................................
................................................................................
   1    -50.7117806 -0.507118E+02  0.233E-01    9.08       0.0  T
   2    -50.7119006 -0.120010E-03  0.169E-01    9.09       1.0  T
   3    -50.7119583 -0.577411E-04  0.529E-02    9.11       1.0  T
   4    -50.7119691 -0.108034E-04  0.119E-02    9.11       1.7  T
   5    -50.7119693 -0.204029E-06  0.465E-03    9.11       4.2  T
   6    -50.7119694 -0.261460E-07  0.225E-03    9.11       8.7  T
speedup  1.02
cpu  time for SCC    0.01 s
wall time for SCC    0.01 s
speedup  0.98
cpu  time for grad    0.01 s
wall time for grad    0.01 s
 E :    -50.44700688  G :  0.024551    pred/act E change: -0.708D-03 -0.111D-02
Maxdispl :   0.1396   ||displ|| :   0.4405   Lambda : -0.240D-02
Largest |displ|/coords:  0.1396 (   2)  0.1222 (   6)  0.1133 (  29)
................................................................................
.............................. CYCLE   13 ......................................
................................................................................
   1    -50.7200595 -0.507201E+02  0.329E-01    9.25       0.0  T
   2    -50.7202320 -0.172410E-03  0.242E-01    9.27       1.0  T
   3    -50.7203316 -0.996492E-04  0.698E-02    9.27       1.0  T
   4    -50.7203490 -0.173567E-04  0.189E-02    9.27       1.0  T
   5    -50.7203496 -0.600257E-06  0.711E-03    9.27       2.8  T
   6    -50.7203496 -0.528219E-07  0.335E-03    9.27       5.9  T
   7    -50.7203496 -0.191216E-07  0.108E-03    9.27      18.2  T
speedup  0.97
cpu  time for SCC    0.01 s
wall time for SCC    0.01 s
speedup  0.97
cpu  time for grad    0.01 s
wall time for grad    0.02 s
 E :    -50.44824549  G :  0.036781    pred/act E change: -0.830D-03 -0.124D-02
Maxdispl :   0.1503   ||displ|| :   0.3512   Lambda : -0.288D-02
Largest |displ|/coords:  0.1503 (  18)  0.1063 (  29)  0.0989 (  19)
................................................................................
.............................. CYCLE   14 ......................................
................................................................................
   1    -50.7289000 -0.507289E+02  0.305E-01    9.35       0.0  T
   2    -50.7290269 -0.126945E-03  0.225E-01    9.33       1.0  T
   3    -50.7291099 -0.829147E-04  0.653E-02    9.29       1.0  T
   4    -50.7291237 -0.138282E-04  0.170E-02    9.30       1.2  T
   5    -50.7291242 -0.498847E-06  0.657E-03    9.30       3.0  T
   6    -50.7291242 -0.504061E-07  0.310E-03    9.30       6.3  T
   7    -50.7291243 -0.172231E-07  0.895E-04    9.30      21.9  T
speedup  0.88
cpu  time for SCC    0.01 s
wall time for SCC    0.01 s
speedup  0.99
cpu  time for grad    0.01 s
wall time for grad    0.02 s
 E :    -50.44821580  G :  0.055850    pred/act E change: -0.143D-02  0.297D-04
Maxdispl :   0.1441   ||displ|| :   0.4060   Lambda : -0.863D-02
Largest |displ|/coords:  0.1441 (   8)  0.1330 (  18)  0.1201 (  29)
................................................................................
.............................. CYCLE   15 ......................................
................................................................................
   1    -50.7054976 -0.507055E+02  0.421E-01    9.17       0.0  T
   2    -50.7057959 -0.298300E-03  0.309E-01    9.18       1.0  T
   3    -50.7059762 -0.180304E-03  0.927E-02    9.21       1.0  T
   4    -50.7060056 -0.294395E-04  0.260E-02    9.21       1.0  T
   5    -50.7060065 -0.842479E-06  0.884E-03    9.21       2.2  T
   6    -50.7060066 -0.130286E-06  0.465E-03    9.21       4.2  T
   7    -50.7060066 -0.255140E-07  0.117E-03    9.21      16.8  T
speedup  1.01
cpu  time for SCC    0.01 s
wall time for SCC    0.01 s
speedup  1.05
cpu  time for grad    0.02 s
wall time for grad    0.02 s
 E :    -50.44544806  G :  0.076960    pred/act E change: -0.162D-02  0.277D-02
Maxdispl :   0.2065   ||displ|| :   0.4776   Lambda : -0.197D-01
Largest |displ|/coords:  0.2065 (   8)  0.1771 (  19)  0.1254 (   9)
................................................................................
.............................. CYCLE   16 ......................................
................................................................................
   1    -50.7479039 -0.507479E+02  0.545E-01    9.33       0.0  T
   2    -50.7482368 -0.332895E-03  0.405E-01    9.31       1.0  T
   3    -50.7484979 -0.261101E-03  0.997E-02    9.24       1.0  T
   4    -50.7485271 -0.291540E-04  0.237E-02    9.25       1.0  T
   5    -50.7485279 -0.802473E-06  0.117E-02    9.25       1.7  T
   6    -50.7485280 -0.100361E-06  0.440E-03    9.25       4.5  T
   7    -50.7485280 -0.353981E-07  0.112E-03    9.25      17.5  T
speedup  1.00
cpu  time for SCC    0.01 s
wall time for SCC    0.01 s
speedup  1.03
cpu  time for grad    0.02 s
wall time for grad    0.02 s
 E :    -50.44468321  G :  0.126349    pred/act E change: -0.503D-02  0.765D-03
Maxdispl :   0.1533   ||displ|| :   0.3556   Lambda : -0.220D-01
Largest |displ|/coords:  0.1533 (  19)  0.1258 (   8)  0.1037 (   1)
................................................................................
.............................. CYCLE   17 ......................................
................................................................................
   1    -50.7053762 -0.507054E+02  0.440E-01    9.16       0.0  T
   2    -50.7056630 -0.286809E-03  0.322E-01    9.19       1.0  T
   3    -50.7058496 -0.186535E-03  0.905E-02    9.23       1.0  T
   4    -50.7058737 -0.241136E-04  0.292E-02    9.23       1.0  T
   5    -50.7058750 -0.128898E-05  0.916E-03    9.23       2.1  T
   6    -50.7058752 -0.167992E-06  0.513E-03    9.23       3.8  T
   7    -50.7058752 -0.324062E-07  0.132E-03    9.23      14.8  T
speedup  1.03
cpu  time for SCC    0.01 s
wall time for SCC    0.01 s
speedup  0.99
cpu  time for grad    0.01 s
wall time for grad    0.02 s
 E :    -50.44769502  G :  0.069748    pred/act E change: -0.121D-01 -0.301D-02
Maxdispl :   0.0893   ||displ|| :   0.3016   Lambda : -0.110D-01
Largest |displ|/coords:  0.0893 (  19)  0.0891 (   1)  0.0822 (   8)
................................................................................
.............................. CYCLE   18 ......................................
................................................................................
   1    -50.7390044 -0.507390E+02  0.322E-01    9.33       0.0  T
   2    -50.7391452 -0.140866E-03  0.237E-01    9.31       1.0  T
   3    -50.7392489 -0.103629E-03  0.636E-02    9.25       1.0  T
   4    -50.7392600 -0.111505E-04  0.192E-02    9.25       1.0  T
   5    -50.7392605 -0.516872E-06  0.701E-03    9.25       2.8  T
   6    -50.7392606 -0.346809E-07  0.340E-03    9.25       5.8  T
   7    -50.7392606 -0.178522E-07  0.804E-04    9.25      24.4  T
speedup  0.88
cpu  time for SCC    0.01 s
wall time for SCC    0.01 s
speedup  0.98
cpu  time for grad    0.01 s
wall time for grad    0.02 s
 E :    -50.45066533  G :  0.046871    pred/act E change: -0.124D-01 -0.297D-02
Maxdispl :   0.0789   ||displ|| :   0.1652   Lambda : -0.254D-02
Largest |displ|/coords:  0.0789 (   4)  0.0689 (  14)  0.0524 (   5)
................................................................................
.............................. CYCLE   19 ......................................
................................................................................
   1    -50.7304052 -0.507304E+02  0.141E-01    9.23       0.0  T
   2    -50.7304275 -0.223432E-04  0.103E-01    9.24       1.0  T
   3    -50.7304390 -0.115259E-04  0.240E-02    9.25       1.0  T
   4    -50.7304412 -0.222489E-05  0.807E-03    9.25       2.4  T
   5    -50.7304414 -0.105949E-06  0.248E-03    9.25       7.9  T
   6    -50.7304414 -0.956246E-08  0.134E-03    9.25      14.6  T
speedup  1.02
cpu  time for SCC    0.01 s
wall time for SCC    0.01 s
speedup  1.03
cpu  time for grad    0.01 s
wall time for grad    0.01 s
 E :    -50.45200548  G :  0.016898    pred/act E change: -0.599D-02 -0.134D-02
Maxdispl :   0.0415   ||displ|| :   0.1300   Lambda : -0.786D-03
Largest |displ|/coords:  0.0415 (  11)  0.0396 (  28)  0.0369 (   9)
................................................................................
.............................. CYCLE   20 ......................................
................................................................................
   1    -50.7294362 -0.507294E+02  0.115E-01    9.24       0.0  T
   2    -50.7294540 -0.177454E-04  0.844E-02    9.24       1.0  T
   3    -50.7294624 -0.837422E-05  0.220E-02    9.24       1.0  T
   4    -50.7294644 -0.206811E-05  0.632E-03    9.24       3.1  T
   5    -50.7294645 -0.676949E-07  0.209E-03    9.24       9.4  T
   6    -50.7294645 -0.578030E-08  0.105E-03    9.24      18.7  T
speedup  1.00
cpu  time for SCC    0.01 s
wall time for SCC    0.01 s
speedup  0.97
cpu  time for grad    0.01 s
wall time for grad    0.01 s
 E :    -50.45243220  G :  0.018854    pred/act E change: -0.130D-02 -0.427D-03
Maxdispl :   0.1218   ||displ|| :   0.2383   Lambda : -0.125D-02
Largest |displ|/coords:  0.1218 (   2)  0.0777 (  28)  0.0592 (  14)
................................................................................
.............................. CYCLE   21 ......................................
................................................................................
   1    -50.7304584 -0.507305E+02  0.163E-01    9.19       0.0  T
   2    -50.7305216 -0.632181E-04  0.119E-01    9.19       1.0  T
   3    -50.7305456 -0.240361E-04  0.411E-02    9.19       1.0  T
   4    -50.7305510 -0.538275E-05  0.113E-02    9.20       1.7  T
   5    -50.7305512 -0.152030E-06  0.303E-03    9.20       6.5  T
   6    -50.7305512 -0.154865E-07  0.147E-03    9.20      13.4  T
   7    -50.7305512 -0.325909E-08  0.540E-04    9.20      36.3  T
speedup  1.01
cpu  time for SCC    0.01 s
wall time for SCC    0.01 s
speedup  0.98
cpu  time for grad    0.01 s
wall time for grad    0.02 s
 E :    -50.45352946  G :  0.024374    pred/act E change: -0.400D-03 -0.110D-02
Maxdispl :   0.3206   ||displ|| :   0.6872   Lambda : -0.386D-02
Largest |displ|/coords:  0.3206 (   2)  0.2345 (  28)  0.1538 (  18)
................................................................................
.............................. CYCLE   22 ......................................
................................................................................
   1    -50.7365768 -0.507366E+02  0.501E-01    8.93       0.0  T
   2    -50.7374482 -0.871438E-03  0.357E-01    8.93       1.0  T
   3    -50.7377741 -0.325833E-03  0.141E-01    8.92       1.0  T
   4    -50.7378194 -0.453167E-04  0.372E-02    8.92       1.0  T
   5    -50.7378212 -0.183541E-05  0.111E-02    8.92       1.8  T
   6    -50.7378215 -0.250701E-06  0.477E-03    8.92       4.1  T
   7    -50.7378215 -0.437632E-07  0.177E-03    8.92      11.1  T
speedup  1.01
cpu  time for SCC    0.01 s
wall time for SCC    0.01 s
speedup  1.05
cpu  time for grad    0.02 s
wall time for grad    0.02 s
 E :    -50.45592397  G :  0.037639    pred/act E change: -0.662D-03 -0.239D-02
Maxdispl :   0.1871   ||displ|| :   0.3527   Lambda : -0.269D-02
Largest |displ|/coords:  0.1871 (   2)  0.1237 (  20)  0.1141 (  18)
................................................................................
.............................. CYCLE   23 ......................................
................................................................................
   1    -50.7362636 -0.507363E+02  0.171E-01    8.79       0.0  T
   2    -50.7362905 -0.269056E-04  0.125E-01    8.79       1.0  T
   3    -50.7363089 -0.183875E-04  0.298E-02    8.80       1.0  T
   4    -50.7363114 -0.249856E-05  0.114E-02    8.80       1.7  T
   5    -50.7363116 -0.189245E-06  0.304E-03    8.80       6.5  T
   6    -50.7363116 -0.210822E-07  0.175E-03    8.80      11.2  T
speedup  1.03
cpu  time for SCC    0.01 s
wall time for SCC    0.01 s
speedup  0.99
cpu  time for grad    0.01 s
wall time for grad    0.01 s
 E :    -50.45680134  G :  0.040532    pred/act E change: -0.284D-02 -0.877D-03
Maxdispl :   0.1098   ||displ|| :   0.2506   Lambda : -0.233D-02
Largest |displ|/coords:  0.1098 (   2)  0.0731 (   3)  0.0700 (   1)
................................................................................
.............................. CYCLE   24 ......................................
................................................................................
   1    -50.7462995 -0.507463E+02  0.161E-01    8.90       0.0  T
   2    -50.7463788 -0.792865E-04  0.117E-01    8.90       1.0  T
   3    -50.7464107 -0.319153E-04  0.458E-02    8.88       1.0  T
   4    -50.7464158 -0.512387E-05  0.101E-02    8.88       1.9  T
   5    -50.7464161 -0.294176E-06  0.361E-03    8.88       5.4  T
   6    -50.7464162 -0.161759E-07  0.171E-03    8.88      11.5  T
speedup  1.03
cpu  time for SCC    0.01 s
wall time for SCC    0.01 s
speedup  0.99
cpu  time for grad    0.01 s
wall time for grad    0.01 s
 E :    -50.45835458  G :  0.027591    pred/act E change: -0.151D-02 -0.155D-02
Maxdispl :   0.1287   ||displ|| :   0.2866   Lambda : -0.231D-02
Largest |displ|/coords:  0.1287 (   7)  0.1266 (   5)  0.0895 (  17)
................................................................................
.............................. CYCLE   25 ......................................
................................................................................
   1    -50.7500662 -0.507501E+02  0.171E-01    9.00       0.0  T
   2    -50.7500845 -0.182722E-04  0.126E-01    8.99       1.0  T
   3    -50.7500929 -0.839862E-05  0.253E-02    8.98       1.0  T
   4    -50.7500953 -0.234745E-05  0.782E-03    8.98       2.5  T
   5    -50.7500954 -0.103140E-06  0.232E-03    8.98       8.4  T
   6    -50.7500954 -0.854274E-08  0.125E-03    8.98      15.7  T
speedup  1.02
cpu  time for SCC    0.01 s
wall time for SCC    0.01 s
speedup  1.05
cpu  time for grad    0.01 s
wall time for grad    0.01 s
 E :    -50.45966744  G :  0.020646    pred/act E change: -0.124D-02 -0.131D-02
Maxdispl :   0.1362   ||displ|| :   0.3337   Lambda : -0.153D-02
Largest |displ|/coords:  0.1362 (   5)  0.1269 (   2)  0.1081 (  12)

generating ANC from model Hessian ...
 Shifting diagonal of input Hessian by   4.452255832286111E-003
 Lowest  eigenvalues of input Hessian
   -0.000000   -0.000000   -0.000000   -0.000000   -0.000000    0.000000
    0.005000    0.005474    0.005728    0.006231    0.006928    0.007781
    0.007835    0.008721    0.009609    0.009947    0.011360    0.012236
 Highest eigenvalues
    1.411378    1.423067    1.479755    2.591235    3.388911    3.724924
 
cpu  time for ANC gen    0.02 s
wall time for ANC gen    0.03 s
................................................................................
.............................. CYCLE   26 ......................................
................................................................................
   1    -50.7504510 -0.507505E+02  0.186E-01    9.07       0.0  T
   2    -50.7504914 -0.404515E-04  0.138E-01    9.07       1.0  T
   3    -50.7505059 -0.144514E-04  0.379E-02    9.07       1.0  T
   4    -50.7505108 -0.490907E-05  0.883E-03    9.07       2.2  T
   5    -50.7505110 -0.184768E-06  0.305E-03    9.07       6.4  T
   6    -50.7505110 -0.114112E-07  0.148E-03    9.07      13.3  T
   7    -50.7505110 -0.462116E-08  0.565E-04    9.07      34.7  T
   8    -50.7505110 -0.730573E-09  0.155E-04    9.07     126.4  T
speedup  1.04
cpu  time for SCC    0.01 s
wall time for SCC    0.01 s
speedup  1.02
cpu  time for grad    0.02 s
wall time for grad    0.02 s
 E :    -50.46037913  G :  0.017729    pred/act E change:  0.000D+00 -0.712D-03
Maxdispl :   0.1068   ||displ|| :   0.2169   Lambda : -0.152D-02
Largest |displ|/coords:  0.1068 (  10)  0.0706 (   1)  0.0702 (  20)
................................................................................
.............................. CYCLE   27 ......................................
................................................................................
   1    -50.7497968 -0.507498E+02  0.126E-01    9.08       0.0  T
   2    -50.7498040 -0.725549E-05  0.942E-02    9.09       1.0  T
   3    -50.7498071 -0.303381E-05  0.144E-02    9.11       1.4  T
   4    -50.7498084 -0.129485E-05  0.369E-03    9.11       5.3  T
   5    -50.7498084 -0.316555E-07  0.127E-03    9.10      15.4  T
   6    -50.7498084 -0.139367E-08  0.646E-04    9.10      30.4  T
speedup  0.86
cpu  time for SCC    0.00 s
wall time for SCC    0.01 s
speedup  0.99
cpu  time for grad    0.01 s
wall time for grad    0.01 s
 E :    -50.46134251  G :  0.006299    pred/act E change:  0.000D+00 -0.963D-03
Maxdispl :   0.1336   ||displ|| :   0.2226   Lambda : -0.470D-03
Largest |displ|/coords:  0.1336 (   1)  0.0900 (   6)  0.0830 (  10)
................................................................................
.............................. CYCLE   28 ......................................
................................................................................
   1    -50.7488582 -0.507489E+02  0.133E-01    9.10       0.0  T
   2    -50.7488611 -0.290141E-05  0.101E-01    9.11       1.0  T
   3    -50.7488639 -0.276513E-05  0.106E-02    9.12       1.9  T
   4    -50.7488642 -0.282334E-06  0.329E-03    9.11       6.0  T
   5    -50.7488642 -0.125813E-07  0.109E-03    9.11      18.1  T
   6    -50.7488642 -0.111086E-08  0.588E-04    9.11      33.3  T
speedup  1.00
cpu  time for SCC    0.01 s
wall time for SCC    0.01 s
speedup  1.03
cpu  time for grad    0.01 s
wall time for grad    0.01 s
 E :    -50.46167387  G :  0.007901    pred/act E change: -0.798D-03 -0.331D-03
Maxdispl :   0.2201   ||displ|| :   0.3151   Lambda : -0.409D-03
Largest |displ|/coords:  0.2201 (   1)  0.0881 (   6)  0.0807 (   3)
................................................................................
.............................. CYCLE   29 ......................................
................................................................................
   1    -50.7479091 -0.507479E+02  0.149E-01    9.12       0.0  T
   2    -50.7479118 -0.274335E-05  0.112E-01    9.13       1.0  T
   3    -50.7479147 -0.289234E-05  0.129E-02    9.14       1.5  T
   4    -50.7479149 -0.212628E-06  0.387E-03    9.14       5.1  T
   5    -50.7479149 -0.195671E-07  0.128E-03    9.14      15.3  T
   6    -50.7479149 -0.162870E-08  0.779E-04    9.14      25.2  T
speedup  1.03
cpu  time for SCC    0.01 s
wall time for SCC    0.01 s
speedup  0.99
cpu  time for grad    0.01 s
wall time for grad    0.01 s
 E :    -50.46196065  G :  0.010072    pred/act E change: -0.247D-03 -0.287D-03
Maxdispl :   0.2239   ||displ|| :   0.3342   Lambda : -0.376D-03
Largest |displ|/coords:  0.2239 (   1)  0.1170 (   6)  0.1017 (   3)
................................................................................
.............................. CYCLE   30 ......................................
................................................................................
   1    -50.7473209 -0.507473E+02  0.159E-01    9.12       0.0  T
   2    -50.7473251 -0.412560E-05  0.119E-01    9.13       1.0  T
   3    -50.7473297 -0.463689E-05  0.162E-02    9.14       1.2  T
   4    -50.7473300 -0.259136E-06  0.451E-03    9.13       4.4  T
   5    -50.7473300 -0.294724E-07  0.147E-03    9.13      13.4  T
   6    -50.7473300 -0.180516E-08  0.920E-04    9.13      21.3  T
speedup  1.00
cpu  time for SCC    0.01 s
wall time for SCC    0.01 s
speedup  0.97
cpu  time for grad    0.01 s
wall time for grad    0.01 s
 E :    -50.46219470  G :  0.008213    pred/act E change: -0.225D-03 -0.234D-03
Maxdispl :   0.1496   ||displ|| :   0.2193   Lambda : -0.240D-03
Largest |displ|/coords:  0.1496 (   1)  0.0627 (  15)  0.0607 (   3)
................................................................................
.............................. CYCLE   31 ......................................
................................................................................
   1    -50.7489806 -0.507490E+02  0.108E-01    9.16       0.0  T
   2    -50.7489840 -0.337690E-05  0.804E-02    9.16       1.0  T
   3    -50.7489872 -0.325347E-05  0.137E-02    9.16       1.4  T
   4    -50.7489875 -0.326756E-06  0.290E-03    9.16       6.8  T
   5    -50.7489876 -0.161578E-07  0.129E-03    9.16      15.2  T
speedup  1.02
cpu  time for SCC    0.00 s
wall time for SCC    0.00 s
speedup  0.97
cpu  time for grad    0.01 s
wall time for grad    0.01 s
 E :    -50.46230639  G :  0.005856    pred/act E change: -0.209D-03 -0.112D-03
Maxdispl :   0.0475   ||displ|| :   0.0986   Lambda : -0.113D-03
Largest |displ|/coords:  0.0475 (   6)  0.0432 (   3)  0.0323 (  11)
................................................................................
.............................. CYCLE   32 ......................................
................................................................................
   1    -50.7493968 -0.507494E+02  0.762E-02    9.17       0.0  T
   2    -50.7493982 -0.137031E-05  0.572E-02    9.17       1.0  T
   3    -50.7493994 -0.119797E-05  0.830E-03    9.16       2.4  T
   4    -50.7493995 -0.149666E-06  0.254E-03    9.16       7.7  T
   5    -50.7493995 -0.901428E-08  0.750E-04    9.16      26.2  T
speedup  0.96
cpu  time for SCC    0.00 s
wall time for SCC    0.01 s
speedup  0.96
cpu  time for grad    0.01 s
wall time for grad    0.01 s
 E :    -50.46237769  G :  0.004345    pred/act E change: -0.126D-03 -0.713D-04
Maxdispl :   0.0396   ||displ|| :   0.0816   Lambda : -0.743D-04
Largest |displ|/coords:  0.0396 (   6)  0.0279 (  11)  0.0275 (   2)
................................................................................
.............................. CYCLE   33 ......................................
................................................................................
   1    -50.7498776 -0.507499E+02  0.629E-02    9.17       0.0  T
   2    -50.7498785 -0.952871E-06  0.469E-02    9.17       1.0  T
   3    -50.7498793 -0.762455E-06  0.776E-03    9.17       2.5  T
   4    -50.7498794 -0.108411E-06  0.249E-03    9.17       7.9  T
   5    -50.7498794 -0.717277E-08  0.565E-04    9.17      34.7  T
speedup  0.78
cpu  time for SCC    0.00 s
wall time for SCC    0.01 s
speedup  0.94
cpu  time for grad    0.01 s
wall time for grad    0.01 s
 E :    -50.46242594  G :  0.003876    pred/act E change: -0.571D-04 -0.483D-04
Maxdispl :   0.0448   ||displ|| :   0.1011   Lambda : -0.712D-04
Largest |displ|/coords:  0.0448 (   6)  0.0325 (   2)  0.0325 (  11)
................................................................................
.............................. CYCLE   34 ......................................
................................................................................
   1    -50.7512615 -0.507513E+02  0.705E-02    9.18       0.0  T
   2    -50.7512629 -0.140100E-05  0.516E-02    9.18       1.0  T
   3    -50.7512639 -0.949438E-06  0.993E-03    9.18       2.0  T
   4    -50.7512640 -0.150619E-06  0.309E-03    9.18       6.4  T
   5    -50.7512640 -0.126115E-07  0.683E-04    9.18      28.7  T
   6    -50.7512640 -0.625462E-09  0.439E-04    9.18      44.7  T
speedup  1.02
cpu  time for SCC    0.01 s
wall time for SCC    0.01 s
speedup  1.00
cpu  time for grad    0.01 s
wall time for grad    0.01 s
 E :    -50.46245770  G :  0.003751    pred/act E change: -0.374D-04 -0.318D-04
Maxdispl :   0.0888   ||displ|| :   0.1698   Lambda : -0.757D-04
Largest |displ|/coords:  0.0888 (   6)  0.0609 (   1)  0.0601 (  11)
................................................................................
.............................. CYCLE   35 ......................................
................................................................................
   1    -50.7497901 -0.507498E+02  0.131E-01    9.18       0.0  T
   2    -50.7497936 -0.353913E-05  0.977E-02    9.18       1.0  T
   3    -50.7497964 -0.275909E-05  0.150E-02    9.18       1.3  T
   4    -50.7497968 -0.399990E-06  0.442E-03    9.18       4.4  T
   5    -50.7497968 -0.244351E-07  0.118E-03    9.18      16.6  T
   6    -50.7497968 -0.137567E-08  0.728E-04    9.18      26.9  T
   7    -50.7497968 -0.650012E-09  0.165E-04    9.18     118.9  T
speedup  1.01
cpu  time for SCC    0.01 s
wall time for SCC    0.01 s
speedup  1.01
cpu  time for grad    0.02 s
wall time for grad    0.02 s
 E :    -50.46246275  G :  0.008036    pred/act E change: -0.360D-04 -0.505D-05
Maxdispl :   0.0374   ||displ|| :   0.0683   Lambda : -0.815D-04
Largest |displ|/coords:  0.0374 (   3)  0.0346 (  11)  0.0257 (   6)
................................................................................
.............................. CYCLE   36 ......................................
................................................................................
   1    -50.7510019 -0.507510E+02  0.489E-02    9.18       0.0  T
   2    -50.7510026 -0.632083E-06  0.366E-02    9.17       1.0  T
   3    -50.7510032 -0.605784E-06  0.499E-03    9.17       3.9  T
   4    -50.7510032 -0.656749E-07  0.130E-03    9.17      15.0  T
   5    -50.7510032 -0.295813E-08  0.610E-04    9.17      32.2  T
speedup  1.00
cpu  time for SCC    0.00 s
wall time for SCC    0.00 s
speedup  0.98
cpu  time for grad    0.01 s
wall time for grad    0.01 s
 E :    -50.46250375  G :  0.002661    pred/act E change: -0.390D-04 -0.410D-04
Maxdispl :   0.0198   ||displ|| :   0.0451   Lambda : -0.315D-04
Largest |displ|/coords:  0.0198 (   7)  0.0182 (   5)  0.0180 (   2)
................................................................................
.............................. CYCLE   37 ......................................
................................................................................
   1    -50.7511289 -0.507511E+02  0.312E-02    9.17       0.0  T
   2    -50.7511292 -0.260783E-06  0.231E-02    9.17       1.0  T
   3    -50.7511294 -0.205244E-06  0.376E-03    9.17       5.2  T
   4    -50.7511294 -0.278832E-07  0.987E-04    9.17      19.9  T
   5    -50.7511294 -0.151457E-08  0.343E-04    9.17      57.2  T
speedup  0.98
cpu  time for SCC    0.00 s
wall time for SCC    0.01 s
speedup  0.99
cpu  time for grad    0.01 s
wall time for grad    0.01 s
 E :    -50.46251772  G :  0.002619    pred/act E change: -0.410D-04 -0.140D-04
Maxdispl :   0.0570   ||displ|| :   0.1011   Lambda : -0.409D-04
Largest |displ|/coords:  0.0570 (   2)  0.0422 (   6)  0.0330 (   5)
................................................................................
.............................. CYCLE   38 ......................................
................................................................................
   1    -50.7508468 -0.507508E+02  0.807E-02    9.16       0.0  T
   2    -50.7508478 -0.986266E-06  0.600E-02    9.16       1.0  T
   3    -50.7508486 -0.790688E-06  0.874E-03    9.17       2.2  T
   4    -50.7508487 -0.111723E-06  0.300E-03    9.17       6.5  T
   5    -50.7508487 -0.909606E-08  0.646E-04    9.17      30.4  T
   6    -50.7508487 -0.357602E-09  0.434E-04    9.17      45.2  T
speedup  1.00
cpu  time for SCC    0.01 s
wall time for SCC    0.01 s
speedup  1.01
cpu  time for grad    0.01 s
wall time for grad    0.01 s
 E :    -50.46254541  G :  0.002400    pred/act E change: -0.158D-04 -0.277D-04
Maxdispl :   0.0857   ||displ|| :   0.1497   Lambda : -0.399D-04
Largest |displ|/coords:  0.0857 (   2)  0.0628 (   6)  0.0379 (  19)
................................................................................
.............................. CYCLE   39 ......................................
................................................................................
   1    -50.7507572 -0.507508E+02  0.112E-01    9.16       0.0  T
   2    -50.7507594 -0.218392E-05  0.835E-02    9.16       1.0  T
   3    -50.7507612 -0.177273E-05  0.127E-02    9.16       1.5  T
   4    -50.7507614 -0.250802E-06  0.450E-03    9.16       4.4  T
   5    -50.7507614 -0.203793E-07  0.966E-04    9.16      20.3  T
   6    -50.7507614 -0.866493E-09  0.648E-04    9.16      30.3  T
speedup  1.00
cpu  time for SCC    0.01 s
wall time for SCC    0.01 s
speedup  1.01
cpu  time for grad    0.01 s
wall time for grad    0.01 s
 E :    -50.46256793  G :  0.003441    pred/act E change: -0.206D-04 -0.225D-04
Maxdispl :   0.0288   ||displ|| :   0.0553   Lambda : -0.197D-04
Largest |displ|/coords:  0.0288 (   2)  0.0223 (   5)  0.0167 (  18)
................................................................................
.............................. CYCLE   40 ......................................
................................................................................
   1    -50.7511111 -0.507511E+02  0.353E-02    9.16       0.0  T
   2    -50.7511114 -0.333864E-06  0.265E-02    9.16       1.0  T
   3    -50.7511117 -0.256546E-06  0.367E-03    9.16       5.3  T
   4    -50.7511117 -0.488675E-07  0.182E-03    9.16      10.8  T
   5    -50.7511117 -0.348199E-08  0.423E-04    9.16      46.3  T
   6    -50.7511117 -0.251504E-09  0.267E-04    9.16      73.5  T
speedup  1.02
cpu  time for SCC    0.01 s
wall time for SCC    0.01 s
speedup  1.01
cpu  time for grad    0.01 s
wall time for grad    0.01 s
 E :    -50.46258365  G :  0.002110    pred/act E change: -0.204D-04 -0.157D-04
Maxdispl :   0.0678   ||displ|| :   0.1502   Lambda : -0.371D-04
Largest |displ|/coords:  0.0678 (   2)  0.0608 (   6)  0.0502 (   5)
................................................................................
.............................. CYCLE   41 ......................................
................................................................................
   1    -50.7510631 -0.507511E+02  0.106E-01    9.15       0.0  T
   2    -50.7510651 -0.200845E-05  0.794E-02    9.16       1.0  T
   3    -50.7510669 -0.180354E-05  0.102E-02    9.16       1.9  T
   4    -50.7510671 -0.237309E-06  0.454E-03    9.16       4.3  T
   5    -50.7510671 -0.174640E-07  0.100E-03    9.16      19.6  T
   6    -50.7510671 -0.102041E-08  0.665E-04    9.16      29.5  T
speedup  1.02
cpu  time for SCC    0.01 s
wall time for SCC    0.01 s
speedup  1.01
cpu  time for grad    0.01 s
wall time for grad    0.01 s
 E :    -50.46260711  G :  0.002057    pred/act E change: -0.986D-05 -0.235D-04
Maxdispl :   0.0318   ||displ|| :   0.0783   Lambda : -0.220D-04
Largest |displ|/coords:  0.0318 (   6)  0.0273 (  18)  0.0263 (  17)
................................................................................
.............................. CYCLE   42 ......................................
................................................................................
   1    -50.7514595 -0.507515E+02  0.556E-02    9.16       0.0  T
   2    -50.7514602 -0.720317E-06  0.418E-02    9.16       1.0  T
   3    -50.7514609 -0.676784E-06  0.534E-03    9.16       3.7  T
   4    -50.7514610 -0.835484E-07  0.232E-03    9.16       8.5  T
   5    -50.7514610 -0.600261E-08  0.578E-04    9.16      33.9  T
   6    -50.7514610 -0.435712E-09  0.362E-04    9.16      54.1  T
speedup  1.19
cpu  time for SCC    0.01 s
wall time for SCC    0.01 s
speedup  1.01
cpu  time for grad    0.01 s
wall time for grad    0.01 s
 E :    -50.46262156  G :  0.002167    pred/act E change: -0.190D-04 -0.144D-04
Maxdispl :   0.0665   ||displ|| :   0.1439   Lambda : -0.232D-04
Largest |displ|/coords:  0.0665 (   6)  0.0513 (  18)  0.0400 (   5)
................................................................................
.............................. CYCLE   43 ......................................
................................................................................
   1    -50.7509549 -0.507510E+02  0.107E-01    9.15       0.0  T
   2    -50.7509569 -0.195626E-05  0.801E-02    9.15       1.0  T
   3    -50.7509588 -0.195606E-05  0.102E-02    9.15       1.9  T
   4    -50.7509590 -0.191012E-06  0.400E-03    9.15       4.9  T
   5    -50.7509590 -0.162793E-07  0.950E-04    9.15      20.6  T
   6    -50.7509590 -0.847983E-09  0.626E-04    9.15      31.3  T
speedup  1.02
cpu  time for SCC    0.01 s
wall time for SCC    0.01 s
speedup  1.01
cpu  time for grad    0.01 s
wall time for grad    0.01 s
 E :    -50.46263655  G :  0.002393    pred/act E change: -0.111D-04 -0.150D-04
Maxdispl :   0.0320   ||displ|| :   0.0867   Lambda : -0.225D-04
Largest |displ|/coords:  0.0320 (  18)  0.0313 (  17)  0.0302 (   6)
................................................................................
.............................. CYCLE   44 ......................................
................................................................................
   1    -50.7514793 -0.507515E+02  0.544E-02    9.15       0.0  T
   2    -50.7514799 -0.630540E-06  0.408E-02    9.15       1.0  T
   3    -50.7514806 -0.667785E-06  0.538E-03    9.15       3.6  T
   4    -50.7514806 -0.534208E-07  0.190E-03    9.15      10.3  T
   5    -50.7514807 -0.481958E-08  0.497E-04    9.15      39.4  T
   6    -50.7514807 -0.293724E-09  0.318E-04    9.15      61.6  T
speedup  0.97
cpu  time for SCC    0.01 s
wall time for SCC    0.01 s
speedup  0.99
cpu  time for grad    0.01 s
wall time for grad    0.02 s
 E :    -50.46264989  G :  0.002732    pred/act E change: -0.118D-04 -0.133D-04
Maxdispl :   0.0746   ||displ|| :   0.1398   Lambda : -0.244D-04
Largest |displ|/coords:  0.0746 (   6)  0.0503 (  18)  0.0413 (  17)
................................................................................
.............................. CYCLE   45 ......................................
................................................................................
   1    -50.7504079 -0.507504E+02  0.105E-01    9.14       0.0  T
   2    -50.7504103 -0.238708E-05  0.785E-02    9.14       1.0  T
   3    -50.7504124 -0.206299E-05  0.121E-02    9.14       1.6  T
   4    -50.7504126 -0.264766E-06  0.408E-03    9.14       4.8  T
   5    -50.7504127 -0.200602E-07  0.923E-04    9.14      21.2  T
   6    -50.7504127 -0.873250E-09  0.613E-04    9.14      32.0  T
speedup  0.97
cpu  time for SCC    0.01 s
wall time for SCC    0.01 s
speedup  0.98
cpu  time for grad    0.01 s
wall time for grad    0.02 s
 E :    -50.46265813  G :  0.003284    pred/act E change: -0.113D-04 -0.823D-05
Maxdispl :   0.0264   ||displ|| :   0.0548   Lambda : -0.190D-04
Largest |displ|/coords:  0.0264 (   2)  0.0220 (   6)  0.0159 (   1)
................................................................................
.............................. CYCLE   46 ......................................
................................................................................
   1    -50.7514684 -0.507515E+02  0.382E-02    9.16       0.0  T
   2    -50.7514686 -0.245209E-06  0.288E-02    9.16       1.0  T
   3    -50.7514688 -0.225060E-06  0.298E-03    9.16       6.6  T
   4    -50.7514688 -0.264195E-07  0.140E-03    9.16      14.0  T
   5    -50.7514688 -0.174596E-08  0.310E-04    9.16      63.3  T
   6    -50.7514688 -0.858762E-10  0.194E-04    9.16     101.0  T
speedup  0.85
cpu  time for SCC    0.00 s
wall time for SCC    0.01 s
speedup  0.94
cpu  time for grad    0.01 s
wall time for grad    0.01 s
 E :    -50.46266886  G :  0.002033    pred/act E change: -0.124D-04 -0.107D-04
Maxdispl :   0.0171   ||displ|| :   0.0391   Lambda : -0.117D-04
Largest |displ|/coords:  0.0171 (   1)  0.0132 (  18)  0.0131 (   6)
................................................................................
.............................. CYCLE   47 ......................................
................................................................................
   1    -50.7517027 -0.507517E+02  0.296E-02    9.16       0.0  T
   2    -50.7517029 -0.213782E-06  0.219E-02    9.16       1.0  T
   3    -50.7517031 -0.171279E-06  0.362E-03    9.16       5.4  T
   4    -50.7517031 -0.240484E-07  0.106E-03    9.16      18.5  T
   5    -50.7517031 -0.181905E-08  0.288E-04    9.16      68.1  T
   6    -50.7517031 -0.116337E-09  0.182E-04    9.16     108.0  T
speedup  1.00
cpu  time for SCC    0.01 s
wall time for SCC    0.01 s
speedup  1.00
cpu  time for grad    0.01 s
wall time for grad    0.01 s
 E :    -50.46267680  G :  0.001870    pred/act E change: -0.952D-05 -0.794D-05
Maxdispl :   0.0333   ||displ|| :   0.0828   Lambda : -0.128D-04
Largest |displ|/coords:  0.0333 (   6)  0.0321 (  18)  0.0254 (  17)
................................................................................
.............................. CYCLE   48 ......................................
................................................................................
   1    -50.7516997 -0.507517E+02  0.606E-02    9.16       0.0  T
   2    -50.7517004 -0.739337E-06  0.446E-02    9.16       1.0  T
   3    -50.7517011 -0.640153E-06  0.748E-03    9.16       2.6  T
   4    -50.7517012 -0.745503E-07  0.226E-03    9.16       8.7  T
   5    -50.7517012 -0.761000E-08  0.528E-04    9.16      37.1  T
   6    -50.7517012 -0.325656E-09  0.358E-04    9.16      54.8  T
speedup  1.03
cpu  time for SCC    0.01 s
wall time for SCC    0.01 s
speedup  1.01
cpu  time for grad    0.01 s
wall time for grad    0.01 s
 E :    -50.46268507  G :  0.002025    pred/act E change: -0.584D-05 -0.827D-05
Maxdispl :   0.0231   ||displ|| :   0.0605   Lambda : -0.102D-04
Largest |displ|/coords:  0.0231 (   6)  0.0201 (   1)  0.0198 (  18)
................................................................................
.............................. CYCLE   49 ......................................
................................................................................
   1    -50.7517464 -0.507517E+02  0.436E-02    9.15       0.0  T
   2    -50.7517468 -0.407658E-06  0.322E-02    9.15       1.0  T
   3    -50.7517472 -0.374405E-06  0.517E-03    9.16       3.8  T
   4    -50.7517472 -0.395718E-07  0.175E-03    9.15      11.2  T
   5    -50.7517472 -0.429791E-08  0.432E-04    9.15      45.3  T
   6    -50.7517472 -0.207542E-09  0.284E-04    9.15      69.1  T
speedup  1.03
cpu  time for SCC    0.01 s
wall time for SCC    0.01 s
speedup  0.99
cpu  time for grad    0.01 s
wall time for grad    0.02 s
 E :    -50.46269116  G :  0.001691    pred/act E change: -0.642D-05 -0.609D-05
Maxdispl :   0.0272   ||displ|| :   0.0721   Lambda : -0.840D-05
Largest |displ|/coords:  0.0272 (   1)  0.0265 (  18)  0.0234 (   6)
................................................................................
.............................. CYCLE   50 ......................................
................................................................................
   1    -50.7517046 -0.507517E+02  0.491E-02    9.14       0.0  T
   2    -50.7517050 -0.435468E-06  0.364E-02    9.14       1.0  T
   3    -50.7517054 -0.410138E-06  0.535E-03    9.14       3.7  T
   4    -50.7517054 -0.428579E-07  0.193E-03    9.14      10.2  T
   5    -50.7517054 -0.440373E-08  0.439E-04    9.14      44.7  T
   6    -50.7517054 -0.178254E-09  0.297E-04    9.14      66.1  T
speedup  1.02
cpu  time for SCC    0.01 s
wall time for SCC    0.01 s
speedup  1.01
cpu  time for grad    0.01 s
wall time for grad    0.01 s
 E :    -50.46269675  G :  0.001967    pred/act E change: -0.511D-05 -0.558D-05
Maxdispl :   0.0223   ||displ|| :   0.0392   Lambda : -0.103D-04
Largest |displ|/coords:  0.0223 (   1)  0.0118 (   5)  0.0117 (  11)
................................................................................
.............................. CYCLE   51 ......................................
................................................................................
   1    -50.7521526 -0.507522E+02  0.267E-02    9.15       0.0  T
   2    -50.7521528 -0.178375E-06  0.200E-02    9.15       1.0  T
   3    -50.7521529 -0.106508E-06  0.285E-03    9.15       6.9  T
   4    -50.7521530 -0.287840E-07  0.127E-03    9.15      15.5  T
   5    -50.7521530 -0.138446E-08  0.280E-04    9.15      70.1  T
   6    -50.7521530 -0.101323E-09  0.169E-04    9.15     116.2  T
speedup  0.85
cpu  time for SCC    0.00 s
wall time for SCC    0.01 s
speedup  0.99
cpu  time for grad    0.01 s
wall time for grad    0.02 s
 E :    -50.46270284  G :  0.001570    pred/act E change: -0.422D-05 -0.610D-05
Maxdispl :   0.0215   ||displ|| :   0.0505   Lambda : -0.600D-05
Largest |displ|/coords:  0.0215 (   1)  0.0177 (   5)  0.0175 (  18)
................................................................................
.............................. CYCLE   52 ......................................
................................................................................
   1    -50.7520241 -0.507520E+02  0.346E-02    9.14       0.0  T
   2    -50.7520243 -0.258721E-06  0.257E-02    9.14       1.0  T
   3    -50.7520245 -0.205028E-06  0.397E-03    9.14       4.9  T
   4    -50.7520246 -0.313166E-07  0.161E-03    9.14      12.2  T
   5    -50.7520246 -0.235526E-08  0.326E-04    9.14      60.2  T
   6    -50.7520246 -0.990568E-10  0.218E-04    9.14      89.9  T
speedup  1.00
cpu  time for SCC    0.01 s
wall time for SCC    0.01 s
speedup  0.94
cpu  time for grad    0.01 s
wall time for grad    0.01 s
 E :    -50.46270726  G :  0.001451    pred/act E change: -0.517D-05 -0.442D-05
Maxdispl :   0.0227   ||displ|| :   0.0475   Lambda : -0.739D-05
Largest |displ|/coords:  0.0227 (   1)  0.0167 (  19)  0.0154 (   5)

generating ANC from model Hessian ...
 Shifting diagonal of input Hessian by   4.536704905629596E-003
 Lowest  eigenvalues of input Hessian
   -0.000000   -0.000000   -0.000000    0.000000    0.000000    0.000000
    0.005000    0.005323    0.005657    0.006118    0.006765    0.007591
    0.007935    0.009084    0.009502    0.010256    0.010933    0.011684
 Highest eigenvalues
    1.408315    1.415098    1.458106    2.518511    3.401502    3.735989
 
cpu  time for ANC gen    0.03 s
wall time for ANC gen    0.03 s
................................................................................
.............................. CYCLE   53 ......................................
................................................................................
   1    -50.7521717 -0.507522E+02  0.311E-02    9.14       0.0  T
   2    -50.7521719 -0.243765E-06  0.231E-02    9.14       1.0  T
   3    -50.7521721 -0.163643E-06  0.377E-03    9.14       5.2  T
   4    -50.7521721 -0.339008E-07  0.158E-03    9.14      12.4  T
   5    -50.7521721 -0.205814E-08  0.315E-04    9.14      62.3  T
   6    -50.7521721 -0.974225E-10  0.210E-04    9.14      93.5  T
speedup  0.86
cpu  time for SCC    0.00 s
wall time for SCC    0.01 s
speedup  1.00
cpu  time for grad    0.01 s
wall time for grad    0.01 s
 E :    -50.46271215  G :  0.001129    pred/act E change:  0.000D+00 -0.489D-05
Maxdispl :   0.0057   ||displ|| :   0.0122   Lambda : -0.323D-05
Largest |displ|/coords:  0.0057 (   2)  0.0054 (  15)  0.0040 (  10)
................................................................................
.............................. CYCLE   54 ......................................
................................................................................
   1    -50.7521208 -0.507521E+02  0.104E-02    9.15       0.0  T
   2    -50.7521208 -0.196571E-07  0.792E-03    9.15       2.5  T
   3    -50.7521209 -0.235392E-07  0.787E-04    9.15      24.9  T
   4    -50.7521209 -0.126864E-08  0.292E-04    9.15      67.2  T
speedup  0.98
cpu  time for SCC    0.00 s
wall time for SCC    0.00 s
speedup  0.99
cpu  time for grad    0.01 s
wall time for grad    0.01 s
 E :    -50.46271436  G :  0.000665    pred/act E change:  0.000D+00 -0.221D-05
Maxdispl :   0.0097   ||displ|| :   0.0262   Lambda : -0.455D-05
Largest |displ|/coords:  0.0097 (  15)  0.0078 (   7)  0.0076 (  12)
................................................................................
.............................. CYCLE   55 ......................................
................................................................................
   1    -50.7520287 -0.507520E+02  0.229E-02    9.15       0.0  T
   2    -50.7520287 -0.466260E-07  0.172E-02    9.15       1.1  T
   3    -50.7520288 -0.418831E-07  0.159E-03    9.15      12.4  T
   4    -50.7520288 -0.505172E-08  0.540E-04    9.15      36.3  T
   5    -50.7520288 -0.347164E-09  0.157E-04    9.15     125.1  T
speedup  1.00
cpu  time for SCC    0.00 s
wall time for SCC    0.00 s
speedup  1.01
cpu  time for grad    0.01 s
wall time for grad    0.01 s
 E :    -50.46271659  G :  0.000776    pred/act E change: -0.161D-05 -0.223D-05
Maxdispl :   0.0079   ||displ|| :   0.0161   Lambda : -0.197D-05
Largest |displ|/coords:  0.0079 (   2)  0.0056 (  11)  0.0050 (  16)
................................................................................
.............................. CYCLE   56 ......................................
................................................................................
   1    -50.7520435 -0.507520E+02  0.135E-02    9.15       0.0  T
   2    -50.7520435 -0.351030E-07  0.103E-02    9.15       1.9  T
   3    -50.7520435 -0.391522E-07  0.995E-04    9.15      19.7  T
   4    -50.7520435 -0.275519E-08  0.395E-04    9.15      49.7  T
speedup  1.00
cpu  time for SCC    0.00 s
wall time for SCC    0.00 s
speedup  1.01
cpu  time for grad    0.01 s
wall time for grad    0.01 s
 E :    -50.46271784  G :  0.000703    pred/act E change: -0.228D-05 -0.125D-05
Maxdispl :   0.0097   ||displ|| :   0.0235   Lambda : -0.221D-05
Largest |displ|/coords:  0.0097 (   2)  0.0080 (   6)  0.0080 (  10)
................................................................................
.............................. CYCLE   57 ......................................
................................................................................
   1    -50.7521106 -0.507521E+02  0.189E-02    9.15       0.0  T
   2    -50.7521107 -0.433687E-07  0.142E-02    9.15       1.4  T
   3    -50.7521107 -0.349744E-07  0.122E-03    9.15      16.1  T
   4    -50.7521107 -0.617281E-08  0.543E-04    9.15      36.1  T
   5    -50.7521107 -0.243553E-09  0.140E-04    9.15     140.5  T
speedup  1.00
cpu  time for SCC    0.00 s
wall time for SCC    0.01 s
speedup  1.01
cpu  time for grad    0.01 s
wall time for grad    0.01 s
 E :    -50.46271915  G :  0.000485    pred/act E change: -0.985D-06 -0.131D-05
Maxdispl :   0.0062   ||displ|| :   0.0196   Lambda : -0.131D-05
Largest |displ|/coords:  0.0062 (  11)  0.0060 (   4)  0.0060 (   7)
................................................................................
.............................. CYCLE   58 ......................................
................................................................................
   1    -50.7521634 -0.507522E+02  0.158E-02    9.16       0.0  T
   2    -50.7521634 -0.385063E-07  0.119E-02    9.15       1.6  T
   3    -50.7521635 -0.291671E-07  0.110E-03    9.15      17.8  T
   4    -50.7521635 -0.608778E-08  0.432E-04    9.15      45.4  T
   5    -50.7521635 -0.131735E-09  0.118E-04    9.15     166.2  T
speedup  1.00
cpu  time for SCC    0.00 s
wall time for SCC    0.01 s
speedup  1.00
cpu  time for grad    0.01 s
wall time for grad    0.01 s
 E :    -50.46271994  G :  0.000484    pred/act E change: -0.111D-05 -0.784D-06
Maxdispl :   0.0059   ||displ|| :   0.0115   Lambda : -0.580D-06
Largest |displ|/coords:  0.0059 (   7)  0.0043 (  11)  0.0042 (  10)
................................................................................
.............................. CYCLE   59 ......................................
................................................................................
   1    -50.7521890 -0.507522E+02  0.981E-03    9.15       0.0  T
   2    -50.7521891 -0.110913E-07  0.739E-03    9.15       2.7  T
   3    -50.7521891 -0.744632E-08  0.560E-04    9.15      35.0  T
   4    -50.7521891 -0.186051E-08  0.258E-04    9.15      76.0  T
speedup  0.93
cpu  time for SCC    0.00 s
wall time for SCC    0.00 s
speedup  0.98
cpu  time for grad    0.01 s
wall time for grad    0.01 s
 E :    -50.46272038  G :  0.000359    pred/act E change: -0.655D-06 -0.439D-06
Maxdispl :   0.0063   ||displ|| :   0.0143   Lambda : -0.625D-06
Largest |displ|/coords:  0.0063 (   7)  0.0061 (  11)  0.0055 (  10)
................................................................................
.............................. CYCLE   60 ......................................
................................................................................
   1    -50.7522032 -0.507522E+02  0.122E-02    9.15       0.0  T
   2    -50.7522032 -0.192581E-07  0.923E-03    9.15       2.1  T
   3    -50.7522032 -0.163722E-07  0.772E-04    9.15      25.4  T
   4    -50.7522032 -0.261619E-08  0.369E-04    9.15      53.1  T
speedup  0.98
cpu  time for SCC    0.00 s
wall time for SCC    0.00 s
speedup  1.00
cpu  time for grad    0.01 s
wall time for grad    0.01 s
 E :    -50.46272080  G :  0.000244    pred/act E change: -0.290D-06 -0.423D-06
Maxdispl :   0.0043   ||displ|| :   0.0096   Lambda : -0.298D-06
Largest |displ|/coords:  0.0043 (   7)  0.0042 (  10)  0.0035 (  11)
................................................................................
.............................. CYCLE   61 ......................................
................................................................................
   1    -50.7522062 -0.507522E+02  0.795E-03    9.15       0.0  T
   2    -50.7522062 -0.810496E-08  0.598E-03    9.15       3.3  T
   3    -50.7522062 -0.701857E-08  0.596E-04    9.15      32.9  T
   4    -50.7522062 -0.101593E-08  0.240E-04    9.15      81.6  T
speedup  1.00
cpu  time for SCC    0.00 s
wall time for SCC    0.00 s
speedup  1.01
cpu  time for grad    0.01 s
wall time for grad    0.01 s
 E :    -50.46272103  G :  0.000260    pred/act E change: -0.313D-06 -0.229D-06
Maxdispl :   0.0065   ||displ|| :   0.0146   Lambda : -0.404D-06
Largest |displ|/coords:  0.0065 (  10)  0.0059 (   1)  0.0054 (  11)
................................................................................
.............................. CYCLE   62 ......................................
................................................................................
   1    -50.7522042 -0.507522E+02  0.121E-02    9.15       0.0  T
   2    -50.7522042 -0.206531E-07  0.910E-03    9.15       2.2  T
   3    -50.7522042 -0.199363E-07  0.103E-03    9.15      19.1  T
   4    -50.7522042 -0.217683E-08  0.381E-04    9.15      51.4  T
   5    -50.7522042 -0.119570E-09  0.878E-05    9.15     223.5  T
speedup  1.00
cpu  time for SCC    0.00 s
wall time for SCC    0.01 s
speedup  1.00
cpu  time for grad    0.01 s
wall time for grad    0.01 s
 E :    -50.46272130  G :  0.000307    pred/act E change: -0.149D-06 -0.275D-06
Maxdispl :   0.0056   ||displ|| :   0.0117   Lambda : -0.347D-06
Largest |displ|/coords:  0.0056 (   1)  0.0052 (  10)  0.0038 (   7)
................................................................................
.............................. CYCLE   63 ......................................
................................................................................
   1    -50.7522126 -0.507522E+02  0.908E-03    9.15       0.0  T
   2    -50.7522126 -0.125426E-07  0.677E-03    9.15       2.9  T
   3    -50.7522126 -0.104765E-07  0.917E-04    9.15      21.4  T
   4    -50.7522126 -0.142347E-08  0.288E-04    9.15      68.1  T
speedup  1.00
cpu  time for SCC    0.00 s
wall time for SCC    0.00 s
speedup  1.00
cpu  time for grad    0.01 s
wall time for grad    0.01 s
 E :    -50.46272156  G :  0.000298    pred/act E change: -0.202D-06 -0.259D-06
Maxdispl :   0.0058   ||displ|| :   0.0113   Lambda : -0.398D-06
Largest |displ|/coords:  0.0058 (   1)  0.0052 (  10)  0.0031 (  17)
................................................................................
.............................. CYCLE   64 ......................................
................................................................................
   1    -50.7522283 -0.507522E+02  0.821E-03    9.15       0.0  T
   2    -50.7522283 -0.124467E-07  0.608E-03    9.15       3.2  T
   3    -50.7522283 -0.964204E-08  0.977E-04    9.15      20.1  T
   4    -50.7522283 -0.137332E-08  0.299E-04    9.15      65.7  T
speedup  1.00
cpu  time for SCC    0.00 s
wall time for SCC    0.00 s
speedup  1.00
cpu  time for grad    0.01 s
wall time for grad    0.01 s
 E :    -50.46272186  G :  0.000322    pred/act E change: -0.173D-06 -0.297D-06
Maxdispl :   0.0057   ||displ|| :   0.0131   Lambda : -0.403D-06
Largest |displ|/coords:  0.0057 (   1)  0.0056 (  10)  0.0037 (  37)
................................................................................
.............................. CYCLE   65 ......................................
................................................................................
   1    -50.7522347 -0.507522E+02  0.991E-03    9.15       0.0  T
   2    -50.7522347 -0.147956E-07  0.737E-03    9.15       2.7  T
   3    -50.7522347 -0.134002E-07  0.103E-03    9.15      19.1  T
   4    -50.7522347 -0.153694E-08  0.317E-04    9.15      61.9  T
   5    -50.7522347 -0.128622E-09  0.694E-05    9.15     282.7  T
speedup  0.98
cpu  time for SCC    0.00 s
wall time for SCC    0.01 s
speedup  1.00
cpu  time for grad    0.01 s
wall time for grad    0.01 s
 E :    -50.46272214  G :  0.000354    pred/act E change: -0.199D-06 -0.285D-06
Maxdispl :   0.0057   ||displ|| :   0.0130   Lambda : -0.382D-06
Largest |displ|/coords:  0.0057 (  10)  0.0053 (   1)  0.0043 (  37)
................................................................................
.............................. CYCLE   66 ......................................
................................................................................
   1    -50.7522549 -0.507523E+02  0.955E-03    9.15       0.0  T
   2    -50.7522549 -0.151300E-07  0.712E-03    9.15       2.8  T
   3    -50.7522549 -0.134606E-07  0.983E-04    9.15      20.0  T
   4    -50.7522549 -0.165018E-08  0.308E-04    9.15      63.7  T
speedup  0.98
cpu  time for SCC    0.00 s
wall time for SCC    0.00 s
speedup  1.00
cpu  time for grad    0.01 s
wall time for grad    0.01 s
 E :    -50.46272242  G :  0.000356    pred/act E change: -0.202D-06 -0.276D-06
Maxdispl :   0.0034   ||displ|| :   0.0089   Lambda : -0.344D-06
Largest |displ|/coords:  0.0034 (  37)  0.0030 (   3)  0.0027 (  10)
................................................................................
.............................. CYCLE   67 ......................................
................................................................................
   1    -50.7522639 -0.507523E+02  0.674E-03    9.15       0.0  T
   2    -50.7522639 -0.101067E-07  0.505E-03    9.15       3.9  T
   3    -50.7522640 -0.739204E-08  0.694E-04    9.15      28.3  T
   4    -50.7522640 -0.145748E-08  0.232E-04    9.15      84.7  T
speedup  0.98
cpu  time for SCC    0.00 s
wall time for SCC    0.00 s
speedup  1.00
cpu  time for grad    0.01 s
wall time for grad    0.01 s
 E :    -50.46272269  G :  0.000296    pred/act E change: -0.191D-06 -0.271D-06
Maxdispl :   0.0058   ||displ|| :   0.0134   Lambda : -0.442D-06
Largest |displ|/coords:  0.0058 (  37)  0.0051 (  10)  0.0037 (  38)
................................................................................
.............................. CYCLE   68 ......................................
................................................................................
   1    -50.7522531 -0.507523E+02  0.105E-02    9.15       0.0  T
   2    -50.7522531 -0.253793E-07  0.792E-03    9.15       2.5  T
   3    -50.7522532 -0.148117E-07  0.102E-03    9.15      19.2  T
   4    -50.7522532 -0.439522E-08  0.375E-04    9.15      52.4  T
   5    -50.7522532 -0.145960E-09  0.744E-05    9.15     263.6  T
speedup  1.02
cpu  time for SCC    0.00 s
wall time for SCC    0.00 s
speedup  1.01
cpu  time for grad    0.01 s
wall time for grad    0.01 s
 E :    -50.46272300  G :  0.000320    pred/act E change: -0.172D-06 -0.312D-06
Maxdispl :   0.0050   ||displ|| :   0.0117   Lambda : -0.337D-06
Largest |displ|/coords:  0.0050 (  37)  0.0037 (   8)  0.0034 (   6)
................................................................................
.............................. CYCLE   69 ......................................
................................................................................
   1    -50.7522605 -0.507523E+02  0.967E-03    9.15       0.0  T
   2    -50.7522605 -0.209286E-07  0.728E-03    9.15       2.7  T
   3    -50.7522605 -0.114573E-07  0.874E-04    9.15      22.4  T
   4    -50.7522605 -0.388809E-08  0.335E-04    9.15      58.5  T
speedup  1.00
cpu  time for SCC    0.00 s
wall time for SCC    0.00 s
speedup  0.98
cpu  time for grad    0.01 s
wall time for grad    0.01 s
 E :    -50.46272325  G :  0.000376    pred/act E change: -0.221D-06 -0.246D-06
Maxdispl :   0.0053   ||displ|| :   0.0110   Lambda : -0.360D-06
Largest |displ|/coords:  0.0053 (  37)  0.0036 (  26)  0.0031 (  38)
................................................................................
.............................. CYCLE   70 ......................................
................................................................................
   1    -50.7522361 -0.507522E+02  0.975E-03    9.15       0.0  T
   2    -50.7522361 -0.266749E-07  0.733E-03    9.15       2.7  T
   3    -50.7522361 -0.982608E-08  0.105E-03    9.15      18.6  T
   4    -50.7522361 -0.533406E-08  0.406E-04    9.15      48.4  T
   5    -50.7522361 -0.175646E-09  0.655E-05    9.15     299.5  T
speedup  1.02
cpu  time for SCC    0.00 s
wall time for SCC    0.00 s
speedup  1.01
cpu  time for grad    0.01 s
wall time for grad    0.01 s
 E :    -50.46272353  G :  0.000337    pred/act E change: -0.169D-06 -0.279D-06
Maxdispl :   0.0071   ||displ|| :   0.0172   Lambda : -0.469D-06
Largest |displ|/coords:  0.0071 (   2)  0.0069 (  37)  0.0048 (  26)
................................................................................
.............................. CYCLE   71 ......................................
................................................................................
   1    -50.7522339 -0.507522E+02  0.156E-02    9.15       0.0  T
   2    -50.7522339 -0.563464E-07  0.117E-02    9.15       1.7  T
   3    -50.7522340 -0.236884E-07  0.156E-03    9.15      12.5  T
   4    -50.7522340 -0.111207E-07  0.578E-04    9.15      33.9  T
   5    -50.7522340 -0.318437E-09  0.996E-05    9.15     197.0  T
speedup  1.00
cpu  time for SCC    0.00 s
wall time for SCC    0.00 s
speedup  0.94
cpu  time for grad    0.01 s
wall time for grad    0.01 s
 E :    -50.46272383  G :  0.000292    pred/act E change: -0.180D-06 -0.299D-06
Maxdispl :   0.0035   ||displ|| :   0.0073   Lambda : -0.217D-06
Largest |displ|/coords:  0.0035 (   2)  0.0024 (  37)  0.0021 (  11)
................................................................................
.............................. CYCLE   72 ......................................
................................................................................
   1    -50.7522334 -0.507522E+02  0.662E-03    9.15       0.0  T
   2    -50.7522334 -0.109329E-07  0.495E-03    9.15       4.0  T
   3    -50.7522334 -0.438833E-08  0.806E-04    9.15      24.3  T
   4    -50.7522334 -0.200885E-08  0.258E-04    9.15      76.1  T
speedup  0.98
cpu  time for SCC    0.00 s
wall time for SCC    0.00 s
speedup  0.99
cpu  time for grad    0.01 s
wall time for grad    0.01 s
 E :    -50.46272399  G :  0.000255    pred/act E change: -0.235D-06 -0.167D-06
Maxdispl :   0.0037   ||displ|| :   0.0080   Lambda : -0.237D-06
Largest |displ|/coords:  0.0037 (   2)  0.0024 (  11)  0.0020 (   3)
................................................................................
.............................. CYCLE   73 ......................................
................................................................................
   1    -50.7522459 -0.507522E+02  0.714E-03    9.15       0.0  T
   2    -50.7522459 -0.103847E-07  0.533E-03    9.15       3.7  T
   3    -50.7522459 -0.572463E-08  0.851E-04    9.15      23.1  T
   4    -50.7522459 -0.167503E-08  0.269E-04    9.15      72.8  T
speedup  0.98
cpu  time for SCC    0.00 s
wall time for SCC    0.00 s
speedup  1.00
cpu  time for grad    0.01 s
wall time for grad    0.01 s
 E :    -50.46272416  G :  0.000244    pred/act E change: -0.109D-06 -0.165D-06
Maxdispl :   0.0019   ||displ|| :   0.0050   Lambda : -0.913D-07
Largest |displ|/coords:  0.0019 (  37)  0.0015 (   2)  0.0014 (  38)
................................................................................
.............................. CYCLE   74 ......................................
................................................................................
   1    -50.7522499 -0.507522E+02  0.483E-03    9.15       0.0  T
   2    -50.7522499 -0.459175E-08  0.360E-03    9.15       5.4  T
   3    -50.7522499 -0.258463E-08  0.581E-04    9.15      33.8  T
   4    -50.7522499 -0.711459E-09  0.194E-04    9.15     101.1  T
speedup  0.98
cpu  time for SCC    0.00 s
wall time for SCC    0.00 s
speedup  1.00
cpu  time for grad    0.01 s
wall time for grad    0.01 s
 E :    -50.46272423  G :  0.000205    pred/act E change: -0.118D-06 -0.705D-07
Maxdispl :   0.0019   ||displ|| :   0.0054   Lambda : -0.850D-07
Largest |displ|/coords:  0.0019 (   9)  0.0017 (  10)  0.0017 (  11)
................................................................................
.............................. CYCLE   75 ......................................
................................................................................
   1    -50.7522622 -0.507523E+02  0.506E-03    9.15       0.0  T
   2    -50.7522622 -0.437515E-08  0.381E-03    9.15       5.2  T
   3    -50.7522622 -0.346486E-08  0.511E-04    9.15      38.4  T
   4    -50.7522622 -0.554486E-09  0.190E-04    9.15     103.3  T
speedup  1.25
cpu  time for SCC    0.00 s
wall time for SCC    0.00 s
speedup  1.00
cpu  time for grad    0.01 s
wall time for grad    0.01 s
 E :    -50.46272429  G :  0.000118    pred/act E change: -0.457D-07 -0.588D-07
Maxdispl :   0.0018   ||displ|| :   0.0035   Lambda : -0.402D-07
Largest |displ|/coords:  0.0018 (  37)  0.0012 (  26)  0.0012 (  38)

   *** GEOMETRY OPTIMIZATION CONVERGED AFTER 75 ITERATIONS ***

------------------------------------------------------------------------
 total energy gain (kcal):     -0.0076
------------------------------------------------------------------------
================
 final structure:
================
$coord
        2.61710198837819       -2.06966761310937        2.89784218630114      S 
        5.13020718411359       -1.71659326996489        1.91374515154087      O 
        1.25728156128316        0.33638072032615        3.27619866064365      O 
        1.04687813203229       -3.83338877636051        1.53759129549616      O 
        2.99263707738578       -3.18599920708253        5.67096043181136      O 
        4.72287171393468       -2.79322752433320        5.96278720830353      H 
       -0.75651488546800       -0.41595631810399       -4.38717981022117      O 
       -0.41023588887794       -0.61974167757924       -6.15271656824447      H 
       -2.93158723356849        3.54318472450475       -2.10653683521249      O 
       -3.69480842050911        4.66789352958103       -3.30129217485323      H 
       -2.16542645889951        2.15161483992473       -3.08102397470348      H 
        1.88717413789017        4.44181023584945        0.25164415459369      O 
        1.83290027679228        3.20547734798389        1.61226518114747      H 
        0.19115232846404        4.52282449599701       -0.41995550859558      H 
       -3.11302516422811       -3.70281106160624       -1.15388065648354      O 
       -2.43023625278950       -2.81943711598836       -2.61820064716849      H 
       -1.60845428297503       -4.27143486834788       -0.23540858639840      H 
       -3.54917866151376       -1.48372411024353        0.66824876566445      H 
        3.59138634398759        0.40755731176163       -2.37891721664999      O 
        4.30318237173598       -0.57202875542347       -0.98867931676485      H 
        0.95258700172307       -0.26154707289323       -3.55642791476507      H 
        3.35078988990936        2.10318182381968       -1.67481389569555      H 
       -3.40723301102929        0.19848643569294        1.81930971443656      N 
       -3.61516062324181        1.74213417684584        0.64973513136097      H 
       -1.51092898334884        0.21386776787842        2.54770817529278      H 
       -4.68336017897535        0.21114397976799        3.24699704916433      H 
$end
 
 Bond Distances (Angstroems)
 ---------------------------
S1-O2=1.4404         S1-O3=1.4761         S1-O4=1.4421         S1-O5=1.5943         O2-S1=1.4404         O3-S1=1.4761         
O4-S1=1.4421         O5-S1=1.5943         O5-H6=0.9515         H6-O5=0.9515         O7-H8=0.9582         O7-H21=1.0089        
H8-O7=0.9582         O9-H10=0.9576        O9-H11=0.9862        H10-O9=0.9576        H11-O9=0.9862        O12-H13=0.9733       
O12-H14=0.9663       H13-O12=0.9733       H14-O12=0.9663       O15-H16=0.9744       O15-H17=0.9801       H16-O15=0.9744       
H17-O15=0.9801       H18-N23=1.0812       O19-H20=0.9756       O19-H22=0.9799       H20-O19=0.9756       H21-O7=1.0089        
H22-O19=0.9799       N23-H18=1.0812       N23-H24=1.0307       N23-H25=1.0750       N23-H26=1.0133       H24-N23=1.0307       
H25-N23=1.0750       H26-N23=1.0133       
 N  H  Rav=1.0501 sigma=0.0288  Rmin=1.0133  Rmax=1.0812     4
 O  H  Rav=0.9738 sigma=0.0152  Rmin=0.9515  Rmax=1.0089    11
 S  O  Rav=1.4882 sigma=0.0629  Rmin=1.4404  Rmax=1.5943     4
 
 selected bond angles (degree)
 --------------------
O3-S1-O2=112.78                O4-S1-O2=115.82                O4-S1-O3=110.18                O5-S1-O2=105.41                
O5-S1-O3=104.80                O5-S1-O4=106.94                H6-O5-S1=100.86                H21-O7-H8=105.22               
H11-O9-H10=106.99              
 
 selected dihedral angles (degree)
 ---------------------------------
H6-O5-S1-O2= 16.42            H6-O5-S1-O3=257.19            H6-O5-S1-O4=140.21            
 
 CMA Distance (Angstroems)
 ---------------------------
R(CMA):  3.2999

========================================================================
 FINAL SINGLEPOINT CALCULATION ON OPTIMIZED GEOMETRY
========================================================================

 Ncao       : 65
 Nao        : 64
 Nshell     : 38
 Nel        : 80
 T(el)      :   300.0
 intcut     :    25.0
 scfconv/Eh :  0.100E-05
   qconv/e  :  0.100E-03
 intneglect :  0.100E-07
 broydamp   :      0.250
 iter      E             dE          RMSdq      gap      omega  full diag
   1    -50.7522622 -0.507523E+02  0.763E-05    9.15       0.0  T
   2    -50.7522622 -0.220268E-11  0.494E-05    9.15     397.0  T
   3    -50.7522622 -0.130029E-11  0.599E-06    9.15    3273.7  T
speedup  1.00
cpu  time for SCC    0.00 s
wall time for SCC    0.00 s

   *** convergence criteria satisfied after 3 iterations ***

          eigenvalues
 #    :          28         29         30         31         32         33         34         35
 occ. :        2.000      2.000      2.000      2.000      2.000      2.000      2.000      2.000
 eps  :       -13.420    -13.132    -12.733    -12.447    -12.330    -12.124    -12.065    -11.977
 #    :          36         37         38         39         40         41         42         43
 occ. :        2.000      2.000      2.000      2.000      2.000      0.000      0.000      0.000
 eps  :       -11.801    -11.721    -11.617    -11.526    -11.466     -2.318     -1.142     -0.261
 #    :          44         45         46         47         48         49         50         51
 occ. :        0.000      0.000      0.000      0.000      0.000      0.000      0.000      0.000
 eps  :         0.670      1.069      1.382      2.032      3.017      3.974      4.713      5.205


   #   Z            q   n(s)   n(p)   n(d)      C6AA      α(0)
   1  16 S      1.657  1.586  1.798  0.959    89.743    15.944
   2   8 O     -0.727  1.773  4.954  0.000    29.455     7.277
   3   8 O     -0.748  1.768  4.981  0.000    30.052     7.350
   4   8 O     -0.722  1.756  4.966  0.000    29.310     7.259
   5   8 O     -0.596  1.752  4.844  0.000    25.059     6.758
   6   1 H      0.345  0.655  0.000  0.000     0.592     1.204
   7   8 O     -0.641  1.755  4.886  0.000    26.194     6.907
   8   1 H      0.287  0.713  0.000  0.000     0.762     1.371
   9   8 O     -0.622  1.743  4.879  0.000    25.715     6.844
  10   1 H      0.286  0.714  0.000  0.000     0.764     1.373
  11   1 H      0.340  0.660  0.000  0.000     0.614     1.231
  12   8 O     -0.623  1.757  4.866  0.000    25.737     6.847
  13   1 H      0.314  0.686  0.000  0.000     0.680     1.296
  14   1 H      0.302  0.698  0.000  0.000     0.714     1.327
  15   8 O     -0.606  1.754  4.852  0.000    25.333     6.793
  16   1 H      0.324  0.676  0.000  0.000     0.652     1.269
  17   1 H      0.338  0.662  0.000  0.000     0.617     1.234
  18   1 H      0.301  0.699  0.000  0.000     0.711     1.321
  19   8 O     -0.640  1.752  4.888  0.000    26.152     6.902
  20   1 H      0.314  0.686  0.000  0.000     0.680     1.296
  21   1 H      0.350  0.650  0.000  0.000     0.589     1.206
  22   1 H      0.325  0.675  0.000  0.000     0.650     1.267
  23   7 N     -0.354  1.279  4.075  0.000    29.094     8.011
  24   1 H      0.274  0.726  0.000  0.000     0.796     1.397
  25   1 H      0.297  0.703  0.000  0.000     0.721     1.329
  26   1 H      0.224  0.776  0.000  0.000     0.992     1.560

 Mol. C6AA /au·bohr⁶  :       5447.349348
 Mol. C8AA /au·bohr⁸  :     117962.056929
 Mol. α(0) /au        :        106.572552

 
 Wiberg/Mayer (AO) data. WBOs > 0.1 written file <wbo>
 largest (>0.05) Wiberg bond orders for each atom
           total WBO             WBO to atom ...
     1  S   4.875    O    4 1.371    O    2 1.359    O    3 1.223    O    5 0.881
     2  O   1.740    S    1 1.359    O    4 0.113    O    3 0.103    O    5 0.079    H   20 0.052
     3  O   1.748    S    1 1.223    H   25 0.134    O    4 0.111    O    2 0.103    O    5 0.067    N   23 0.053
     4  O   1.731    S    1 1.371    O    2 0.113    O    3 0.111    O    5 0.067
     5  O   1.964    S    1 0.881    H    6 0.864    O    2 0.079    O    4 0.067    O    3 0.067
     6  H   0.881    O    5 0.864
     7  O   1.877    H    8 0.910    H   21 0.764    H   11 0.066
     8  H   0.918    O    7 0.910
     9  O   1.866    H   10 0.909    H   11 0.816
    10  H   0.918    O    9 0.909
    11  H   0.885    O    9 0.816    O    7 0.066
    12  O   1.861    H   14 0.882    H   13 0.859    H   22 0.054
    13  H   0.901    O   12 0.859
    14  H   0.909    O   12 0.882
    15  O   1.961    H   16 0.852    H   17 0.834    H   18 0.152    N   23 0.072
    16  H   0.895    O   15 0.852
    17  H   0.886    O   15 0.834
    18  H   0.910    N   23 0.752    O   15 0.152
    19  O   1.893    H   20 0.840    H   22 0.837    H   21 0.111
    20  H   0.901    O   19 0.840    O    2 0.052
    21  H   0.878    O    7 0.764    O   19 0.111
    22  H   0.894    O   19 0.837    O   12 0.054
    23  N   3.513    H   26 0.947    H   24 0.874    H   25 0.771    H   18 0.752    O   15 0.072    O    3 0.053
    24  H   0.925    N   23 0.874
    25  H   0.912    N   23 0.771    O    3 0.134
    26  H   0.950    N   23 0.947
 MOs/occ written to file <molden.input>
 
molecular dipole:
                 x           y           z       tot (Debye)
 q only:       -2.705       0.939      -0.473
   full:       -2.223       0.872      -0.297       6.118
molecular quadrupole (traceless):
                xx          xy          yy          xz          yz          zz
 q only:        0.684      -6.490     -10.042      -1.023      -0.774       9.358
  q+dip:       -0.676     -11.339     -13.094       2.624      -2.781      13.770
   full:       -0.729     -11.661     -13.512       3.073      -3.291      14.241

SCC energy    :     -50.7522622
rep           :       0.2891748
ES            :       0.2676770
AES           :      -0.0737088
AXC           :      -0.0081673
disp          :      -0.0194308
XB            :       0.0000000
fix           :       0.0000000
total E       :     -50.4627243
atomizationE  :       4.9930284     3133.17
(atE without considering molecular charge,
 total energy contains solvation terms)
H-L gap (eV)  :          9.1479
optimized geometry written to: xtbopt.xyz


------------------------------------------------------------------------
 * finished run on 2019/09/16 at 12:20:52.204     
------------------------------------------------------------------------
 total:
 * wall-time:     0 d,  0 h,  0 min,  4.090 sec
 *  cpu-time:     0 d,  0 h,  0 min,  2.838 sec
 * ratio c/w:     0.694 speedup
 SCF:
 * wall-time:     0 d,  0 h,  0 min,  0.508 sec
 *  cpu-time:     0 d,  0 h,  0 min,  0.499 sec
 * ratio c/w:     0.983 speedup
 ANC optimizer:
 * wall-time:     0 d,  0 h,  0 min,  3.352 sec
 *  cpu-time:     0 d,  0 h,  0 min,  2.287 sec
 * ratio c/w:     0.682 speedup

