      -----------------------------------------------------------      
     |                   =====================                   |     
     |                           x T B                           |     
     |                   =====================                   |     
     |                         S. Grimme                         |     
     |          Mulliken Center for Theoretical Chemistry        |     
     |                    University of Bonn                     |     
     |                 Version 6.0.1 (SAW181210)                 |     
      -----------------------------------------------------------      

   This program is distributed in the hope that it will be useful,
   but WITHOUT ANY WARRANTY; without even the implied warranty of
   MERCHANTABILITY or FITNESS FOR A PARTICULAR PURPOSE.
   
   FOR NON-COMMERCIAL, ACADEMIA USE ONLY.
   
   Cite this work as:
   S. Grimme, C. Bannwarth, P. Shushkov, J. Comput. Theory Chem., 2017,
   13, 1989-2009.
   C. Bannwarth, S. Ehlert and S. Grimme., ChemRxiv, 2018, preprint.
   http://doi.org/10.26434/chemrxiv.7246238.v1
   
   for sTDA-xTB:
   S. Grimme and C. Bannwarth, J. Chem. Phys., 2016, 145, 054103.
   
   in the mass-spec context:
   V. Asgeirsson, C. Bauer and S. Grimme, Chem. Sci., 2017, 8, 4879.
   
   if GBSA is used:
   P. Shushkov, F. März and S. Grimme, unpublished.
   
   for ANC optimizer:
   S. Grimme, unpublished.
   Rational Function algorithm used in ANCopt:
   F. Eckert, P. Pulay, H.-J. Werner, J. Comput. Chem., 1997, 18, 1473.
   
   with help from (in alphabetical order)
   C. Bannwarth, F. Bohle, G. Brandenburg, E. Caldeweyher, M. Checinski,
   S. Dohm, S. Ehlert, S. Ehrlich, F. März, H. Neugebauer, J. Pisarek,
   P. Pracht, P. Shushkov, and S. Spicher.
   
 * started run on 2019/09/16 at 11:18:45.794     
========================================================================
 # omp threads = 1
========================================================================
number of atoms            : 26
number of electrons        : 80
charge                     : 0
spin                       : .0
first test random number   : .1279

########################################################################
# WARNING! Please study the warnings concerning your input carefully
#  - XTBPATH is not set, using XTBHOME instead
#  - the use of '-opt' is discouraged, please use '--opt' next time
#  - the use of '-chrg' is discouraged, please use '--chrg' next time
#  - the use of '-uhf' is discouraged, please use '--uhf' next time
########################################################################

           ------------------------------------------------- 
          |                 G F N 2 - x T B                 |
          | Geometry, Frequencies, Noncovalent interactions |
          |            JCTC 2018 parametrisation            |
           ------------------------------------------------- 
      method parameters     
 k(s)        :  1.8500
 k(p)        :  2.2300
 k(d)        :  2.2300
 k(f)        :  2.0000
 kEN (H0ij)  : -2.0000
 D4 a1       :  0.5200
 D4 a2       :  5.0000
 D4 s6       :  1.0000
 D4 s8       :  2.7000
 D4 s9       :  5.0000
 alphaj      :  2.0000


            Z     q(EN)     CN     RAES       Cart. coordinates
     1  S   6.0    0.64    4.26    4.16     1.72551    -1.49122    -5.19538
     2  O   6.0   -0.31    1.20    1.80     2.84625     1.08981    -5.09380
     3  O   6.0   -0.31    1.20    1.80     2.57589    -2.97248    -2.95689
     4  O   6.0   -0.31    1.22    1.80    -1.08337    -1.29605    -5.17974
     5  O   6.0   -0.25    2.08    1.84     2.55178    -2.76844    -7.51885
     6  H   1.0    0.15    1.21    1.47     4.36149    -2.89461    -7.52973
     7  O   6.0   -0.39    1.67    1.81    -3.03532     0.32868     1.88744
     8  H   1.0    0.17    0.95    1.42    -4.55591    -0.64408     2.36208
     9  O   6.0   -0.29    2.04    1.83     0.43495     5.09494    -3.23264
    10  H   1.0    0.15    0.97    1.43     1.33115     6.66015    -3.48074
    11  H   1.0    0.18    1.05    1.44     1.49425     3.81139    -3.97088
    12  O   6.0   -0.30    2.04    1.83    -1.71881     0.86768     6.33890
    13  H   1.0    0.17    1.14    1.45    -2.26343     0.69722     4.61004
    14  H   1.0    0.15    0.97    1.43    -2.64866     2.28699     6.99888
    15  O   6.0   -0.29    2.00    1.83     1.34081    -3.10786     6.70527
    16  H   1.0    0.16    1.04    1.43     0.21130    -1.68452     6.81889
    17  H   1.0    0.15    0.97    1.43     1.21008    -3.95563     8.31114
    18  O   6.0   -0.22    2.92    2.59    -3.29133     2.00561    -2.30887
    19  H   1.0    0.16    1.06    1.44    -2.89304     0.63015    -3.50859
    20  H   1.0    0.16    1.22    1.47    -3.34530     1.40035    -0.54230
    21  H   1.0    0.14    1.05    1.44    -2.14296     3.46550    -2.51256
    22  N   5.0   -0.14    3.96    2.76     1.37894    -1.50471     1.79966
    23  H   1.0    0.12    1.06    1.44     1.77020    -2.48761     0.16710
    24  H   1.0    0.09    0.99    1.43     2.59805     0.00311     1.95674
    25  H   1.0    0.12    1.16    1.45    -0.45337    -0.85379     1.74134
    26  H   1.0    0.10    1.04    1.43     1.60087    -2.68055     3.33348

  Z AO/shell   Hii/eV     exponent
  1     Wed Apr 25 08:07:45 CEST 2018   EN: 2.200 GM2: 0.406  GM3: 0.0800  RAES: 1.40
     1s    -10.707211    1.230000
  7     Wed Apr 25 08:07:45 CEST 2018   EN: 3.040 GM2: 0.461  GM3:-0.0640  RAES: 1.90
     2s    -16.686243    2.339881
     2p    -12.523956    2.014332
  8     Wed Apr 25 08:07:45 CEST 2018   EN: 3.440 GM2: 0.452  GM3:-0.0517  RAES: 1.80
     2s    -20.229985    2.439742
     2p    -15.503117    2.137023
 16     Tue Apr 24 11:44:34 CEST 2018   EN: 2.580 GM2: 0.340  GM3:-0.0502  RAES: 3.10
     3s    -20.029654    1.981333
     3p    -11.377694    2.025643
     3d     -0.420282    1.702555
 no old-style atom pair restraining (fixing) potential

molecular fragmentation (1/2 indicates fragments):
11111122222222222222222222
# atoms in fragment 1/2:     6    20
 fragment masses (1/2) :       97.07      108.11
CMA distance (Bohr)    :   7.800
constraining FC (au)   :  0.0500
           ------------------------------------------------- 
          |        Self-Consistent Charge Iterations        |
           ------------------------------------------------- 

 Ncao       : 65
 Nao        : 64
 Nshell     : 38
 Nel        : 80
 T(el)      :   300.0
 intcut     :    25.0
 scfconv/Eh :  0.100E-05
   qconv/e  :  0.100E-03
 intneglect :  0.100E-07
 broydamp   :      0.250
 iter      E             dE          RMSdq      gap      omega  full diag
   1    -50.5933160 -0.505933E+02  0.704E+00   10.46       0.0  T
   2    -50.6439623 -0.506462E-01  0.507E+00    9.80       1.0  T
   3    -50.6830377 -0.390755E-01  0.132E+00    7.93       1.0  T
   4    -50.6879581 -0.492037E-02  0.574E-01    8.35       1.0  T
   5    -50.6886498 -0.691721E-03  0.296E-01    8.38       1.0  T
   6    -50.6890355 -0.385685E-03  0.131E-01    8.45       1.0  T
   7    -50.6891271 -0.915619E-04  0.461E-02    8.43       1.0  T
   8    -50.6891360 -0.895374E-05  0.306E-02    8.42       1.0  T
   9    -50.6891421 -0.610442E-05  0.800E-03    8.44       2.5  T
  10    -50.6891425 -0.345433E-06  0.222E-03    8.44       8.8  T
  11    -50.6891425 -0.166853E-07  0.106E-03    8.44      18.5  T
  12    -50.6891425 -0.497748E-08  0.369E-04    8.44      53.2  T
  13    -50.6891425 -0.640156E-09  0.128E-04    8.44     152.8  T
speedup  1.00
cpu  time for SCC    0.02 s
wall time for SCC    0.02 s

   *** convergence criteria satisfied after 13 iterations ***

          eigenvalues
 #    :          28         29         30         31         32         33         34         35
 occ. :        2.000      2.000      2.000      2.000      2.000      2.000      2.000      2.000
 eps  :       -12.804    -12.702    -12.035    -11.921    -11.760    -11.505    -11.438    -11.416
 #    :          36         37         38         39         40         41         42         43
 occ. :        2.000      2.000      2.000      2.000      2.000      0.000      0.000      0.000
 eps  :       -10.955    -10.909    -10.704    -10.376    -10.151     -1.710     -0.415      0.005
 #    :          44         45         46         47         48         49         50         51
 occ. :        0.000      0.000      0.000      0.000      0.000      0.000      0.000      0.000
 eps  :         0.476      1.086      1.631      2.275      2.747      3.884      3.996      4.644


   #   Z            q   n(s)   n(p)   n(d)      C6AA      α(0)
   1  16 S      1.575  1.585  1.854  0.986    91.656    16.113
   2   8 O     -0.760  1.777  4.984  0.000    30.402     7.393
   3   8 O     -0.755  1.771  4.984  0.000    30.258     7.375
   4   8 O     -0.728  1.763  4.965  0.000    29.496     7.282
   5   8 O     -0.539  1.717  4.821  0.000    23.733     6.577
   6   1 H      0.358  0.642  0.000  0.000     0.561     1.172
   7   8 O     -0.850  1.833  5.017  0.000    33.090     7.714
   8   1 H      0.214  0.786  0.000  0.000     1.052     1.611
   9   8 O     -0.620  1.728  4.891  0.000    25.657     6.836
  10   1 H      0.288  0.712  0.000  0.000     0.759     1.368
  11   1 H      0.336  0.664  0.000  0.000     0.621     1.238
  12   8 O     -0.662  1.752  4.910  0.000    26.710     6.975
  13   1 H      0.334  0.666  0.000  0.000     0.623     1.239
  14   1 H      0.266  0.734  0.000  0.000     0.831     1.432
  15   8 O     -0.617  1.737  4.880  0.000    25.594     6.828
  16   1 H      0.336  0.664  0.000  0.000     0.623     1.240
  17   1 H      0.276  0.724  0.000  0.000     0.797     1.402
  18   8 O     -0.457  1.658  4.799  0.000    21.937     6.326
  19   1 H      0.399  0.601  0.000  0.000     0.487     1.097
  20   1 H      0.400  0.600  0.000  0.000     0.477     1.081
  21   1 H      0.398  0.602  0.000  0.000     0.488     1.098
  22   7 N     -0.319  1.261  4.058  0.000    28.180     7.884
  23   1 H      0.286  0.714  0.000  0.000     0.757     1.363
  24   1 H      0.242  0.758  0.000  0.000     0.917     1.500
  25   1 H      0.315  0.685  0.000  0.000     0.669     1.281
  26   1 H      0.284  0.716  0.000  0.000     0.763     1.368

 Mol. C6AA /au·bohr⁶  :       5477.378122
 Mol. C8AA /au·bohr⁸  :     118829.195073
 Mol. α(0) /au        :        106.794438

 
 Wiberg/Mayer (AO) data. WBOs > 0.1 written file <wbo>
 largest (>0.05) Wiberg bond orders for each atom
           total WBO             WBO to atom ...
     1  S   4.940    O    4 1.318    O    2 1.296    O    3 1.291    O    5 0.999
     2  O   1.675    S    1 1.296    O    4 0.115    O    3 0.114    O    5 0.073    H   11 0.055
     3  O   1.684    S    1 1.291    O    2 0.114    O    4 0.113    O    5 0.072    H   23 0.064
     4  O   1.718    S    1 1.318    O    2 0.115    O    3 0.113    H   19 0.080    O    5 0.052
     5  O   2.051    S    1 0.999    H    6 0.848    O    2 0.073    O    3 0.072    O    4 0.052
     6  H   0.871    O    5 0.848
     7  O   1.614    H    8 0.947    H   20 0.206    H   25 0.151    H   13 0.119    N   22 0.066    O   18 0.064
     8  H   0.954    O    7 0.947
     9  O   1.849    H   10 0.904    H   11 0.829    H   21 0.066
    10  H   0.917    O    9 0.904
    11  H   0.887    O    9 0.829    O    2 0.055
    12  O   1.797    H   14 0.917    H   13 0.763
    13  H   0.888    O   12 0.763    O    7 0.119
    14  H   0.929    O   12 0.917
    15  O   1.832    H   17 0.913    H   16 0.839
    16  H   0.887    O   15 0.839
    17  H   0.924    O   15 0.913
    18  O   2.283    H   21 0.768    H   19 0.753    H   20 0.627    O    7 0.064
    19  H   0.841    O   18 0.753    O    4 0.080
    20  H   0.840    O   18 0.627    O    7 0.206
    21  H   0.842    O   18 0.768    O    9 0.066
    22  N   3.541    H   24 0.938    H   26 0.876    H   23 0.847    H   25 0.745    O    7 0.066
    23  H   0.918    N   22 0.847    O    3 0.064
    24  H   0.942    N   22 0.938
    25  H   0.901    N   22 0.745    O    7 0.151
    26  H   0.919    N   22 0.876
 MOs/occ written to file <molden.input>
 
molecular dipole:
                 x           y           z       tot (Debye)
 q only:        0.227       0.631       1.157
   full:        0.510       0.473       0.788       2.672
molecular quadrupole (traceless):
                xx          xy          yy          xz          yz          zz
 q only:        2.391      -3.084       3.382      -1.530      -6.142      -5.772
  q+dip:       -0.145      -1.651       0.273     -10.258      -3.547      -0.128
   full:       -0.300      -1.919       0.227     -10.628      -3.300       0.073

SCC energy    :     -50.6891425
rep           :       0.2953477
ES            :       0.3111726
AES           :      -0.0715697
AXC           :      -0.0089041
disp          :      -0.0163262
XB            :       0.0000000
fix           :       0.0000000
total E       :     -50.3936232
atomizationE  :       4.9239274     3089.81
(atE without considering molecular charge,
 total energy contains solvation terms)
H-L gap (eV)  :          8.4418
           ------------------------------------------------- 
          |                 ===============                 |
          |                   A N C O P T                   |
          |                 ===============                 |
          |          Approximate Normal Coordinate          |
          |           Rational Function Optimizer           |
           ------------------------------------------------- 
dumping coords to <xtbopt.coord> and <xtbopt.log>
 optlevel               2
 Maxcycle             520
 Maxmicro              25
 Econv         1.000000000000000E-007
 Gconv         2.000000000000000E-004
 Maxdispl       1.00000000000000     
 Hlow          5.000000000000000E-003
 S6             20.0000000000000     
 Nvar               72

generating ANC from model Hessian ...
 Shifting diagonal of input Hessian by   5.177203463582395E-003
 Lowest  eigenvalues of input Hessian
    0.005000    0.005099   -0.000000   -0.000000   -0.000000   -0.000000
    0.000000    0.000000    0.005398    0.005440    0.005708    0.006169
    0.006412    0.006477    0.006780    0.007161    0.007551    0.008297
 Highest eigenvalues
    1.454168    1.561976    1.591045    3.140307    3.215318    3.316556
 
cpu  time for ANC gen    0.01 s
wall time for ANC gen    0.01 s
................................................................................
.............................. CYCLE    1 ......................................
................................................................................
   1    -50.6891425 -0.506891E+02  0.747E-05    8.44       0.0  T
   2    -50.6891425 -0.110418E-10  0.577E-05    8.44     339.9  T
   3    -50.6891425 -0.127329E-10  0.244E-05    8.44     805.0  T
speedup  1.03
cpu  time for SCC    0.00 s
wall time for SCC    0.00 s
speedup  1.02
cpu  time for grad    0.01 s
wall time for grad    0.01 s
 E :    -50.39362317  G :  0.198186    pred/act E change:  0.000D+00  0.374D-07
Maxdispl :   0.1008   ||displ|| :   0.3136   Lambda : -0.278D-01
Largest |displ|/coords:  0.1008 (  21)  0.0988 (  26)  0.0970 (  33)
................................................................................
.............................. CYCLE    2 ......................................
................................................................................
   1    -50.6962807 -0.506963E+02  0.289E-01    8.50       0.0  T
   2    -50.6964597 -0.179046E-03  0.218E-01    8.55       1.0  T
   3    -50.6965346 -0.749131E-04  0.802E-02    8.65       1.0  T
   4    -50.6965479 -0.133008E-04  0.179E-02    8.64       1.1  T
   5    -50.6965487 -0.810408E-06  0.498E-03    8.63       3.9  T
   6    -50.6965488 -0.346538E-07  0.270E-03    8.63       7.3  T
speedup  0.93
cpu  time for SCC    0.00 s
wall time for SCC    0.01 s
speedup  1.04
cpu  time for grad    0.01 s
wall time for grad    0.01 s
 E :    -50.41509205  G :  0.120752    pred/act E change:  0.000D+00 -0.215D-01
Maxdispl :   0.1140   ||displ|| :   0.3182   Lambda : -0.129D-01
Largest |displ|/coords:  0.1140 (  26)  0.1041 (  31)  0.1007 (  21)
................................................................................
.............................. CYCLE    3 ......................................
................................................................................
   1    -50.7000467 -0.507000E+02  0.275E-01    8.66       0.0  T
   2    -50.7002476 -0.200837E-03  0.204E-01    8.73       1.0  T
   3    -50.7003251 -0.775448E-04  0.786E-02    8.83       1.0  T
   4    -50.7003373 -0.122015E-04  0.162E-02    8.82       1.2  T
   5    -50.7003381 -0.728180E-06  0.453E-03    8.81       4.3  T
   6    -50.7003381 -0.287192E-07  0.249E-03    8.81       7.9  T
speedup  0.93
cpu  time for SCC    0.00 s
wall time for SCC    0.01 s
speedup  1.03
cpu  time for grad    0.01 s
wall time for grad    0.01 s
 E :    -50.42550272  G :  0.078584    pred/act E change: -0.152D-01 -0.104D-01
Maxdispl :   0.1210   ||displ|| :   0.3120   Lambda : -0.699D-02
Largest |displ|/coords:  0.1210 (   8)  0.0998 (  26)  0.0963 (   9)
................................................................................
.............................. CYCLE    4 ......................................
................................................................................
   1    -50.7020465 -0.507020E+02  0.268E-01    8.81       0.0  T
   2    -50.7022122 -0.165649E-03  0.199E-01    8.87       1.0  T
   3    -50.7022736 -0.614529E-04  0.690E-02    8.98       1.0  T
   4    -50.7022869 -0.132514E-04  0.146E-02    8.96       1.3  T
   5    -50.7022875 -0.558435E-06  0.431E-03    8.95       4.6  T
   6    -50.7022875 -0.220698E-07  0.226E-03    8.95       8.7  T
speedup  0.93
cpu  time for SCC    0.01 s
wall time for SCC    0.01 s
speedup  1.03
cpu  time for grad    0.01 s
wall time for grad    0.01 s
 E :    -50.43096288  G :  0.053161    pred/act E change: -0.712D-02 -0.546D-02
Maxdispl :   0.1448   ||displ|| :   0.3341   Lambda : -0.453D-02
Largest |displ|/coords:  0.1448 (  11)  0.1307 (   8)  0.1208 (   6)
................................................................................
.............................. CYCLE    5 ......................................
................................................................................
   1    -50.7031069 -0.507031E+02  0.386E-01    8.96       0.0  T
   2    -50.7032420 -0.135026E-03  0.291E-01    9.03       1.0  T
   3    -50.7032902 -0.482514E-04  0.638E-02    9.17       1.0  T
   4    -50.7033134 -0.231752E-04  0.143E-02    9.15       1.4  T
   5    -50.7033141 -0.753854E-06  0.478E-03    9.14       4.1  T
   6    -50.7033142 -0.148232E-07  0.236E-03    9.14       8.3  T
speedup  0.94
cpu  time for SCC    0.00 s
wall time for SCC    0.01 s
speedup  0.96
cpu  time for grad    0.01 s
wall time for grad    0.01 s
 E :    -50.43358442  G :  0.043836    pred/act E change: -0.384D-02 -0.262D-02
Maxdispl :   0.2058   ||displ|| :   0.4921   Lambda : -0.945D-02
Largest |displ|/coords:  0.2058 (   7)  0.1408 (  26)  0.1372 (  10)
................................................................................
.............................. CYCLE    6 ......................................
................................................................................
   1    -50.7198424 -0.507198E+02  0.537E-01    9.14       0.0  T
   2    -50.7207006 -0.858148E-03  0.395E-01    9.18       1.0  T
   3    -50.7210587 -0.358137E-03  0.146E-01    9.23       1.0  T
   4    -50.7211122 -0.535333E-04  0.336E-02    9.22       1.0  T
   5    -50.7211150 -0.280904E-05  0.111E-02    9.22       1.8  T
   6    -50.7211152 -0.122355E-06  0.564E-03    9.22       3.5  T
   7    -50.7211152 -0.509133E-07  0.186E-03    9.22      10.5  T
speedup  0.97
cpu  time for SCC    0.01 s
wall time for SCC    0.01 s
speedup  0.95
cpu  time for grad    0.01 s
wall time for grad    0.01 s
 E :    -50.43592689  G :  0.067276    pred/act E change: -0.252D-02 -0.234D-02
Maxdispl :   0.3408   ||displ|| :   0.5096   Lambda : -0.111D-01
Largest |displ|/coords:  0.3408 (   9)  0.1424 (  10)  0.1387 (  11)
................................................................................
.............................. CYCLE    7 ......................................
................................................................................
   1    -50.6933424 -0.506933E+02  0.818E-01    9.20       0.0  T
   2    -50.6937703 -0.427875E-03  0.612E-01    9.20       1.0  T
   3    -50.6939922 -0.221896E-03  0.117E-01    9.18       1.0  T
   4    -50.6940560 -0.638135E-04  0.224E-02    9.19       1.0  T
   5    -50.6940567 -0.672584E-06  0.106E-02    9.19       1.8  T
   6    -50.6940570 -0.285119E-06  0.472E-03    9.19       4.2  T
   7    -50.6940570 -0.513857E-07  0.106E-03    9.19      18.5  T
speedup  0.97
cpu  time for SCC    0.01 s
wall time for SCC    0.01 s
speedup  0.96
cpu  time for grad    0.01 s
wall time for grad    0.01 s
 E :    -50.43315145  G :  0.093554    pred/act E change: -0.587D-02  0.278D-02
Maxdispl :   0.2967   ||displ|| :   0.5257   Lambda : -0.268D-01
Largest |displ|/coords:  0.2967 (   9)  0.2010 (   7)  0.1946 (  10)
................................................................................
.............................. CYCLE    8 ......................................
................................................................................
   1    -50.7287307 -0.507287E+02  0.858E-01    9.13       0.0  T
   2    -50.7293028 -0.572116E-03  0.646E-01    9.14       1.0  T
   3    -50.7296525 -0.349681E-03  0.133E-01    9.14       1.0  T
   4    -50.7297332 -0.806444E-04  0.234E-02    9.14       1.0  T
   5    -50.7297341 -0.892172E-06  0.143E-02    9.14       1.4  T
   6    -50.7297343 -0.201851E-06  0.442E-03    9.14       4.4  T
   7    -50.7297343 -0.502856E-07  0.958E-04    9.14      20.5  T
speedup  0.92
cpu  time for SCC    0.01 s
wall time for SCC    0.01 s
speedup  0.95
cpu  time for grad    0.01 s
wall time for grad    0.01 s
 E :    -50.43786410  G :  0.074837    pred/act E change: -0.701D-02 -0.471D-02
Maxdispl :   0.0920   ||displ|| :   0.2746   Lambda : -0.736D-02
Largest |displ|/coords:  0.0920 (  13)  0.0800 (  15)  0.0701 (  11)
................................................................................
.............................. CYCLE    9 ......................................
................................................................................
   1    -50.7182300 -0.507182E+02  0.333E-01    9.18       0.0  T
   2    -50.7183129 -0.829645E-04  0.251E-01    9.17       1.0  T
   3    -50.7183639 -0.509623E-04  0.513E-02    9.15       1.0  T
   4    -50.7183753 -0.114333E-04  0.154E-02    9.15       1.3  T
   5    -50.7183758 -0.421489E-06  0.453E-03    9.15       4.3  T
   6    -50.7183758 -0.229167E-07  0.265E-03    9.15       7.4  T
speedup  1.11
cpu  time for SCC    0.01 s
wall time for SCC    0.01 s
speedup  1.02
cpu  time for grad    0.01 s
wall time for grad    0.01 s
 E :    -50.44111542  G :  0.044853    pred/act E change: -0.171D-01 -0.325D-02
Maxdispl :   0.1336   ||displ|| :   0.3417   Lambda : -0.505D-02
Largest |displ|/coords:  0.1336 (   8)  0.1114 (  16)  0.1047 (   9)
................................................................................
.............................. CYCLE   10 ......................................
................................................................................
   1    -50.7203836 -0.507204E+02  0.396E-01    9.15       0.0  T
   2    -50.7204791 -0.954337E-04  0.297E-01    9.15       1.0  T
   3    -50.7205407 -0.616068E-04  0.548E-02    9.15       1.0  T
   4    -50.7205539 -0.131933E-04  0.123E-02    9.15       1.6  T
   5    -50.7205541 -0.253934E-06  0.560E-03    9.15       3.5  T
   6    -50.7205542 -0.359786E-07  0.269E-03    9.15       7.3  T
speedup  1.11
cpu  time for SCC    0.01 s
wall time for SCC    0.01 s
speedup  1.01
cpu  time for grad    0.01 s
wall time for grad    0.01 s
 E :    -50.44175965  G :  0.060062    pred/act E change: -0.396D-02 -0.644D-03
Maxdispl :   0.1304   ||displ|| :   0.3659   Lambda : -0.785D-02
Largest |displ|/coords:  0.1304 (  12)  0.1117 (   3)  0.1102 (   7)
................................................................................
.............................. CYCLE   11 ......................................
................................................................................
   1    -50.7271962 -0.507272E+02  0.460E-01    9.11       0.0  T
   2    -50.7274858 -0.289613E-03  0.340E-01    9.11       1.0  T
   3    -50.7276310 -0.145182E-03  0.913E-02    9.12       1.0  T
   4    -50.7276628 -0.318572E-04  0.178E-02    9.12       1.1  T
   5    -50.7276635 -0.654304E-06  0.787E-03    9.12       2.5  T
   6    -50.7276635 -0.570569E-07  0.392E-03    9.12       5.0  T
   7    -50.7276636 -0.225787E-07  0.998E-04    9.12      19.6  T
speedup  0.92
cpu  time for SCC    0.01 s
wall time for SCC    0.01 s
speedup  0.95
cpu  time for grad    0.01 s
wall time for grad    0.01 s
 E :    -50.44315579  G :  0.053584    pred/act E change: -0.282D-02 -0.140D-02
Maxdispl :   0.1092   ||displ|| :   0.2934   Lambda : -0.595D-02
Largest |displ|/coords:  0.1092 (  28)  0.0874 (  12)  0.0851 (  26)
................................................................................
.............................. CYCLE   12 ......................................
................................................................................
   1    -50.7289027 -0.507289E+02  0.324E-01    9.18       0.0  T
   2    -50.7290841 -0.181373E-03  0.239E-01    9.17       1.0  T
   3    -50.7291712 -0.871020E-04  0.726E-02    9.15       1.0  T
   4    -50.7291887 -0.175008E-04  0.196E-02    9.16       1.0  T
   5    -50.7291895 -0.821527E-06  0.615E-03    9.16       3.2  T
   6    -50.7291895 -0.313124E-07  0.306E-03    9.16       6.4  T
   7    -50.7291896 -0.159835E-07  0.107E-03    9.16      18.4  T
speedup  0.97
cpu  time for SCC    0.01 s
wall time for SCC    0.01 s
speedup  1.01
cpu  time for grad    0.01 s
wall time for grad    0.01 s
 E :    -50.44486564  G :  0.037074    pred/act E change: -0.445D-02 -0.171D-02
Maxdispl :   0.1410   ||displ|| :   0.2755   Lambda : -0.246D-02
Largest |displ|/coords:  0.1410 (   8)  0.0949 (   3)  0.0772 (   4)
................................................................................
.............................. CYCLE   13 ......................................
................................................................................
   1    -50.7311069 -0.507311E+02  0.192E-01    9.14       0.0  T
   2    -50.7311883 -0.814376E-04  0.140E-01    9.14       1.0  T
   3    -50.7312286 -0.402741E-04  0.458E-02    9.15       1.0  T
   4    -50.7312350 -0.640869E-05  0.916E-03    9.15       2.1  T
   5    -50.7312352 -0.197554E-06  0.395E-03    9.15       5.0  T
   6    -50.7312352 -0.135874E-07  0.200E-03    9.15       9.8  T
speedup  0.85
cpu  time for SCC    0.01 s
wall time for SCC    0.01 s
speedup  0.91
cpu  time for grad    0.01 s
wall time for grad    0.01 s
 E :    -50.44647198  G :  0.032295    pred/act E change: -0.323D-02 -0.161D-02
Maxdispl :   0.1708   ||displ|| :   0.3312   Lambda : -0.244D-02
Largest |displ|/coords:  0.1708 (   3)  0.1604 (   8)  0.0909 (   5)
................................................................................
.............................. CYCLE   14 ......................................
................................................................................
   1    -50.7351771 -0.507352E+02  0.207E-01    9.18       0.0  T
   2    -50.7352126 -0.354760E-04  0.154E-01    9.17       1.0  T
   3    -50.7352316 -0.189526E-04  0.325E-02    9.16       1.0  T
   4    -50.7352363 -0.472336E-05  0.825E-03    9.16       2.4  T
   5    -50.7352364 -0.111532E-06  0.307E-03    9.16       6.4  T
   6    -50.7352364 -0.814183E-08  0.163E-03    9.16      12.0  T
speedup  0.93
cpu  time for SCC    0.00 s
wall time for SCC    0.01 s
speedup  0.92
cpu  time for grad    0.01 s
wall time for grad    0.01 s
 E :    -50.44784808  G :  0.028827    pred/act E change: -0.132D-02 -0.138D-02
Maxdispl :   0.2448   ||displ|| :   0.3630   Lambda : -0.163D-02
Largest |displ|/coords:  0.2448 (   8)  0.1361 (   3)  0.1041 (   1)
................................................................................
.............................. CYCLE   15 ......................................
................................................................................
   1    -50.7398159 -0.507398E+02  0.144E-01    9.21       0.0  T
   2    -50.7398289 -0.130177E-04  0.109E-01    9.20       1.0  T
   3    -50.7398357 -0.681696E-05  0.206E-02    9.19       1.0  T
   4    -50.7398377 -0.197446E-05  0.832E-03    9.19       2.4  T
   5    -50.7398378 -0.119956E-06  0.217E-03    9.19       9.0  T
   6    -50.7398378 -0.578162E-08  0.115E-03    9.19      17.0  T
speedup  0.93
cpu  time for SCC    0.01 s
wall time for SCC    0.01 s
speedup  0.98
cpu  time for grad    0.01 s
wall time for grad    0.01 s
 E :    -50.44906798  G :  0.019771    pred/act E change: -0.135D-02 -0.122D-02
Maxdispl :   0.3197   ||displ|| :   0.5366   Lambda : -0.198D-02
Largest |displ|/coords:  0.3197 (   8)  0.2452 (   3)  0.1720 (  14)
................................................................................
.............................. CYCLE   16 ......................................
................................................................................
   1    -50.7349877 -0.507350E+02  0.372E-01    9.27       0.0  T
   2    -50.7350389 -0.512384E-04  0.282E-01    9.26       1.0  T
   3    -50.7350689 -0.299272E-04  0.398E-02    9.24       1.0  T
   4    -50.7350770 -0.812946E-05  0.158E-02    9.25       1.2  T
   5    -50.7350775 -0.523550E-06  0.364E-03    9.25       5.4  T
   6    -50.7350775 -0.840687E-08  0.206E-03    9.25       9.5  T
   7    -50.7350775 -0.686143E-08  0.633E-04    9.25      31.0  T
speedup  0.98
cpu  time for SCC    0.01 s
wall time for SCC    0.01 s
speedup  1.05
cpu  time for grad    0.01 s
wall time for grad    0.01 s
 E :    -50.44941248  G :  0.036695    pred/act E change: -0.924D-03 -0.344D-03
Maxdispl :   0.1420   ||displ|| :   0.2833   Lambda : -0.212D-02
Largest |displ|/coords:  0.1420 (   1)  0.1358 (   8)  0.1085 (  15)
................................................................................
.............................. CYCLE   17 ......................................
................................................................................
   1    -50.7446410 -0.507446E+02  0.258E-01    9.25       0.0  T
   2    -50.7446728 -0.317423E-04  0.194E-01    9.25       1.0  T
   3    -50.7446949 -0.221474E-04  0.318E-02    9.25       1.0  T
   4    -50.7446991 -0.422437E-05  0.615E-03    9.25       3.2  T
   5    -50.7446992 -0.394886E-07  0.328E-03    9.25       6.0  T
   6    -50.7446992 -0.735400E-08  0.125E-03    9.25      15.7  T
speedup  0.94
cpu  time for SCC    0.00 s
wall time for SCC    0.01 s
speedup  0.95
cpu  time for grad    0.01 s
wall time for grad    0.01 s
 E :    -50.45013570  G :  0.020080    pred/act E change: -0.128D-02 -0.723D-03
Maxdispl :   0.1531   ||displ|| :   0.2248   Lambda : -0.107D-02
Largest |displ|/coords:  0.1531 (   8)  0.0888 (   1)  0.0625 (   5)
................................................................................
.............................. CYCLE   18 ......................................
................................................................................
   1    -50.7435693 -0.507436E+02  0.143E-01    9.24       0.0  T
   2    -50.7435801 -0.107891E-04  0.107E-01    9.24       1.0  T
   3    -50.7435873 -0.725634E-05  0.175E-02    9.24       1.1  T
   4    -50.7435889 -0.153241E-05  0.516E-03    9.24       3.8  T
   5    -50.7435889 -0.334281E-07  0.204E-03    9.24       9.6  T
speedup  0.89
cpu  time for SCC    0.00 s
wall time for SCC    0.00 s
speedup  0.94
cpu  time for grad    0.01 s
wall time for grad    0.01 s
 E :    -50.45056343  G :  0.017128    pred/act E change: -0.115D-02 -0.428D-03
Maxdispl :   0.1732   ||displ|| :   0.2870   Lambda : -0.912D-03
Largest |displ|/coords:  0.1732 (   3)  0.1250 (   1)  0.1019 (   8)
................................................................................
.............................. CYCLE   19 ......................................
................................................................................
   1    -50.7428973 -0.507429E+02  0.165E-01    9.26       0.0  T
   2    -50.7429059 -0.863614E-05  0.125E-01    9.26       1.0  T
   3    -50.7429124 -0.644773E-05  0.166E-02    9.26       1.2  T
   4    -50.7429136 -0.122775E-05  0.544E-03    9.26       3.6  T
   5    -50.7429137 -0.574775E-07  0.191E-03    9.26      10.3  T
   6    -50.7429137 -0.218702E-08  0.104E-03    9.26      18.9  T
speedup  0.94
cpu  time for SCC    0.00 s
wall time for SCC    0.01 s
speedup  0.94
cpu  time for grad    0.01 s
wall time for grad    0.01 s
 E :    -50.45113773  G :  0.018020    pred/act E change: -0.562D-03 -0.574D-03
Maxdispl :   0.2585   ||displ|| :   0.5039   Lambda : -0.135D-02
Largest |displ|/coords:  0.2585 (   3)  0.2432 (   8)  0.2353 (   1)
................................................................................
.............................. CYCLE   20 ......................................
................................................................................
   1    -50.7382005 -0.507382E+02  0.256E-01    9.27       0.0  T
   2    -50.7382160 -0.155319E-04  0.194E-01    9.26       1.0  T
   3    -50.7382297 -0.137190E-04  0.233E-02    9.26       1.0  T
   4    -50.7382316 -0.184945E-05  0.855E-03    9.26       2.3  T
   5    -50.7382317 -0.107293E-06  0.264E-03    9.26       7.4  T
   6    -50.7382317 -0.430515E-08  0.139E-03    9.26      14.1  T
speedup  0.91
cpu  time for SCC    0.01 s
wall time for SCC    0.01 s
speedup  0.94
cpu  time for grad    0.01 s
wall time for grad    0.01 s
 E :    -50.45191625  G :  0.024612    pred/act E change: -0.494D-03 -0.779D-03
Maxdispl :   0.3509   ||displ|| :   0.5341   Lambda : -0.157D-02
Largest |displ|/coords:  0.3509 (   8)  0.2370 (   1)  0.1974 (   3)
................................................................................
.............................. CYCLE   21 ......................................
................................................................................
   1    -50.7346628 -0.507347E+02  0.308E-01    9.24       0.0  T
   2    -50.7346999 -0.370981E-04  0.231E-01    9.23       1.0  T
   3    -50.7347237 -0.237445E-04  0.359E-02    9.23       1.0  T
   4    -50.7347291 -0.543063E-05  0.748E-03    9.23       2.6  T
   5    -50.7347292 -0.845819E-07  0.351E-03    9.23       5.6  T
   6    -50.7347292 -0.104314E-07  0.172E-03    9.23      11.4  T
speedup  0.94
cpu  time for SCC    0.00 s
wall time for SCC    0.01 s
speedup  0.95
cpu  time for grad    0.01 s
wall time for grad    0.01 s
 E :    -50.45207265  G :  0.038890    pred/act E change: -0.848D-03 -0.156D-03
Maxdispl :   0.2135   ||displ|| :   0.3268   Lambda : -0.294D-02
Largest |displ|/coords:  0.2135 (   1)  0.0994 (  27)  0.0878 (  15)
................................................................................
.............................. CYCLE   22 ......................................
................................................................................
   1    -50.7478569 -0.507479E+02  0.252E-01    9.26       0.0  T
   2    -50.7478967 -0.398652E-04  0.188E-01    9.26       1.0  T
   3    -50.7479192 -0.225175E-04  0.360E-02    9.27       1.0  T
   4    -50.7479247 -0.545754E-05  0.550E-03    9.26       3.6  T
   5    -50.7479247 -0.288544E-07  0.324E-03    9.26       6.1  T
speedup  0.87
cpu  time for SCC    0.00 s
wall time for SCC    0.00 s
speedup  1.00
cpu  time for grad    0.01 s
wall time for grad    0.01 s
 E :    -50.45330885  G :  0.021114    pred/act E change: -0.101D-02 -0.124D-02
Maxdispl :   0.3349   ||displ|| :   0.5224   Lambda : -0.178D-02
Largest |displ|/coords:  0.3349 (   3)  0.2269 (   8)  0.2249 (   1)
................................................................................
.............................. CYCLE   23 ......................................
................................................................................
   1    -50.7409949 -0.507410E+02  0.260E-01    9.25       0.0  T
   2    -50.7410267 -0.318336E-04  0.196E-01    9.25       1.0  T
   3    -50.7410543 -0.276408E-04  0.312E-02    9.25       1.0  T
   4    -50.7410582 -0.389273E-05  0.110E-02    9.25       1.8  T
   5    -50.7410585 -0.227081E-06  0.404E-03    9.25       4.9  T
   6    -50.7410585 -0.163211E-07  0.212E-03    9.25       9.3  T
speedup  0.94
cpu  time for SCC    0.00 s
wall time for SCC    0.01 s
speedup  1.02
cpu  time for grad    0.01 s
wall time for grad    0.01 s
 E :    -50.45404263  G :  0.025463    pred/act E change: -0.163D-02 -0.734D-03
Maxdispl :   0.2242   ||displ|| :   0.3565   Lambda : -0.111D-02
Largest |displ|/coords:  0.2242 (   1)  0.1481 (   3)  0.1354 (   8)
................................................................................
.............................. CYCLE   24 ......................................
................................................................................
   1    -50.7435442 -0.507435E+02  0.128E-01    9.29       0.0  T
   2    -50.7435501 -0.589820E-05  0.958E-02    9.29       1.0  T
   3    -50.7435540 -0.395635E-05  0.146E-02    9.28       1.3  T
   4    -50.7435548 -0.790837E-06  0.332E-03    9.28       5.9  T
   5    -50.7435548 -0.270694E-07  0.130E-03    9.28      15.1  T
speedup  1.14
cpu  time for SCC    0.00 s
wall time for SCC    0.00 s
speedup  1.01
cpu  time for grad    0.01 s
wall time for grad    0.01 s
 E :    -50.45475355  G :  0.016945    pred/act E change: -0.113D-02 -0.711D-03
Maxdispl :   0.2686   ||displ|| :   0.4926   Lambda : -0.102D-02
Largest |displ|/coords:  0.2686 (   1)  0.2390 (   8)  0.2366 (   3)
................................................................................
.............................. CYCLE   25 ......................................
................................................................................
   1    -50.7435117 -0.507435E+02  0.176E-01    9.29       0.0  T
   2    -50.7435241 -0.124587E-04  0.132E-01    9.29       1.0  T
   3    -50.7435311 -0.693604E-05  0.217E-02    9.28       1.0  T
   4    -50.7435329 -0.185955E-05  0.635E-03    9.28       3.1  T
   5    -50.7435330 -0.891678E-07  0.201E-03    9.29       9.7  T
   6    -50.7435330 -0.307412E-08  0.104E-03    9.29      18.9  T
speedup  1.11
cpu  time for SCC    0.01 s
wall time for SCC    0.01 s
speedup  1.01
cpu  time for grad    0.01 s
wall time for grad    0.01 s
 E :    -50.45503198  G :  0.019630    pred/act E change: -0.623D-03 -0.278D-03
Maxdispl :   0.1193   ||displ|| :   0.2511   Lambda : -0.113D-02
Largest |displ|/coords:  0.1193 (   8)  0.0900 (   3)  0.0745 (  15)

generating ANC from model Hessian ...
 Shifting diagonal of input Hessian by   5.198770532954216E-003
 Lowest  eigenvalues of input Hessian
    0.005000    0.005126   -0.000000   -0.000000    0.000000    0.000000
    0.000000    0.000000    0.005420    0.005659    0.005853    0.006565
    0.006952    0.007448    0.008692    0.009629    0.011086    0.011760
 Highest eigenvalues
    1.415968    1.417971    1.434655    2.645103    3.467931    3.666088
 
cpu  time for ANC gen    0.01 s
wall time for ANC gen    0.02 s
................................................................................
.............................. CYCLE   26 ......................................
................................................................................
   1    -50.7522301 -0.507522E+02  0.162E-01    9.39       0.0  T
   2    -50.7522402 -0.100638E-04  0.122E-01    9.39       1.0  T
   3    -50.7522478 -0.765047E-05  0.192E-02    9.39       1.0  T
   4    -50.7522492 -0.138395E-05  0.697E-03    9.39       2.8  T
   5    -50.7522493 -0.790305E-07  0.235E-03    9.39       8.4  T
   6    -50.7522493 -0.674830E-08  0.137E-03    9.39      14.3  T
   7    -50.7522493 -0.443096E-08  0.355E-04    9.39      55.2  T
   8    -50.7522493 -0.500066E-09  0.160E-04    9.39     122.4  T
speedup  0.97
cpu  time for SCC    0.01 s
wall time for SCC    0.01 s
speedup  0.98
cpu  time for grad    0.01 s
wall time for grad    0.02 s
 E :    -50.45546657  G :  0.019377    pred/act E change:  0.000D+00 -0.435D-03
Maxdispl :   0.1263   ||displ|| :   0.2643   Lambda : -0.119D-02
Largest |displ|/coords:  0.1263 (   3)  0.0941 (  11)  0.0915 (   9)
................................................................................
.............................. CYCLE   27 ......................................
................................................................................
   1    -50.7482716 -0.507483E+02  0.191E-01    9.34       0.0  T
   2    -50.7482762 -0.456649E-05  0.144E-01    9.34       1.0  T
   3    -50.7482807 -0.456384E-05  0.118E-02    9.34       1.7  T
   4    -50.7482811 -0.412870E-06  0.420E-03    9.34       4.7  T
   5    -50.7482812 -0.232953E-07  0.162E-03    9.34      12.1  T
   6    -50.7482812 -0.225217E-08  0.795E-04    9.34      24.7  T
speedup  1.13
cpu  time for SCC    0.01 s
wall time for SCC    0.01 s
speedup  1.02
cpu  time for grad    0.01 s
wall time for grad    0.01 s
 E :    -50.45637169  G :  0.009089    pred/act E change:  0.000D+00 -0.905D-03
Maxdispl :   0.2043   ||displ|| :   0.4835   Lambda : -0.130D-02
Largest |displ|/coords:  0.2043 (   3)  0.1872 (   7)  0.1824 (   8)
................................................................................
.............................. CYCLE   28 ......................................
................................................................................
   1    -50.7392591 -0.507393E+02  0.342E-01    9.23       0.0  T
   2    -50.7392788 -0.196904E-04  0.258E-01    9.23       1.0  T
   3    -50.7392967 -0.179055E-04  0.242E-02    9.23       1.0  T
   4    -50.7392989 -0.225399E-05  0.805E-03    9.23       2.4  T
   5    -50.7392990 -0.842907E-07  0.336E-03    9.23       5.8  T
   6    -50.7392990 -0.119295E-07  0.155E-03    9.23      12.6  T
   7    -50.7392990 -0.528099E-08  0.384E-04    9.23      51.1  T
speedup  0.97
cpu  time for SCC    0.01 s
wall time for SCC    0.01 s
speedup  1.02
cpu  time for grad    0.01 s
wall time for grad    0.01 s
 E :    -50.45689460  G :  0.025667    pred/act E change: -0.635D-03 -0.523D-03
Maxdispl :   0.1115   ||displ|| :   0.2364   Lambda : -0.897D-03
Largest |displ|/coords:  0.1115 (   3)  0.1046 (   9)  0.0962 (   1)
................................................................................
.............................. CYCLE   29 ......................................
................................................................................
   1    -50.7420071 -0.507420E+02  0.169E-01    9.20       0.0  T
   2    -50.7420150 -0.791684E-05  0.128E-01    9.20       1.0  T
   3    -50.7420216 -0.663032E-05  0.161E-02    9.21       1.2  T
   4    -50.7420227 -0.106998E-05  0.493E-03    9.21       4.0  T
   5    -50.7420227 -0.452265E-07  0.191E-03    9.21      10.3  T
speedup  1.11
cpu  time for SCC    0.00 s
wall time for SCC    0.00 s
speedup  0.99
cpu  time for grad    0.01 s
wall time for grad    0.01 s
 E :    -50.45744252  G :  0.015067    pred/act E change: -0.804D-03 -0.548D-03
Maxdispl :   0.1578   ||displ|| :   0.3156   Lambda : -0.737D-03
Largest |displ|/coords:  0.1578 (   1)  0.1283 (   9)  0.1088 (   3)
................................................................................
.............................. CYCLE   30 ......................................
................................................................................
   1    -50.7468741 -0.507469E+02  0.137E-01    9.17       0.0  T
   2    -50.7468802 -0.611530E-05  0.103E-01    9.17       1.0  T
   3    -50.7468847 -0.450098E-05  0.150E-02    9.18       1.3  T
   4    -50.7468856 -0.860509E-06  0.487E-03    9.18       4.0  T
   5    -50.7468856 -0.360554E-07  0.157E-03    9.18      12.5  T
   6    -50.7468856 -0.284695E-08  0.889E-04    9.18      22.1  T
speedup  0.89
cpu  time for SCC    0.00 s
wall time for SCC    0.01 s
speedup  0.99
cpu  time for grad    0.01 s
wall time for grad    0.01 s
 E :    -50.45797343  G :  0.009218    pred/act E change: -0.473D-03 -0.531D-03
Maxdispl :   0.2446   ||displ|| :   0.5580   Lambda : -0.779D-03
Largest |displ|/coords:  0.2446 (   9)  0.2277 (   1)  0.1971 (   3)
................................................................................
.............................. CYCLE   31 ......................................
................................................................................
   1    -50.7443488 -0.507443E+02  0.286E-01    9.08       0.0  T
   2    -50.7443689 -0.201160E-04  0.214E-01    9.08       1.0  T
   3    -50.7443853 -0.163770E-04  0.266E-02    9.09       1.0  T
   4    -50.7443882 -0.288362E-05  0.933E-03    9.08       2.1  T
   5    -50.7443883 -0.107556E-06  0.322E-03    9.08       6.1  T
   6    -50.7443883 -0.146087E-07  0.174E-03    9.08      11.3  T
   7    -50.7443883 -0.444793E-08  0.480E-04    9.08      40.8  T
speedup  1.11
cpu  time for SCC    0.01 s
wall time for SCC    0.01 s
speedup  1.01
cpu  time for grad    0.01 s
wall time for grad    0.01 s
 E :    -50.45844084  G :  0.016495    pred/act E change: -0.405D-03 -0.467D-03
Maxdispl :   0.1615   ||displ|| :   0.3118   Lambda : -0.641D-03
Largest |displ|/coords:  0.1615 (   1)  0.1330 (   3)  0.0985 (   2)
................................................................................
.............................. CYCLE   32 ......................................
................................................................................
   1    -50.7492707 -0.507493E+02  0.139E-01    9.15       0.0  T
   2    -50.7492772 -0.645655E-05  0.105E-01    9.15       1.0  T
   3    -50.7492829 -0.568825E-05  0.156E-02    9.15       1.3  T
   4    -50.7492837 -0.803261E-06  0.589E-03    9.15       3.3  T
   5    -50.7492837 -0.552293E-07  0.176E-03    9.15      11.2  T
   6    -50.7492838 -0.298447E-08  0.104E-03    9.15      18.9  T
speedup  0.91
cpu  time for SCC    0.00 s
wall time for SCC    0.01 s
speedup  1.00
cpu  time for grad    0.01 s
wall time for grad    0.01 s
 E :    -50.45879381  G :  0.012694    pred/act E change: -0.511D-03 -0.353D-03
Maxdispl :   0.1161   ||displ|| :   0.2717   Lambda : -0.448D-03
Largest |displ|/coords:  0.1161 (   9)  0.1092 (   1)  0.0956 (   3)
................................................................................
.............................. CYCLE   33 ......................................
................................................................................
   1    -50.7509280 -0.507509E+02  0.155E-01    9.24       0.0  T
   2    -50.7509337 -0.571975E-05  0.116E-01    9.24       1.0  T
   3    -50.7509378 -0.405943E-05  0.149E-02    9.24       1.3  T
   4    -50.7509386 -0.808540E-06  0.548E-03    9.24       3.6  T
   5    -50.7509386 -0.423492E-07  0.156E-03    9.24      12.6  T
   6    -50.7509386 -0.184686E-08  0.912E-04    9.24      21.5  T
speedup  0.93
cpu  time for SCC    0.01 s
wall time for SCC    0.01 s
speedup  0.93
cpu  time for grad    0.01 s
wall time for grad    0.01 s
 E :    -50.45896715  G :  0.015197    pred/act E change: -0.352D-03 -0.173D-03
Maxdispl :   0.1174   ||displ|| :   0.2284   Lambda : -0.426D-03
Largest |displ|/coords:  0.1174 (   2)  0.1019 (   3)  0.0781 (   1)
................................................................................
.............................. CYCLE   34 ......................................
................................................................................
   1    -50.7500315 -0.507500E+02  0.130E-01    9.28       0.0  T
   2    -50.7500377 -0.611521E-05  0.977E-02    9.28       1.0  T
   3    -50.7500425 -0.487496E-05  0.164E-02    9.27       1.2  T
   4    -50.7500433 -0.742356E-06  0.501E-03    9.27       3.9  T
   5    -50.7500433 -0.502132E-07  0.162E-03    9.27      12.1  T
   6    -50.7500433 -0.231677E-08  0.918E-04    9.27      21.4  T
speedup  0.91
cpu  time for SCC    0.00 s
wall time for SCC    0.01 s
speedup  0.92
cpu  time for grad    0.01 s
wall time for grad    0.01 s
 E :    -50.45917039  G :  0.008172    pred/act E change: -0.241D-03 -0.203D-03
Maxdispl :   0.0964   ||displ|| :   0.1944   Lambda : -0.277D-03
Largest |displ|/coords:  0.0964 (   9)  0.0798 (   1)  0.0728 (   5)
................................................................................
.............................. CYCLE   35 ......................................
................................................................................
   1    -50.7512103 -0.507512E+02  0.138E-01    9.27       0.0  T
   2    -50.7512166 -0.635363E-05  0.103E-01    9.27       1.0  T
   3    -50.7512212 -0.457705E-05  0.152E-02    9.27       1.3  T
   4    -50.7512220 -0.811485E-06  0.374E-03    9.27       5.2  T
   5    -50.7512220 -0.219799E-07  0.149E-03    9.27      13.2  T
   6    -50.7512221 -0.123220E-08  0.782E-04    9.27      25.1  T
speedup  0.96
cpu  time for SCC    0.00 s
wall time for SCC    0.01 s
speedup  1.02
cpu  time for grad    0.01 s
wall time for grad    0.01 s
 E :    -50.45920391  G :  0.014343    pred/act E change: -0.224D-03 -0.335D-04
Maxdispl :   0.0826   ||displ|| :   0.1569   Lambda : -0.379D-03
Largest |displ|/coords:  0.0826 (   6)  0.0765 (   2)  0.0440 (  11)
................................................................................
.............................. CYCLE   36 ......................................
................................................................................
   1    -50.7521681 -0.507522E+02  0.114E-01    9.27       0.0  T
   2    -50.7521717 -0.364907E-05  0.858E-02    9.27       1.0  T
   3    -50.7521749 -0.316733E-05  0.117E-02    9.27       1.7  T
   4    -50.7521754 -0.434894E-06  0.354E-03    9.27       5.5  T
   5    -50.7521754 -0.171135E-07  0.129E-03    9.27      15.3  T
   6    -50.7521754 -0.141601E-08  0.717E-04    9.27      27.4  T
speedup  1.11
cpu  time for SCC    0.01 s
wall time for SCC    0.01 s
speedup  1.00
cpu  time for grad    0.01 s
wall time for grad    0.01 s
 E :    -50.45939539  G :  0.010557    pred/act E change: -0.144D-03 -0.191D-03
Maxdispl :   0.1769   ||displ|| :   0.3038   Lambda : -0.375D-03
Largest |displ|/coords:  0.1769 (   2)  0.1304 (   6)  0.0862 (   1)
................................................................................
.............................. CYCLE   37 ......................................
................................................................................
   1    -50.7473002 -0.507473E+02  0.214E-01    9.24       0.0  T
   2    -50.7473108 -0.106295E-04  0.162E-01    9.24       1.0  T
   3    -50.7473211 -0.102507E-04  0.189E-02    9.24       1.0  T
   4    -50.7473222 -0.116093E-05  0.517E-03    9.24       3.8  T
   5    -50.7473223 -0.324098E-07  0.252E-03    9.24       7.8  T
   6    -50.7473223 -0.873013E-08  0.109E-03    9.24      18.0  T
speedup  0.89
cpu  time for SCC    0.01 s
wall time for SCC    0.01 s
speedup  0.99
cpu  time for grad    0.01 s
wall time for grad    0.01 s
 E :    -50.45941946  G :  0.017388    pred/act E change: -0.194D-03 -0.241D-04
Maxdispl :   0.0521   ||displ|| :   0.0913   Lambda : -0.395D-03
Largest |displ|/coords:  0.0521 (   4)  0.0388 (   8)  0.0231 (  22)
................................................................................
.............................. CYCLE   38 ......................................
................................................................................
   1    -50.7511448 -0.507511E+02  0.755E-02    9.30       0.0  T
   2    -50.7511476 -0.275151E-05  0.568E-02    9.30       1.0  T
   3    -50.7511498 -0.226813E-05  0.969E-03    9.30       2.0  T
   4    -50.7511502 -0.331089E-06  0.323E-03    9.30       6.1  T
   5    -50.7511502 -0.166226E-07  0.111E-03    9.30      17.7  T
   6    -50.7511502 -0.125960E-08  0.570E-04    9.30      34.4  T
speedup  1.11
cpu  time for SCC    0.01 s
wall time for SCC    0.01 s
speedup  1.01
cpu  time for grad    0.01 s
wall time for grad    0.01 s
 E :    -50.45964668  G :  0.007131    pred/act E change: -0.205D-03 -0.227D-03
Maxdispl :   0.1448   ||displ|| :   0.2708   Lambda : -0.227D-03
Largest |displ|/coords:  0.1448 (   2)  0.1145 (   6)  0.1044 (   9)
................................................................................
.............................. CYCLE   39 ......................................
................................................................................
   1    -50.7492404 -0.507492E+02  0.157E-01    9.25       0.0  T
   2    -50.7492441 -0.365609E-05  0.118E-01    9.25       1.0  T
   3    -50.7492482 -0.410290E-05  0.120E-02    9.26       1.6  T
   4    -50.7492485 -0.270287E-06  0.377E-03    9.26       5.2  T
   5    -50.7492485 -0.197473E-07  0.136E-03    9.26      14.5  T
   6    -50.7492485 -0.224880E-08  0.793E-04    9.26      24.7  T
speedup  0.91
cpu  time for SCC    0.00 s
wall time for SCC    0.01 s
speedup  0.98
cpu  time for grad    0.01 s
wall time for grad    0.01 s
 E :    -50.45977415  G :  0.008972    pred/act E change: -0.199D-03 -0.127D-03
Maxdispl :   0.2009   ||displ|| :   0.3609   Lambda : -0.332D-03
Largest |displ|/coords:  0.2009 (   6)  0.2000 (   2)  0.0882 (   1)
................................................................................
.............................. CYCLE   40 ......................................
................................................................................
   1    -50.7502766 -0.507503E+02  0.233E-01    9.34       0.0  T
   2    -50.7502822 -0.561377E-05  0.176E-01    9.34       1.0  T
   3    -50.7502886 -0.634598E-05  0.130E-02    9.33       1.5  T
   4    -50.7502890 -0.398738E-06  0.567E-03    9.34       3.5  T
   5    -50.7502890 -0.364296E-07  0.177E-03    9.34      11.1  T
   6    -50.7502890 -0.282093E-08  0.997E-04    9.34      19.7  T
speedup  0.93
cpu  time for SCC    0.00 s
wall time for SCC    0.01 s
speedup  1.00
cpu  time for grad    0.01 s
wall time for grad    0.01 s
 E :    -50.46000852  G :  0.008967    pred/act E change: -0.122D-03 -0.234D-03
Maxdispl :   0.3211   ||displ|| :   0.5457   Lambda : -0.440D-03
Largest |displ|/coords:  0.3211 (   2)  0.2800 (   6)  0.1292 (   9)
................................................................................
.............................. CYCLE   41 ......................................
................................................................................
   1    -50.7462339 -0.507462E+02  0.339E-01    9.19       0.0  T
   2    -50.7462509 -0.170161E-04  0.255E-01    9.19       1.0  T
   3    -50.7462685 -0.175675E-04  0.234E-02    9.20       1.0  T
   4    -50.7462701 -0.161112E-05  0.626E-03    9.20       3.1  T
   5    -50.7462702 -0.582042E-07  0.343E-03    9.20       5.7  T
   6    -50.7462702 -0.226934E-07  0.131E-03    9.20      15.0  T
   7    -50.7462702 -0.416757E-08  0.301E-04    9.20      65.2  T
speedup  1.13
cpu  time for SCC    0.01 s
wall time for SCC    0.01 s
speedup  1.01
cpu  time for grad    0.01 s
wall time for grad    0.01 s
 E :    -50.46017217  G :  0.016212    pred/act E change: -0.188D-03 -0.164D-03
Maxdispl :   0.0514   ||displ|| :   0.1266   Lambda : -0.459D-03
Largest |displ|/coords:  0.0514 (   9)  0.0456 (   6)  0.0376 (   3)
................................................................................
.............................. CYCLE   42 ......................................
................................................................................
   1    -50.7538546 -0.507539E+02  0.108E-01    9.38       0.0  T
   2    -50.7538602 -0.555893E-05  0.762E-02    9.38       1.0  T
   3    -50.7538633 -0.316592E-05  0.186E-02    9.38       1.1  T
   4    -50.7538638 -0.443566E-06  0.617E-03    9.37       3.2  T
   5    -50.7538638 -0.401853E-07  0.131E-03    9.37      15.0  T
   6    -50.7538638 -0.186419E-08  0.835E-04    9.38      23.5  T
speedup  1.07
cpu  time for SCC    0.01 s
wall time for SCC    0.01 s
speedup  0.98
cpu  time for grad    0.01 s
wall time for grad    0.01 s
 E :    -50.46029743  G :  0.009968    pred/act E change: -0.285D-03 -0.125D-03
Maxdispl :   0.1385   ||displ|| :   0.2561   Lambda : -0.343D-03
Largest |displ|/coords:  0.1385 (   2)  0.1322 (   6)  0.0727 (  13)
................................................................................
.............................. CYCLE   43 ......................................
................................................................................
   1    -50.7524888 -0.507525E+02  0.160E-01    9.30       0.0  T
   2    -50.7524946 -0.574897E-05  0.120E-01    9.30       1.0  T
   3    -50.7524987 -0.412928E-05  0.162E-02    9.30       1.2  T
   4    -50.7524995 -0.801864E-06  0.405E-03    9.30       4.8  T
   5    -50.7524995 -0.260694E-07  0.136E-03    9.30      14.4  T
   6    -50.7524995 -0.233353E-08  0.715E-04    9.30      27.4  T
speedup  0.91
cpu  time for SCC    0.00 s
wall time for SCC    0.01 s
speedup  0.99
cpu  time for grad    0.01 s
wall time for grad    0.01 s
 E :    -50.46045291  G :  0.008597    pred/act E change: -0.233D-03 -0.155D-03
Maxdispl :   0.1349   ||displ|| :   0.2148   Lambda : -0.184D-03
Largest |displ|/coords:  0.1349 (   2)  0.0642 (   6)  0.0610 (   5)
................................................................................
.............................. CYCLE   44 ......................................
................................................................................
   1    -50.7506242 -0.507506E+02  0.123E-01    9.28       0.0  T
   2    -50.7506270 -0.275412E-05  0.927E-02    9.28       1.0  T
   3    -50.7506297 -0.278255E-05  0.102E-02    9.28       1.9  T
   4    -50.7506300 -0.276016E-06  0.316E-03    9.28       6.2  T
   5    -50.7506300 -0.125758E-07  0.120E-03    9.28      16.4  T
   6    -50.7506300 -0.156433E-08  0.661E-04    9.28      29.7  T
speedup  0.93
cpu  time for SCC    0.00 s
wall time for SCC    0.01 s
speedup  1.00
cpu  time for grad    0.01 s
wall time for grad    0.01 s
 E :    -50.46055181  G :  0.009245    pred/act E change: -0.183D-03 -0.989D-04
Maxdispl :   0.1249   ||displ|| :   0.1817   Lambda : -0.191D-03
Largest |displ|/coords:  0.1249 (   2)  0.0694 (   6)  0.0517 (  10)
................................................................................
.............................. CYCLE   45 ......................................
................................................................................
   1    -50.7511895 -0.507512E+02  0.933E-02    9.27       0.0  T
   2    -50.7511913 -0.183325E-05  0.702E-02    9.27       1.0  T
   3    -50.7511930 -0.171242E-05  0.840E-03    9.27       2.3  T
   4    -50.7511932 -0.213518E-06  0.249E-03    9.27       7.9  T
   5    -50.7511932 -0.923613E-08  0.900E-04    9.27      21.8  T
speedup  1.09
cpu  time for SCC    0.00 s
wall time for SCC    0.00 s
speedup  0.99
cpu  time for grad    0.01 s
wall time for grad    0.01 s
 E :    -50.46065595  G :  0.009125    pred/act E change: -0.963D-04 -0.104D-03
Maxdispl :   0.1893   ||displ|| :   0.2806   Lambda : -0.239D-03
Largest |displ|/coords:  0.1893 (   2)  0.1044 (   6)  0.0665 (   1)
................................................................................
.............................. CYCLE   46 ......................................
................................................................................
   1    -50.7531181 -0.507531E+02  0.155E-01    9.34       0.0  T
   2    -50.7531224 -0.432087E-05  0.117E-01    9.34       1.0  T
   3    -50.7531266 -0.423988E-05  0.138E-02    9.34       1.4  T
   4    -50.7531271 -0.451714E-06  0.389E-03    9.34       5.0  T
   5    -50.7531271 -0.254611E-07  0.166E-03    9.34      11.8  T
   6    -50.7531271 -0.440949E-08  0.829E-04    9.34      23.7  T
speedup  1.03
cpu  time for SCC    0.01 s
wall time for SCC    0.01 s
speedup  1.04
cpu  time for grad    0.01 s
wall time for grad    0.01 s
 E :    -50.46078003  G :  0.007902    pred/act E change: -0.986D-04 -0.124D-03
Maxdispl :   0.2514   ||displ|| :   0.3560   Lambda : -0.288D-03
Largest |displ|/coords:  0.2514 (   2)  0.1189 (   6)  0.0836 (  11)
................................................................................
.............................. CYCLE   47 ......................................
................................................................................
   1    -50.7551744 -0.507552E+02  0.208E-01    9.34       0.0  T
   2    -50.7551807 -0.632508E-05  0.157E-01    9.34       1.0  T
   3    -50.7551884 -0.765151E-05  0.146E-02    9.34       1.3  T
   4    -50.7551888 -0.402098E-06  0.407E-03    9.34       4.8  T
   5    -50.7551888 -0.174730E-07  0.206E-03    9.34       9.5  T
   6    -50.7551888 -0.613886E-08  0.896E-04    9.34      21.9  T
speedup  1.09
cpu  time for SCC    0.01 s
wall time for SCC    0.01 s
speedup  0.98
cpu  time for grad    0.01 s
wall time for grad    0.01 s
 E :    -50.46086007  G :  0.011216    pred/act E change: -0.129D-03 -0.800D-04
Maxdispl :   0.0302   ||displ|| :   0.0773   Lambda : -0.174D-03
Largest |displ|/coords:  0.0302 (   2)  0.0247 (  10)  0.0234 (   1)
................................................................................
.............................. CYCLE   48 ......................................
................................................................................
   1    -50.7555315 -0.507555E+02  0.423E-02    9.36       0.0  T
   2    -50.7555323 -0.850165E-06  0.317E-02    9.36       1.0  T
   3    -50.7555329 -0.574521E-06  0.485E-03    9.36       4.0  T
   4    -50.7555330 -0.927772E-07  0.169E-03    9.36      11.6  T
   5    -50.7555330 -0.440196E-08  0.447E-04    9.36      43.9  T
speedup  1.04
cpu  time for SCC    0.01 s
wall time for SCC    0.00 s
speedup  1.06
cpu  time for grad    0.01 s
wall time for grad    0.01 s
 E :    -50.46093592  G :  0.005160    pred/act E change: -0.162D-03 -0.759D-04
Maxdispl :   0.1513   ||displ|| :   0.2229   Lambda : -0.118D-03
Largest |displ|/coords:  0.1513 (   2)  0.0790 (   6)  0.0500 (   9)
................................................................................
.............................. CYCLE   49 ......................................
................................................................................
   1    -50.7505354 -0.507505E+02  0.136E-01    9.30       0.0  T
   2    -50.7505405 -0.505822E-05  0.102E-01    9.30       1.0  T
   3    -50.7505445 -0.399619E-05  0.145E-02    9.30       1.4  T
   4    -50.7505451 -0.666434E-06  0.452E-03    9.30       4.3  T
   5    -50.7505452 -0.325361E-07  0.158E-03    9.30      12.4  T
   6    -50.7505452 -0.241499E-08  0.898E-04    9.30      21.8  T
speedup  1.05
cpu  time for SCC    0.01 s
wall time for SCC    0.01 s
speedup  0.98
cpu  time for grad    0.01 s
wall time for grad    0.01 s
 E :    -50.46088132  G :  0.011976    pred/act E change: -0.877D-04  0.546D-04
Maxdispl :   0.0934   ||displ|| :   0.1550   Lambda : -0.243D-03
Largest |displ|/coords:  0.0934 (   6)  0.0697 (   2)  0.0592 (   1)
................................................................................
.............................. CYCLE   50 ......................................
................................................................................
   1    -50.7560937 -0.507561E+02  0.957E-02    9.38       0.0  T
   2    -50.7560957 -0.199763E-05  0.716E-02    9.38       1.0  T
   3    -50.7560973 -0.161113E-05  0.958E-03    9.37       2.0  T
   4    -50.7560975 -0.225079E-06  0.271E-03    9.37       7.2  T
   5    -50.7560976 -0.122087E-07  0.917E-04    9.37      21.4  T
speedup  1.09
cpu  time for SCC    0.00 s
wall time for SCC    0.00 s
speedup  0.98
cpu  time for grad    0.01 s
wall time for grad    0.01 s
 E :    -50.46097912  G :  0.006251    pred/act E change: -0.619D-04 -0.978D-04
Maxdispl :   0.1321   ||displ|| :   0.1854   Lambda : -0.153D-03
Largest |displ|/coords:  0.1321 (   2)  0.0584 (   6)  0.0542 (  11)
................................................................................
.............................. CYCLE   51 ......................................
................................................................................
   1    -50.7539726 -0.507540E+02  0.132E-01    9.28       0.0  T
   2    -50.7539764 -0.381304E-05  0.995E-02    9.29       1.0  T
   3    -50.7539798 -0.340935E-05  0.122E-02    9.29       1.6  T
   4    -50.7539802 -0.409883E-06  0.312E-03    9.29       6.3  T
   5    -50.7539803 -0.124411E-07  0.130E-03    9.29      15.1  T
   6    -50.7539803 -0.248112E-08  0.736E-04    9.29      26.6  T
speedup  0.93
cpu  time for SCC    0.00 s
wall time for SCC    0.01 s
speedup  1.01
cpu  time for grad    0.01 s
wall time for grad    0.01 s
 E :    -50.46089235  G :  0.012634    pred/act E change: -0.124D-03  0.868D-04
Maxdispl :   0.0398   ||displ|| :   0.0974   Lambda : -0.283D-03
Largest |displ|/coords:  0.0398 (   4)  0.0391 (   6)  0.0322 (  11)
................................................................................
.............................. CYCLE   52 ......................................
................................................................................
   1    -50.7553467 -0.507553E+02  0.760E-02    9.38       0.0  T
   2    -50.7553487 -0.203690E-05  0.570E-02    9.37       1.0  T
   3    -50.7553504 -0.165257E-05  0.907E-03    9.37       2.2  T
   4    -50.7553506 -0.232228E-06  0.223E-03    9.37       8.8  T
   5    -50.7553506 -0.701691E-08  0.929E-04    9.37      21.1  T
speedup  1.09
cpu  time for SCC    0.00 s
wall time for SCC    0.00 s
speedup  1.07
cpu  time for grad    0.01 s
wall time for grad    0.01 s
 E :    -50.46102606  G :  0.004247    pred/act E change: -0.789D-04 -0.134D-03
Maxdispl :   0.0561   ||displ|| :   0.0832   Lambda : -0.492D-04
Largest |displ|/coords:  0.0561 (   2)  0.0263 (   9)  0.0234 (   1)

generating ANC from model Hessian ...
 Shifting diagonal of input Hessian by   5.227550397255130E-003
 Lowest  eigenvalues of input Hessian
    0.005000    0.005168   -0.000000   -0.000000   -0.000000   -0.000000
    0.000000    0.000000    0.005585    0.005646    0.006001    0.006557
    0.007271    0.007971    0.009136    0.009376    0.010940    0.011054
 Highest eigenvalues
    1.407357    1.416203    1.419645    2.598681    3.436032    3.580846
 
cpu  time for ANC gen    0.02 s
wall time for ANC gen    0.02 s
................................................................................
.............................. CYCLE   53 ......................................
................................................................................
   1    -50.7549107 -0.507549E+02  0.574E-02    9.32       0.0  T
   2    -50.7549116 -0.891221E-06  0.428E-02    9.32       1.0  T
   3    -50.7549123 -0.726561E-06  0.765E-03    9.32       2.6  T
   4    -50.7549124 -0.999201E-07  0.217E-03    9.32       9.0  T
   5    -50.7549124 -0.577067E-08  0.524E-04    9.32      37.4  T
   6    -50.7549124 -0.233548E-09  0.331E-04    9.32      59.3  T
speedup  0.94
cpu  time for SCC    0.00 s
wall time for SCC    0.01 s
speedup  1.04
cpu  time for grad    0.01 s
wall time for grad    0.01 s
 E :    -50.46103219  G :  0.004843    pred/act E change:  0.000D+00 -0.613D-05
Maxdispl :   0.0418   ||displ|| :   0.0848   Lambda : -0.951D-04
Largest |displ|/coords:  0.0418 (   9)  0.0391 (   2)  0.0277 (   7)
................................................................................
.............................. CYCLE   54 ......................................
................................................................................
   1    -50.7547894 -0.507548E+02  0.712E-02    9.33       0.0  T
   2    -50.7547901 -0.735893E-06  0.540E-02    9.33       1.0  T
   3    -50.7547910 -0.883661E-06  0.408E-03    9.33       4.8  T
   4    -50.7547910 -0.399985E-07  0.150E-03    9.33      13.1  T
   5    -50.7547910 -0.230972E-08  0.529E-04    9.33      37.1  T
speedup  1.11
cpu  time for SCC    0.00 s
wall time for SCC    0.00 s
speedup  0.99
cpu  time for grad    0.01 s
wall time for grad    0.01 s
 E :    -50.46110239  G :  0.002136    pred/act E change:  0.000D+00 -0.702D-04
Maxdispl :   0.1055   ||displ|| :   0.1843   Lambda : -0.120D-03
Largest |displ|/coords:  0.1055 (   2)  0.0729 (   7)  0.0670 (   9)
................................................................................
.............................. CYCLE   55 ......................................
................................................................................
   1    -50.7541589 -0.507542E+02  0.128E-01    9.34       0.0  T
   2    -50.7541611 -0.222675E-05  0.971E-02    9.34       1.0  T
   3    -50.7541635 -0.241926E-05  0.828E-03    9.35       2.4  T
   4    -50.7541637 -0.189419E-06  0.308E-03    9.34       6.4  T
   5    -50.7541637 -0.107438E-07  0.103E-03    9.34      19.0  T
   6    -50.7541637 -0.863366E-09  0.505E-04    9.34      38.9  T
   7    -50.7541637 -0.556618E-09  0.135E-04    9.34     145.3  T
speedup  1.09
cpu  time for SCC    0.01 s
wall time for SCC    0.01 s
speedup  1.03
cpu  time for grad    0.01 s
wall time for grad    0.01 s
 E :    -50.46116580  G :  0.004679    pred/act E change: -0.479D-04 -0.634D-04
Maxdispl :   0.0774   ||displ|| :   0.1075   Lambda : -0.542D-04
Largest |displ|/coords:  0.0774 (   2)  0.0309 (   9)  0.0258 (   1)
................................................................................
.............................. CYCLE   56 ......................................
................................................................................
   1    -50.7544633 -0.507545E+02  0.581E-02    9.35       0.0  T
   2    -50.7544637 -0.416634E-06  0.439E-02    9.35       1.0  T
   3    -50.7544642 -0.519260E-06  0.299E-03    9.35       6.6  T
   4    -50.7544642 -0.246192E-07  0.139E-03    9.35      14.1  T
speedup  0.77
cpu  time for SCC    0.00 s
wall time for SCC    0.00 s
speedup  0.96
cpu  time for grad    0.01 s
wall time for grad    0.01 s
 E :    -50.46120838  G :  0.004122    pred/act E change: -0.621D-04 -0.426D-04
Maxdispl :   0.2044   ||displ|| :   0.2686   Lambda : -0.113D-03
Largest |displ|/coords:  0.2044 (   2)  0.0783 (   9)  0.0726 (   1)
................................................................................
.............................. CYCLE   57 ......................................
................................................................................
   1    -50.7551736 -0.507552E+02  0.129E-01    9.34       0.0  T
   2    -50.7551760 -0.237216E-05  0.975E-02    9.34       1.0  T
   3    -50.7551790 -0.306363E-05  0.680E-03    9.34       2.9  T
   4    -50.7551791 -0.123596E-06  0.278E-03    9.34       7.0  T
   5    -50.7551791 -0.849604E-08  0.109E-03    9.34      17.9  T
speedup  0.89
cpu  time for SCC    0.00 s
wall time for SCC    0.00 s
speedup  0.99
cpu  time for grad    0.01 s
wall time for grad    0.01 s
 E :    -50.46128458  G :  0.003492    pred/act E change: -0.274D-04 -0.762D-04
Maxdispl :   0.2426   ||displ|| :   0.3031   Lambda : -0.776D-04
Largest |displ|/coords:  0.2426 (   2)  0.0776 (   1)  0.0732 (   7)
................................................................................
.............................. CYCLE   58 ......................................
................................................................................
   1    -50.7548189 -0.507548E+02  0.141E-01    9.33       0.0  T
   2    -50.7548212 -0.227954E-05  0.107E-01    9.33       1.0  T
   3    -50.7548243 -0.308000E-05  0.677E-03    9.33       2.9  T
   4    -50.7548244 -0.959040E-07  0.314E-03    9.33       6.2  T
   5    -50.7548244 -0.107220E-07  0.108E-03    9.33      18.1  T
   6    -50.7548244 -0.191499E-08  0.560E-04    9.33      35.0  T
   7    -50.7548244 -0.651873E-09  0.100E-04    9.33     195.3  T
speedup  0.94
cpu  time for SCC    0.01 s
wall time for SCC    0.01 s
speedup  1.01
cpu  time for grad    0.01 s
wall time for grad    0.01 s
 E :    -50.46133223  G :  0.003872    pred/act E change: -0.607D-04 -0.477D-04
Maxdispl :   0.2008   ||displ|| :   0.2253   Lambda : -0.654D-04
Largest |displ|/coords:  0.2008 (   2)  0.0548 (   1)  0.0382 (   9)
................................................................................
.............................. CYCLE   59 ......................................
................................................................................
   1    -50.7556862 -0.507557E+02  0.873E-02    9.33       0.0  T
   2    -50.7556873 -0.107917E-05  0.660E-02    9.32       1.0  T
   3    -50.7556884 -0.109106E-05  0.560E-03    9.32       3.5  T
   4    -50.7556885 -0.115495E-06  0.231E-03    9.32       8.5  T
   5    -50.7556885 -0.713541E-08  0.682E-04    9.32      28.7  T
   6    -50.7556885 -0.422354E-09  0.359E-04    9.32      54.6  T
speedup  0.91
cpu  time for SCC    0.00 s
wall time for SCC    0.01 s
speedup  1.01
cpu  time for grad    0.01 s
wall time for grad    0.01 s
 E :    -50.46137233  G :  0.002721    pred/act E change: -0.424D-04 -0.401D-04
Maxdispl :   0.3091   ||displ|| :   0.3452   Lambda : -0.698D-04
Largest |displ|/coords:  0.3091 (   2)  0.0812 (   1)  0.0720 (   9)
................................................................................
.............................. CYCLE   60 ......................................
................................................................................
   1    -50.7546296 -0.507546E+02  0.147E-01    9.32       0.0  T
   2    -50.7546329 -0.337882E-05  0.111E-01    9.32       1.0  T
   3    -50.7546375 -0.460532E-05  0.860E-03    9.32       2.3  T
   4    -50.7546377 -0.144958E-06  0.422E-03    9.32       4.7  T
   5    -50.7546377 -0.190784E-07  0.116E-03    9.32      16.9  T
   6    -50.7546377 -0.207213E-08  0.637E-04    9.32      30.8  T
   7    -50.7546377 -0.864453E-09  0.121E-04    9.32     162.4  T
speedup  0.97
cpu  time for SCC    0.01 s
wall time for SCC    0.01 s
speedup  0.98
cpu  time for grad    0.01 s
wall time for grad    0.01 s
 E :    -50.46139403  G :  0.005365    pred/act E change: -0.344D-04 -0.217D-04
Maxdispl :   0.0538   ||displ|| :   0.0967   Lambda : -0.733D-04
Largest |displ|/coords:  0.0538 (   2)  0.0386 (   3)  0.0336 (   7)
................................................................................
.............................. CYCLE   61 ......................................
................................................................................
   1    -50.7566523 -0.507567E+02  0.526E-02    9.35       0.0  T
   2    -50.7566530 -0.638892E-06  0.398E-02    9.35       1.0  T
   3    -50.7566537 -0.737477E-06  0.439E-03    9.34       4.5  T
   4    -50.7566538 -0.539534E-07  0.185E-03    9.35      10.6  T
   5    -50.7566538 -0.365034E-08  0.467E-04    9.35      42.0  T
speedup  1.11
cpu  time for SCC    0.00 s
wall time for SCC    0.00 s
speedup  0.99
cpu  time for grad    0.01 s
wall time for grad    0.01 s
 E :    -50.46143068  G :  0.003903    pred/act E change: -0.391D-04 -0.366D-04
Maxdispl :   0.1375   ||displ|| :   0.1526   Lambda : -0.391D-04
Largest |displ|/coords:  0.1375 (   2)  0.0326 (  11)  0.0301 (   1)
................................................................................
.............................. CYCLE   62 ......................................
................................................................................
   1    -50.7561517 -0.507562E+02  0.653E-02    9.35       0.0  T
   2    -50.7561521 -0.472993E-06  0.492E-02    9.35       1.0  T
   3    -50.7561526 -0.457585E-06  0.383E-03    9.35       5.1  T
   4    -50.7561527 -0.524285E-07  0.162E-03    9.35      12.1  T
   5    -50.7561527 -0.317287E-08  0.542E-04    9.35      36.2  T
   6    -50.7561527 -0.392575E-09  0.324E-04    9.35      60.6  T
speedup  1.13
cpu  time for SCC    0.01 s
wall time for SCC    0.01 s
speedup  1.03
cpu  time for grad    0.01 s
wall time for grad    0.01 s
 E :    -50.46145528  G :  0.003739    pred/act E change: -0.370D-04 -0.246D-04
Maxdispl :   0.1978   ||displ|| :   0.2153   Lambda : -0.391D-04
Largest |displ|/coords:  0.1978 (   2)  0.0464 (   1)  0.0323 (  11)
................................................................................
.............................. CYCLE   63 ......................................
................................................................................
   1    -50.7559020 -0.507559E+02  0.735E-02    9.35       0.0  T
   2    -50.7559026 -0.692462E-06  0.554E-02    9.35       1.0  T
   3    -50.7559035 -0.877888E-06  0.499E-03    9.35       3.9  T
   4    -50.7559036 -0.432348E-07  0.209E-03    9.35       9.4  T
   5    -50.7559036 -0.512758E-08  0.676E-04    9.35      29.0  T
   6    -50.7559036 -0.572967E-09  0.419E-04    9.35      46.9  T
speedup  0.94
cpu  time for SCC    0.00 s
wall time for SCC    0.01 s
speedup  0.97
cpu  time for grad    0.01 s
wall time for grad    0.01 s
 E :    -50.46148365  G :  0.002574    pred/act E change: -0.200D-04 -0.284D-04
Maxdispl :   0.2558   ||displ|| :   0.2740   Lambda : -0.412D-04
Largest |displ|/coords:  0.2558 (   2)  0.0486 (   1)  0.0388 (   3)
................................................................................
.............................. CYCLE   64 ......................................
................................................................................
   1    -50.7554234 -0.507554E+02  0.104E-01    9.34       0.0  T
   2    -50.7554247 -0.123005E-05  0.781E-02    9.34       1.0  T
   3    -50.7554260 -0.136327E-05  0.736E-03    9.34       2.7  T
   4    -50.7554261 -0.979795E-07  0.256E-03    9.34       7.7  T
   5    -50.7554261 -0.770891E-08  0.887E-04    9.34      22.1  T
   6    -50.7554261 -0.915890E-09  0.535E-04    9.34      36.7  T
speedup  0.93
cpu  time for SCC    0.00 s
wall time for SCC    0.01 s
speedup  0.96
cpu  time for grad    0.01 s
wall time for grad    0.01 s
 E :    -50.46150614  G :  0.004160    pred/act E change: -0.205D-04 -0.225D-04
Maxdispl :   0.0858   ||displ|| :   0.1126   Lambda : -0.373D-04
Largest |displ|/coords:  0.0858 (   2)  0.0288 (  16)  0.0286 (   7)
................................................................................
.............................. CYCLE   65 ......................................
................................................................................
   1    -50.7565065 -0.507565E+02  0.448E-02    9.34       0.0  T
   2    -50.7565070 -0.564202E-06  0.332E-02    9.34       1.0  T
   3    -50.7565075 -0.461269E-06  0.586E-03    9.34       3.3  T
   4    -50.7565076 -0.638749E-07  0.194E-03    9.34      10.1  T
   5    -50.7565076 -0.493714E-08  0.468E-04    9.34      41.9  T
speedup  1.06
cpu  time for SCC    0.01 s
wall time for SCC    0.00 s
speedup  0.98
cpu  time for grad    0.01 s
wall time for grad    0.01 s
 E :    -50.46151730  G :  0.002968    pred/act E change: -0.221D-04 -0.112D-04
Maxdispl :   0.1488   ||displ|| :   0.1597   Lambda : -0.254D-04
Largest |displ|/coords:  0.1488 (   2)  0.0368 (   1)  0.0249 (  11)
[...]
   2    -50.7564187 -0.780359E-07  0.259E-02    9.34       1.0  T
   3    -50.7564188 -0.102621E-06  0.132E-03    9.34      14.9  T
   4    -50.7564188 -0.296023E-08  0.551E-04    9.34      35.6  T
   5    -50.7564188 -0.241805E-09  0.216E-04    9.34      91.0  T
speedup  1.06
cpu  time for SCC    0.00 s
wall time for SCC    0.00 s
speedup  1.01
cpu  time for grad    0.01 s
wall time for grad    0.01 s
 E :    -50.46161477  G :  0.000747    pred/act E change: -0.155D-05 -0.152D-05
Maxdispl :   0.0224   ||displ|| :   0.0275   Lambda : -0.123D-05
Largest |displ|/coords:  0.0224 (   2)  0.0072 (   3)  0.0060 (   7)
................................................................................
.............................. CYCLE   81 ......................................
................................................................................
   1    -50.7565795 -0.507566E+02  0.182E-02    9.34       0.0  T
   2    -50.7565795 -0.331699E-07  0.138E-02    9.34       1.4  T
   3    -50.7565796 -0.313483E-07  0.108E-03    9.34      18.1  T
   4    -50.7565796 -0.370419E-08  0.497E-04    9.34      39.5  T
   5    -50.7565796 -0.213582E-09  0.117E-04    9.34     167.2  T
speedup  0.87
cpu  time for SCC    0.00 s
wall time for SCC    0.00 s
speedup  1.01
cpu  time for grad    0.01 s
wall time for grad    0.01 s
 E :    -50.46161558  G :  0.000539    pred/act E change: -0.111D-05 -0.806D-06
Maxdispl :   0.0809   ||displ|| :   0.0894   Lambda : -0.159D-05
Largest |displ|/coords:  0.0809 (   2)  0.0172 (   3)  0.0156 (   7)

generating ANC from model Hessian ...
 Shifting diagonal of input Hessian by   5.231501426148166E-003
 Lowest  eigenvalues of input Hessian
    0.005000   -0.000000   -0.000000   -0.000000   -0.000000    0.000000
    0.000000    0.005310    0.005678    0.005869    0.006397    0.006922
    0.007852    0.008679    0.009231    0.010009    0.010647    0.011348
 Highest eigenvalues
    1.411749    1.414623    1.419818    2.617767    3.451537    3.598663
 
cpu  time for ANC gen    0.02 s
wall time for ANC gen    0.02 s
................................................................................
.............................. CYCLE   82 ......................................
................................................................................
   1    -50.7563823 -0.507564E+02  0.504E-02    9.34       0.0  T
   2    -50.7563825 -0.164846E-06  0.381E-02    9.34       1.0  T
   3    -50.7563827 -0.193060E-06  0.199E-03    9.34       9.9  T
   4    -50.7563827 -0.999609E-08  0.934E-04    9.34      21.0  T
   5    -50.7563827 -0.721563E-09  0.309E-04    9.34      63.4  T
speedup  1.06
cpu  time for SCC    0.00 s
wall time for SCC    0.00 s
speedup  0.92
cpu  time for grad    0.01 s
wall time for grad    0.01 s
 E :    -50.46161515  G :  0.001331    pred/act E change:  0.000D+00  0.428D-06
Maxdispl :   0.0054   ||displ|| :   0.0088   Lambda : -0.229D-05
Largest |displ|/coords:  0.0054 (   1)  0.0037 (   3)  0.0022 (   5)
................................................................................
.............................. CYCLE   83 ......................................
................................................................................
   1    -50.7565284 -0.507565E+02  0.712E-03    9.34       0.0  T
   2    -50.7565284 -0.178065E-07  0.539E-03    9.34       3.6  T
   3    -50.7565284 -0.161722E-07  0.722E-04    9.34      27.2  T
   4    -50.7565284 -0.222529E-08  0.188E-04    9.34     104.5  T
speedup  1.08
cpu  time for SCC    0.00 s
wall time for SCC    0.00 s
speedup  1.00
cpu  time for grad    0.01 s
wall time for grad    0.01 s
 E :    -50.46161670  G :  0.000421    pred/act E change:  0.000D+00 -0.155D-05
Maxdispl :   0.0077   ||displ|| :   0.0111   Lambda : -0.100D-05
Largest |displ|/coords:  0.0077 (   1)  0.0039 (   5)  0.0027 (  13)
................................................................................
.............................. CYCLE   84 ......................................
................................................................................
   1    -50.7566151 -0.507566E+02  0.798E-03    9.34       0.0  T
   2    -50.7566151 -0.132723E-07  0.601E-03    9.34       3.3  T
   3    -50.7566152 -0.963200E-08  0.626E-04    9.34      31.3  T
   4    -50.7566152 -0.200947E-08  0.163E-04    9.34     120.6  T
speedup  1.05
cpu  time for SCC    0.00 s
wall time for SCC    0.00 s
speedup  1.00
cpu  time for grad    0.01 s
wall time for grad    0.01 s
 E :    -50.46161736  G :  0.000316    pred/act E change: -0.115D-05 -0.658D-06
Maxdispl :   0.0107   ||displ|| :   0.0146   Lambda : -0.656D-06
Largest |displ|/coords:  0.0107 (   1)  0.0045 (   5)  0.0035 (   9)
................................................................................
.............................. CYCLE   85 ......................................
................................................................................
   1    -50.7566407 -0.507566E+02  0.102E-02    9.34       0.0  T
   2    -50.7566407 -0.156623E-07  0.776E-03    9.34       2.5  T
   3    -50.7566407 -0.159561E-07  0.627E-04    9.34      31.3  T
   4    -50.7566407 -0.160270E-08  0.191E-04    9.34     102.6  T
speedup  1.05
cpu  time for SCC    0.00 s
wall time for SCC    0.00 s
speedup  0.99
cpu  time for grad    0.01 s
wall time for grad    0.01 s
 E :    -50.46161778  G :  0.000470    pred/act E change: -0.501D-06 -0.425D-06
Maxdispl :   0.0167   ||displ|| :   0.0218   Lambda : -0.795D-06
Largest |displ|/coords:  0.0167 (   1)  0.0068 (   5)  0.0055 (  13)
................................................................................
.............................. CYCLE   86 ......................................
................................................................................
   1    -50.7566323 -0.507566E+02  0.138E-02    9.34       0.0  T
   2    -50.7566323 -0.269239E-07  0.104E-02    9.34       1.9  T
   3    -50.7566324 -0.253593E-07  0.797E-04    9.34      24.6  T
   4    -50.7566324 -0.327676E-08  0.267E-04    9.34      73.3  T
speedup  1.05
cpu  time for SCC    0.00 s
wall time for SCC    0.00 s
speedup  0.99
cpu  time for grad    0.01 s
wall time for grad    0.01 s
 E :    -50.46161819  G :  0.000423    pred/act E change: -0.328D-06 -0.408D-06
Maxdispl :   0.0064   ||displ|| :   0.0091   Lambda : -0.381D-06
Largest |displ|/coords:  0.0064 (   1)  0.0035 (   5)  0.0025 (   6)
................................................................................
.............................. CYCLE   87 ......................................
................................................................................
   1    -50.7566099 -0.507566E+02  0.533E-03    9.34       0.0  T
   2    -50.7566099 -0.465836E-08  0.405E-03    9.34       4.8  T
   3    -50.7566099 -0.509159E-08  0.325E-04    9.34      60.4  T
   4    -50.7566099 -0.452182E-09  0.133E-04    9.34     147.6  T
speedup  1.03
cpu  time for SCC    0.00 s
wall time for SCC    0.00 s
speedup  0.99
cpu  time for grad    0.01 s
wall time for grad    0.01 s
 E :    -50.46161842  G :  0.000217    pred/act E change: -0.398D-06 -0.224D-06
Maxdispl :   0.0043   ||displ|| :   0.0057   Lambda : -0.180D-06
Largest |displ|/coords:  0.0043 (   1)  0.0017 (   6)  0.0013 (   7)
................................................................................
.............................. CYCLE   88 ......................................
................................................................................
   1    -50.7566021 -0.507566E+02  0.281E-03    9.34       0.0  T
   2    -50.7566021 -0.225601E-08  0.213E-03    9.34       9.2  T
   3    -50.7566021 -0.185512E-08  0.250E-04    9.34      78.3  T
   4    -50.7566021 -0.328754E-09  0.983E-05    9.34     199.5  T
speedup  1.08
cpu  time for SCC    0.00 s
wall time for SCC    0.00 s
speedup  1.01
cpu  time for grad    0.01 s
wall time for grad    0.01 s
 E :    -50.46161853  G :  0.000170    pred/act E change: -0.191D-06 -0.111D-06
Maxdispl :   0.0033   ||displ|| :   0.0045   Lambda : -0.916D-07
Largest |displ|/coords:  0.0033 (   1)  0.0014 (   7)  0.0012 (   6)
................................................................................
.............................. CYCLE   89 ......................................
................................................................................
   1    -50.7566135 -0.507566E+02  0.237E-03    9.34       0.0  T
   2    -50.7566135 -0.960711E-09  0.179E-03    9.34      11.0  T
   3    -50.7566135 -0.821693E-09  0.186E-04    9.34     105.4  T
   4    -50.7566135 -0.126740E-09  0.813E-05    9.34     241.3  T
speedup  1.03
cpu  time for SCC    0.00 s
wall time for SCC    0.00 s
speedup  0.98
cpu  time for grad    0.01 s
wall time for grad    0.01 s
 E :    -50.46161859  G :  0.000140    pred/act E change: -0.898D-07 -0.592D-07
Maxdispl :   0.0045   ||displ|| :   0.0059   Lambda : -0.648D-07
Largest |displ|/coords:  0.0045 (   1)  0.0017 (   3)  0.0016 (   7)

   *** GEOMETRY OPTIMIZATION CONVERGED AFTER 89 ITERATIONS ***

------------------------------------------------------------------------
 total energy gain (kcal):     -0.0022
------------------------------------------------------------------------
================
 final structure:
================
$coord
        0.94951651310734       -1.89323022655638       -4.27630587226247      S 
        2.05495931150190        0.43803404467732       -5.23016385209490      O 
        2.52782709692396       -3.02331641362015       -2.31212678860575      O 
       -1.64720342646591       -1.59355023523784       -3.48105213561028      O 
        0.93790862105912       -3.82919523678490       -6.56079315029297      O 
        2.68555308516997       -3.93324901191982       -6.97449291523932      H 
       -3.62521228521954       -0.24734059438904        1.02486282907094      O 
       -3.43462530263763       -1.41745321064662       -0.37844851769968      H 
        2.36300797975866        3.99473029324405       -1.90390836963783      O 
        3.59878423301104        5.20880892069023       -2.42938929696555      H 
        2.30579552429726        2.69206181178962       -3.26309013966775      H 
       -2.98162687470479       -1.31473596194439        6.09530732360312      O 
       -3.43757062024603       -1.11433709318283        4.32549552505169      H 
       -4.09201120247561       -0.23373834849038        7.03271054610911      H 
        2.11956327329734       -1.02583725915059        6.30301628129218      O 
        0.27825634144062       -1.13094438039361        6.48385507853050      H 
        2.76960790217935       -2.64331002608919        6.79374512898984      H 
       -2.92993485149097        3.33898273560249       -2.40863718320001      O 
       -2.61488255397749        1.80484223132410       -3.36934783815154      H 
       -3.86246862437732        1.37612204743177        0.15253910121463      H 
       -1.29355526563291        4.13049609917878       -2.23051834669709      H 
        1.49666330742816        0.09708306781314        1.35302836068797      N 
        2.08630378203380       -1.31105745837291        0.05518239327715      H 
        2.07194915207831        1.81772565326730        0.63677697981970      H 
       -0.48169996662365        0.04472730501393        1.38397054113367      H 
        2.15509483171092       -0.23231879101632        3.17778429842838      H 
$end
 
 Bond Distances (Angstroems)
 ---------------------------
S1-O2=1.4556         S1-O3=1.4613         S1-O4=1.4458         S1-O5=1.5846         O2-S1=1.4556         O3-S1=1.4613         
O4-S1=1.4458         O5-S1=1.5846         O5-H6=0.9520         H6-O5=0.9520         O7-H8=0.9721         O7-H20=0.9833        
H8-O7=0.9721         O9-H10=0.9580        O9-H11=0.9967        H10-O9=0.9580        H11-O9=0.9967        O12-H13=0.9729       
O12-H14=0.9584       H13-O12=0.9729       H14-O12=0.9584       O15-H16=0.9806       O15-H17=0.9583       H16-O15=0.9806       
H17-O15=0.9583       O18-H19=0.9723       O18-H21=0.9665       H19-O18=0.9723       H20-O7=0.9833        H21-O18=0.9665       
N22-H23=1.0603       N22-H24=1.0322       N22-H25=1.0474       N22-H26=1.0413       H23-N22=1.0603       H24-N22=1.0322       
H25-N22=1.0474       H26-N22=1.0413       
 N  H  Rav=1.0453 sigma=0.0102  Rmin=1.0322  Rmax=1.0603     4
 O  H  Rav=0.9701 sigma=0.0127  Rmin=0.9520  Rmax=0.9967    11
 S  O  Rav=1.4869 sigma=0.0567  Rmin=1.4458  Rmax=1.5846     4
 
 selected bond angles (degree)
 --------------------
O3-S1-O2=111.33                O4-S1-O2=112.95                O4-S1-O3=112.40                O5-S1-O2=106.55                
O5-S1-O3=106.28                O5-S1-O4=106.81                H6-O5-S1=102.07                H20-O7-H8=102.19               
H11-O9-H10=105.97              
 
 selected dihedral angles (degree)
 ---------------------------------
H6-O5-S1-O2= 59.15            H6-O5-S1-O3=300.32            H6-O5-S1-O4=180.13            
 
 CMA Distance (Angstroems)
 ---------------------------
R(CMA):  3.6343

========================================================================
 FINAL SINGLEPOINT CALCULATION ON OPTIMIZED GEOMETRY
========================================================================

 Ncao       : 65
 Nao        : 64
 Nshell     : 38
 Nel        : 80
 T(el)      :   300.0
 intcut     :    25.0
 scfconv/Eh :  0.100E-05
   qconv/e  :  0.100E-03
 intneglect :  0.100E-07
 broydamp   :      0.250
 iter      E             dE          RMSdq      gap      omega  full diag
   1    -50.7566135 -0.507566E+02  0.277E-05    9.34       0.0  T
   2    -50.7566135 -0.447642E-12  0.178E-05    9.34    1100.3  T
   3    -50.7566135 -0.355271E-12  0.325E-06    9.34    6027.9  T
speedup  1.11
cpu  time for SCC    0.00 s
wall time for SCC    0.00 s

   *** convergence criteria satisfied after 3 iterations ***

          eigenvalues
 #    :          28         29         30         31         32         33         34         35
 occ. :        2.000      2.000      2.000      2.000      2.000      2.000      2.000      2.000
 eps  :       -13.576    -13.199    -12.578    -12.423    -12.351    -12.266    -12.250    -12.096
 #    :          36         37         38         39         40         41         42         43
 occ. :        2.000      2.000      2.000      2.000      2.000      0.000      0.000      0.000
 eps  :       -12.078    -11.841    -11.752    -11.666    -11.543     -2.202     -0.752     -0.313
 #    :          44         45         46         47         48         49         50         51
 occ. :        0.000      0.000      0.000      0.000      0.000      0.000      0.000      0.000
 eps  :         0.929      1.264      1.462      1.875      2.665      3.640      4.029      5.144


   #   Z            q   n(s)   n(p)   n(d)      C6AA      α(0)
   1  16 S      1.637  1.587  1.810  0.966    90.207    15.985
   2   8 O     -0.744  1.773  4.971  0.000    29.946     7.337
   3   8 O     -0.737  1.770  4.967  0.000    29.736     7.311
   4   8 O     -0.723  1.756  4.966  0.000    29.335     7.262
   5   8 O     -0.578  1.749  4.829  0.000    24.626     6.699
   6   1 H      0.342  0.658  0.000  0.000     0.598     1.210
   7   8 O     -0.625  1.749  4.876  0.000    25.793     6.854
   8   1 H      0.326  0.674  0.000  0.000     0.649     1.265
   9   8 O     -0.634  1.745  4.889  0.000    26.022     6.885
  10   1 H      0.286  0.714  0.000  0.000     0.763     1.372
  11   1 H      0.336  0.664  0.000  0.000     0.623     1.240
  12   8 O     -0.603  1.742  4.861  0.000    25.257     6.783
  13   1 H      0.330  0.670  0.000  0.000     0.639     1.255
  14   1 H      0.287  0.713  0.000  0.000     0.761     1.371
  15   8 O     -0.601  1.743  4.858  0.000    25.216     6.777
  16   1 H      0.332  0.668  0.000  0.000     0.632     1.249
  17   1 H      0.286  0.714  0.000  0.000     0.763     1.372
  18   8 O     -0.619  1.749  4.870  0.000    25.649     6.835
  19   1 H      0.312  0.688  0.000  0.000     0.687     1.302
  20   1 H      0.336  0.664  0.000  0.000     0.623     1.240
  21   1 H      0.308  0.692  0.000  0.000     0.698     1.313
  22   7 N     -0.369  1.280  4.088  0.000    29.489     8.065
  23   1 H      0.283  0.717  0.000  0.000     0.765     1.370
  24   1 H      0.271  0.729  0.000  0.000     0.808     1.408
  25   1 H      0.280  0.720  0.000  0.000     0.777     1.381
  26   1 H      0.282  0.718  0.000  0.000     0.771     1.376

 Mol. C6AA /au·bohr⁶  :       5439.280174
 Mol. C8AA /au·bohr⁸  :     117821.733132
 Mol. α(0) /au        :        106.518279

 
 Wiberg/Mayer (AO) data. WBOs > 0.1 written file <wbo>
 largest (>0.05) Wiberg bond orders for each atom
           total WBO             WBO to atom ...
     1  S   4.893    O    4 1.362    O    2 1.306    O    3 1.286    O    5 0.902
     2  O   1.723    S    1 1.306    O    4 0.112    O    3 0.110    H   11 0.086    O    5 0.073
     3  O   1.740    S    1 1.286    O    4 0.112    O    2 0.110    H   23 0.108    O    5 0.072
     4  O   1.735    S    1 1.362    O    2 0.112    O    3 0.112    O    5 0.062
     5  O   1.984    S    1 0.902    H    6 0.866    O    2 0.073    O    3 0.072    O    4 0.062
     6  H   0.883    O    5 0.866
     7  O   1.916    H    8 0.861    H   20 0.825    H   25 0.089
     8  H   0.894    O    7 0.861
     9  O   1.858    H   10 0.909    H   11 0.795    H   24 0.051
    10  H   0.918    O    9 0.909
    11  H   0.887    O    9 0.795    O    2 0.086
    12  O   1.865    H   14 0.914    H   13 0.852    H   16 0.054
    13  H   0.891    O   12 0.852
    14  H   0.918    O   12 0.914
    15  O   1.890    H   17 0.915    H   16 0.834    H   26 0.074
    16  H   0.890    O   15 0.834    O   12 0.054
    17  H   0.918    O   15 0.915
    18  O   1.862    H   21 0.878    H   19 0.869    H   20 0.054
    19  H   0.903    O   18 0.869
    20  H   0.887    O    7 0.825    O   18 0.054
    21  H   0.905    O   18 0.878
    22  N   3.523    H   24 0.872    H   26 0.843    H   25 0.825    H   23 0.803
    23  H   0.920    N   22 0.803    O    3 0.108
    24  H   0.927    N   22 0.872    O    9 0.051
    25  H   0.922    N   22 0.825    O    7 0.089
    26  H   0.921    N   22 0.843    O   15 0.074
 MOs/occ written to file <molden.input>
 
molecular dipole:
                 x           y           z       tot (Debye)
 q only:        0.662       0.479       2.024
   full:        0.916       0.184       1.180       3.826
molecular quadrupole (traceless):
                xx          xy          yy          xz          yz          zz
 q only:        2.436       0.834      -0.716      -6.845      -1.937      -1.720
  q+dip:        0.877       1.185      -1.856     -11.348      -1.098       0.980
   full:        0.690       1.040      -1.687     -11.576      -0.501       0.997

SCC energy    :     -50.7566135
rep           :       0.2947744
ES            :       0.2660758
AES           :      -0.0719776
AXC           :      -0.0085564
disp          :      -0.0181399
XB            :       0.0000000
fix           :       0.0000000
total E       :     -50.4616186
atomizationE  :       4.9919228     3132.48
(atE without considering molecular charge,
 total energy contains solvation terms)
H-L gap (eV)  :          9.3412
optimized geometry written to: xtbopt.xyz


------------------------------------------------------------------------
 * finished run on 2019/09/16 at 11:18:47.936     
------------------------------------------------------------------------
 total:
 * wall-time:     0 d,  0 h,  0 min,  2.139 sec
 *  cpu-time:     0 d,  0 h,  0 min,  2.065 sec
 * ratio c/w:     0.965 speedup
 SCF:
 * wall-time:     0 d,  0 h,  0 min,  0.163 sec
 *  cpu-time:     0 d,  0 h,  0 min,  0.160 sec
 * ratio c/w:     0.984 speedup
 ANC optimizer:
 * wall-time:     0 d,  0 h,  0 min,  1.946 sec
 *  cpu-time:     0 d,  0 h,  0 min,  1.879 sec
 * ratio c/w:     0.966 speedup

