      -----------------------------------------------------------      
     |                   =====================                   |     
     |                           x T B                           |     
     |                   =====================                   |     
     |                         S. Grimme                         |     
     |          Mulliken Center for Theoretical Chemistry        |     
     |                    University of Bonn                     |     
     |                 Version 6.0.1 (SAW181210)                 |     
      -----------------------------------------------------------      

   This program is distributed in the hope that it will be useful,
   but WITHOUT ANY WARRANTY; without even the implied warranty of
   MERCHANTABILITY or FITNESS FOR A PARTICULAR PURPOSE.
   
   FOR NON-COMMERCIAL, ACADEMIA USE ONLY.
   
   Cite this work as:
   S. Grimme, C. Bannwarth, P. Shushkov, J. Comput. Theory Chem., 2017,
   13, 1989-2009.
   C. Bannwarth, S. Ehlert and S. Grimme., ChemRxiv, 2018, preprint.
   http://doi.org/10.26434/chemrxiv.7246238.v1
   
   for sTDA-xTB:
   S. Grimme and C. Bannwarth, J. Chem. Phys., 2016, 145, 054103.
   
   in the mass-spec context:
   V. Asgeirsson, C. Bauer and S. Grimme, Chem. Sci., 2017, 8, 4879.
   
   if GBSA is used:
   P. Shushkov, F. März and S. Grimme, unpublished.
   
   for ANC optimizer:
   S. Grimme, unpublished.
   Rational Function algorithm used in ANCopt:
   F. Eckert, P. Pulay, H.-J. Werner, J. Comput. Chem., 1997, 18, 1473.
   
   with help from (in alphabetical order)
   C. Bannwarth, F. Bohle, G. Brandenburg, E. Caldeweyher, M. Checinski,
   S. Dohm, S. Ehlert, S. Ehrlich, F. März, H. Neugebauer, J. Pisarek,
   P. Pracht, P. Shushkov, and S. Spicher.
   
 * started run on 2019/09/16 at 11:40:32.181     
========================================================================
 # omp threads = 1
========================================================================
number of atoms            : 26
number of electrons        : 80
charge                     : 0
spin                       : .0
first test random number   : .8623

########################################################################
# WARNING! Please study the warnings concerning your input carefully
#  - XTBPATH is not set, using XTBHOME instead
#  - the use of '-opt' is discouraged, please use '--opt' next time
#  - the use of '-chrg' is discouraged, please use '--chrg' next time
#  - the use of '-uhf' is discouraged, please use '--uhf' next time
########################################################################

           ------------------------------------------------- 
          |                 G F N 2 - x T B                 |
          | Geometry, Frequencies, Noncovalent interactions |
          |            JCTC 2018 parametrisation            |
           ------------------------------------------------- 
      method parameters     
 k(s)        :  1.8500
 k(p)        :  2.2300
 k(d)        :  2.2300
 k(f)        :  2.0000
 kEN (H0ij)  : -2.0000
 D4 a1       :  0.5200
 D4 a2       :  5.0000
 D4 s6       :  1.0000
 D4 s8       :  2.7000
 D4 s9       :  5.0000
 alphaj      :  2.0000


            Z     q(EN)     CN     RAES       Cart. coordinates
     1  S   6.0    0.64    4.26    4.16     3.74473    -3.06222     0.64820
     2  O   6.0   -0.31    1.19    1.80     3.90306    -0.46087    -0.41763
     3  O   6.0   -0.31    1.21    1.80     2.44486    -2.97625     3.14441
     4  O   6.0   -0.30    1.24    1.80     2.29009    -4.71045    -1.11120
     5  O   6.0   -0.24    2.08    1.84     6.30536    -4.08709     0.97273
     6  H   1.0    0.15    1.21    1.47     7.24330    -3.02569     2.10621
     7  O   6.0   -0.42    1.72    1.81    -3.20233     0.24149    -1.00102
     8  H   1.0    0.17    0.95    1.42    -4.91613     0.98030    -0.97263
     9  O   6.0   -0.28    1.98    1.82    -1.91342     1.18439    -5.54028
    10  H   1.0    0.16    1.09    1.44    -2.60391     1.07164    -3.85947
    11  H   1.0    0.15    0.97    1.43    -0.85497     2.66565    -5.52759
    12  O   6.0   -0.29    2.02    1.83    -0.13870     5.04229     3.76808
    13  H   1.0    0.16    1.04    1.43     0.17610     4.73320     2.00174
    14  H   1.0    0.15    0.97    1.43     0.48023     6.72581     4.08003
    15  O   6.0   -0.30    2.05    1.83     0.46688     3.25725    -0.87706
    16  H   1.0    0.17    1.11    1.45    -0.98861     2.16980    -0.99378
    17  H   1.0    0.18    1.03    1.43     1.90531     2.14175    -0.91182
    18  O   6.0   -0.22    2.92    2.58    -1.82773    -3.39978    -3.35220
    19  H   1.0    0.13    0.98    1.43    -1.49991    -2.72431    -5.06279
    20  H   1.0    0.16    1.08    1.44    -0.30816    -4.19289    -2.60930
    21  H   1.0    0.16    1.19    1.46    -2.56651    -2.10936    -2.22059
    22  N   5.0   -0.15    3.96    2.76    -1.62790     0.10707     3.54719
    23  H   1.0    0.11    1.05    1.44    -1.06291     1.91372     3.99579
    24  H   1.0    0.12    1.08    1.44    -0.09895    -1.09220     3.63932
    25  H   1.0    0.09    0.99    1.43    -2.98848    -0.47879     4.80816
    26  H   1.0    0.12    1.15    1.45    -2.36128     0.08555     1.74549

  Z AO/shell   Hii/eV     exponent
  1     Wed Apr 25 08:07:45 CEST 2018   EN: 2.200 GM2: 0.406  GM3: 0.0800  RAES: 1.40
     1s    -10.707211    1.230000
  7     Wed Apr 25 08:07:45 CEST 2018   EN: 3.040 GM2: 0.461  GM3:-0.0640  RAES: 1.90
     2s    -16.686243    2.339881
     2p    -12.523956    2.014332
  8     Wed Apr 25 08:07:45 CEST 2018   EN: 3.440 GM2: 0.452  GM3:-0.0517  RAES: 1.80
     2s    -20.229985    2.439742
     2p    -15.503117    2.137023
 16     Tue Apr 24 11:44:34 CEST 2018   EN: 2.580 GM2: 0.340  GM3:-0.0502  RAES: 3.10
     3s    -20.029654    1.981333
     3p    -11.377694    2.025643
     3d     -0.420282    1.702555
 no old-style atom pair restraining (fixing) potential

molecular fragmentation (1/2 indicates fragments):
11111122222222222222222222
# atoms in fragment 1/2:     6    20
 fragment masses (1/2) :       97.07      108.11
CMA distance (Bohr)    :   6.699
constraining FC (au)   :  0.0500
           ------------------------------------------------- 
          |        Self-Consistent Charge Iterations        |
           ------------------------------------------------- 

 Ncao       : 65
 Nao        : 64
 Nshell     : 38
 Nel        : 80
 T(el)      :   300.0
 intcut     :    25.0
 scfconv/Eh :  0.100E-05
   qconv/e  :  0.100E-03
 intneglect :  0.100E-07
 broydamp   :      0.250
 iter      E             dE          RMSdq      gap      omega  full diag
   1    -50.5908159 -0.505908E+02  0.705E+00   10.32       0.0  T
   2    -50.6403620 -0.495461E-01  0.509E+00    9.83       1.0  T
   3    -50.6797457 -0.393837E-01  0.134E+00    8.45       1.0  T
   4    -50.6843866 -0.464095E-02  0.588E-01    8.78       1.0  T
   5    -50.6850762 -0.689602E-03  0.309E-01    8.79       1.0  T
   6    -50.6854912 -0.414945E-03  0.135E-01    8.81       1.0  T
   7    -50.6855924 -0.101212E-03  0.469E-02    8.83       1.0  T
   8    -50.6856027 -0.102863E-04  0.289E-02    8.82       1.0  T
   9    -50.6856071 -0.445765E-05  0.125E-02    8.82       1.6  T
  10    -50.6856081 -0.987753E-06  0.218E-03    8.82       9.0  T
  11    -50.6856081 -0.146485E-07  0.111E-03    8.82      17.6  T
  12    -50.6856081 -0.582040E-08  0.345E-04    8.82      56.9  T
  13    -50.6856081 -0.524466E-09  0.124E-04    8.82     158.6  T
speedup  1.01
cpu  time for SCC    0.02 s
wall time for SCC    0.02 s

   *** convergence criteria satisfied after 13 iterations ***

          eigenvalues
 #    :          28         29         30         31         32         33         34         35
 occ. :        2.000      2.000      2.000      2.000      2.000      2.000      2.000      2.000
 eps  :       -12.769    -12.555    -11.855    -11.846    -11.571    -11.277    -11.220    -11.009
 #    :          36         37         38         39         40         41         42         43
 occ. :        2.000      2.000      2.000      2.000      2.000      0.000      0.000      0.000
 eps  :       -10.905    -10.858    -10.797    -10.697    -10.657     -1.840     -0.623     -0.181
 #    :          44         45         46         47         48         49         50         51
 occ. :        0.000      0.000      0.000      0.000      0.000      0.000      0.000      0.000
 eps  :         0.178      1.268      1.540      2.440      2.665      3.917      4.466      5.387


   #   Z            q   n(s)   n(p)   n(d)      C6AA      α(0)
   1  16 S      1.585  1.584  1.847  0.984    91.426    16.093
   2   8 O     -0.751  1.777  4.974  0.000    30.140     7.361
   3   8 O     -0.757  1.772  4.985  0.000    30.314     7.382
   4   8 O     -0.735  1.762  4.973  0.000    29.671     7.303
   5   8 O     -0.542  1.718  4.824  0.000    23.811     6.587
   6   1 H      0.359  0.641  0.000  0.000     0.560     1.171
   7   8 O     -0.845  1.836  5.009  0.000    32.970     7.699
   8   1 H      0.224  0.776  0.000  0.000     1.003     1.574
   9   8 O     -0.657  1.754  4.903  0.000    26.595     6.960
  10   1 H      0.324  0.676  0.000  0.000     0.653     1.269
  11   1 H      0.282  0.718  0.000  0.000     0.776     1.384
  12   8 O     -0.628  1.736  4.892  0.000    25.865     6.864
  13   1 H      0.335  0.665  0.000  0.000     0.625     1.242
  14   1 H      0.278  0.722  0.000  0.000     0.792     1.398
  15   8 O     -0.683  1.761  4.922  0.000    27.255     7.046
  16   1 H      0.325  0.675  0.000  0.000     0.649     1.265
  17   1 H      0.316  0.684  0.000  0.000     0.676     1.291
  18   8 O     -0.434  1.651  4.783  0.000    21.465     6.257
  19   1 H      0.394  0.606  0.000  0.000     0.496     1.107
  20   1 H      0.407  0.593  0.000  0.000     0.472     1.080
  21   1 H      0.413  0.587  0.000  0.000     0.456     1.057
  22   7 N     -0.324  1.264  4.060  0.000    28.321     7.904
  23   1 H      0.295  0.705  0.000  0.000     0.727     1.336
  24   1 H      0.291  0.709  0.000  0.000     0.740     1.347
  25   1 H      0.223  0.777  0.000  0.000     0.996     1.564
  26   1 H      0.305  0.695  0.000  0.000     0.697     1.307

 Mol. C6AA /au·bohr⁶  :       5485.046190
 Mol. C8AA /au·bohr⁸  :     119016.002654
 Mol. α(0) /au        :        106.847603

 
 Wiberg/Mayer (AO) data. WBOs > 0.1 written file <wbo>
 largest (>0.05) Wiberg bond orders for each atom
           total WBO             WBO to atom ...
     1  S   4.931    O    2 1.315    O    4 1.302    O    3 1.280    O    5 0.996
     2  O   1.674    S    1 1.315    O    3 0.117    O    4 0.114    O    5 0.074
     3  O   1.689    S    1 1.280    O    2 0.117    O    4 0.110    H   24 0.075    O    5 0.071
     4  O   1.719    S    1 1.302    O    2 0.114    O    3 0.110    H   20 0.096    O    5 0.051
     5  O   2.047    S    1 0.996    H    6 0.847    O    2 0.074    O    3 0.071    O    4 0.051
     6  H   0.871    O    5 0.847
     7  O   1.644    H    8 0.939    H   21 0.181    H   26 0.144    H   16 0.090    H   10 0.080    N   22 0.065    O   18 0.057
     8  H   0.950    O    7 0.939
     9  O   1.797    H   11 0.913    H   10 0.804
    10  H   0.895    O    9 0.804    O    7 0.080
    11  H   0.920    O    9 0.913
    12  O   1.829    H   14 0.909    H   13 0.819
    13  H   0.888    O   12 0.819    O   15 0.067
    14  H   0.923    O   12 0.909
    15  O   1.833    H   17 0.858    H   16 0.795    H   13 0.067
    16  H   0.894    O   15 0.795    O    7 0.090
    17  H   0.900    O   15 0.858
    18  O   2.303    H   19 0.820    H   20 0.729    H   21 0.640    O    7 0.057
    19  H   0.845    O   18 0.820
    20  H   0.834    O   18 0.729    O    4 0.096
    21  H   0.829    O   18 0.640    O    7 0.181
    22  N   3.536    H   25 0.946    H   23 0.857    H   24 0.833    H   26 0.755    O    7 0.065
    23  H   0.913    N   22 0.857
    24  H   0.915    N   22 0.833    O    3 0.075
    25  H   0.950    N   22 0.946
    26  H   0.907    N   22 0.755    O    7 0.144
 MOs/occ written to file <molden.input>
 
molecular dipole:
                 x           y           z       tot (Debye)
 q only:       -1.516       0.073       1.064
   full:       -0.837       0.203       1.282       3.926
molecular quadrupole (traceless):
                xx          xy          yy          xz          yz          zz
 q only:        3.498       7.228      -7.625      -0.955       8.242       4.127
  q+dip:        9.142       3.080      -8.218      -0.328       6.053      -0.925
   full:        9.505       3.139      -8.410      -0.354       6.226      -1.095

SCC energy    :     -50.6856081
rep           :       0.2955874
ES            :       0.3178201
AES           :      -0.0738391
AXC           :      -0.0090499
disp          :      -0.0182382
XB            :       0.0000000
fix           :       0.0000000
total E       :     -50.3896909
atomizationE  :       4.9199951     3087.34
(atE without considering molecular charge,
 total energy contains solvation terms)
H-L gap (eV)  :          8.8176
           ------------------------------------------------- 
          |                 ===============                 |
          |                   A N C O P T                   |
          |                 ===============                 |
          |          Approximate Normal Coordinate          |
          |           Rational Function Optimizer           |
           ------------------------------------------------- 
dumping coords to <xtbopt.coord> and <xtbopt.log>
 optlevel               2
 Maxcycle             520
 Maxmicro              25
 Econv         1.000000000000000E-007
 Gconv         2.000000000000000E-004
 Maxdispl       1.00000000000000     
 Hlow          5.000000000000000E-003
 S6             20.0000000000000     
 Nvar               72

generating ANC from model Hessian ...
 Shifting diagonal of input Hessian by   7.426283626231532E-003
 Lowest  eigenvalues of input Hessian
    0.005000   -0.000000   -0.000000   -0.000000   -0.000000    0.000000
    0.000000    0.007473    0.007726    0.008080    0.008591    0.008907
    0.009474    0.009887    0.010387    0.011025    0.011387    0.012218
 Highest eigenvalues
    1.457331    1.559842    1.586431    3.145087    3.215808    3.322586
 
cpu  time for ANC gen    0.02 s
wall time for ANC gen    0.02 s
................................................................................
.............................. CYCLE    1 ......................................
................................................................................
   1    -50.6856081 -0.506856E+02  0.761E-05    8.82       0.0  T
   2    -50.6856081 -0.117595E-10  0.584E-05    8.82     336.0  T
   3    -50.6856081 -0.130669E-10  0.253E-05    8.82     775.6  T
speedup  0.65
cpu  time for SCC    0.00 s
wall time for SCC    0.00 s
speedup  0.93
cpu  time for grad    0.01 s
wall time for grad    0.01 s
 E :    -50.38969090  G :  0.197425    pred/act E change:  0.000D+00  0.443D-07
Maxdispl :   0.1119   ||displ|| :   0.3318   Lambda : -0.287D-01
Largest |displ|/coords:  0.1119 (  28)  0.1038 (  23)  0.1031 (   9)
................................................................................
.............................. CYCLE    2 ......................................
................................................................................
   1    -50.6922102 -0.506922E+02  0.285E-01    8.83       0.0  T
   2    -50.6924090 -0.198839E-03  0.213E-01    8.87       1.0  T
   3    -50.6924982 -0.891598E-04  0.866E-02    8.88       1.0  T
   4    -50.6925090 -0.108542E-04  0.201E-02    8.88       1.0  T
   5    -50.6925098 -0.807250E-06  0.474E-03    8.89       4.1  T
   6    -50.6925099 -0.324969E-07  0.299E-03    8.89       6.6  T
speedup  1.03
cpu  time for SCC    0.01 s
wall time for SCC    0.01 s
speedup  1.01
cpu  time for grad    0.01 s
wall time for grad    0.01 s
 E :    -50.41168269  G :  0.119126    pred/act E change:  0.000D+00 -0.220D-01
Maxdispl :   0.1493   ||displ|| :   0.3251   Lambda : -0.128D-01
Largest |displ|/coords:  0.1493 (  31)  0.1160 (  23)  0.0979 (   9)
................................................................................
.............................. CYCLE    3 ......................................
................................................................................
   1    -50.6965852 -0.506966E+02  0.219E-01    8.92       0.0  T
   2    -50.6967355 -0.150291E-03  0.165E-01    8.93       1.0  T
   3    -50.6967970 -0.615142E-04  0.737E-02    8.96       1.0  T
   4    -50.6968037 -0.665147E-05  0.164E-02    8.95       1.2  T
   5    -50.6968041 -0.474756E-06  0.380E-03    8.95       5.2  T
   6    -50.6968042 -0.243041E-07  0.228E-03    8.95       8.6  T
speedup  1.05
cpu  time for SCC    0.01 s
wall time for SCC    0.01 s
speedup  1.01
cpu  time for grad    0.01 s
wall time for grad    0.01 s
 E :    -50.42198655  G :  0.076023    pred/act E change: -0.159D-01 -0.103D-01
Maxdispl :   0.1114   ||displ|| :   0.3074   Lambda : -0.672D-02
Largest |displ|/coords:  0.1114 (  31)  0.1067 (  14)  0.0964 (   3)
................................................................................
.............................. CYCLE    4 ......................................
................................................................................
   1    -50.6992479 -0.506992E+02  0.207E-01    8.97       0.0  T
   2    -50.6993741 -0.126183E-03  0.154E-01    9.00       1.0  T
   3    -50.6994243 -0.502382E-04  0.616E-02    9.04       1.0  T
   4    -50.6994308 -0.652992E-05  0.147E-02    9.03       1.3  T
   5    -50.6994312 -0.357769E-06  0.350E-03    9.03       5.6  T
   6    -50.6994312 -0.191952E-07  0.192E-03    9.03      10.2  T
speedup  1.07
cpu  time for SCC    0.01 s
wall time for SCC    0.01 s
speedup  1.03
cpu  time for grad    0.01 s
wall time for grad    0.01 s
 E :    -50.42737808  G :  0.048151    pred/act E change: -0.706D-02 -0.539D-02
Maxdispl :   0.1692   ||displ|| :   0.4307   Lambda : -0.685D-02
Largest |displ|/coords:  0.1692 (   3)  0.1348 (  14)  0.1301 (  20)
................................................................................
.............................. CYCLE    5 ......................................
................................................................................
   1    -50.7004713 -0.507005E+02  0.376E-01    9.01       0.0  T
   2    -50.7008334 -0.362107E-03  0.277E-01    9.07       1.0  T
   3    -50.7009758 -0.142322E-03  0.971E-02    9.16       1.0  T
   4    -50.7010016 -0.258106E-04  0.252E-02    9.15       1.0  T
   5    -50.7010026 -0.105107E-05  0.639E-03    9.15       3.1  T
   6    -50.7010027 -0.509940E-07  0.326E-03    9.15       6.0  T
   7    -50.7010027 -0.209481E-07  0.121E-03    9.15      16.2  T
speedup  0.95
cpu  time for SCC    0.01 s
wall time for SCC    0.01 s
speedup  0.99
cpu  time for grad    0.01 s
wall time for grad    0.01 s
 E :    -50.43180645  G :  0.032529    pred/act E change: -0.368D-02 -0.443D-02
Maxdispl :   0.1873   ||displ|| :   0.4316   Lambda : -0.380D-02
Largest |displ|/coords:  0.1873 (   1)  0.1707 (  11)  0.1563 (   4)
................................................................................
.............................. CYCLE    6 ......................................
................................................................................
   1    -50.7056059 -0.507056E+02  0.413E-01    9.07       0.0  T
   2    -50.7058270 -0.221108E-03  0.309E-01    9.10       1.0  T
   3    -50.7059123 -0.852696E-04  0.777E-02    9.14       1.0  T
   4    -50.7059433 -0.309733E-04  0.219E-02    9.14       1.0  T
   5    -50.7059442 -0.918697E-06  0.614E-03    9.14       3.2  T
   6    -50.7059442 -0.323135E-07  0.307E-03    9.14       6.4  T
   7    -50.7059443 -0.134020E-07  0.960E-04    9.14      20.4  T
speedup  0.94
cpu  time for SCC    0.01 s
wall time for SCC    0.01 s
speedup  1.03
cpu  time for grad    0.01 s
wall time for grad    0.01 s
 E :    -50.43325959  G :  0.043938    pred/act E change: -0.406D-02 -0.145D-02
Maxdispl :   0.1350   ||displ|| :   0.3437   Lambda : -0.389D-02
Largest |displ|/coords:  0.1350 (   3)  0.1222 (  13)  0.0997 (   4)
................................................................................
.............................. CYCLE    7 ......................................
................................................................................
   1    -50.7120543 -0.507121E+02  0.358E-01    9.03       0.0  T
   2    -50.7122113 -0.156975E-03  0.268E-01    9.04       1.0  T
   3    -50.7122811 -0.698138E-04  0.642E-02    9.06       1.0  T
   4    -50.7123051 -0.239675E-04  0.152E-02    9.05       1.3  T
   5    -50.7123053 -0.287240E-06  0.523E-03    9.05       3.7  T
   6    -50.7123054 -0.231767E-07  0.256E-03    9.05       7.7  T
speedup  0.91
cpu  time for SCC    0.01 s
wall time for SCC    0.01 s
speedup  0.95
cpu  time for grad    0.01 s
wall time for grad    0.01 s
 E :    -50.43602776  G :  0.047265    pred/act E change: -0.225D-02 -0.277D-02
Maxdispl :   0.1403   ||displ|| :   0.4239   Lambda : -0.439D-02
Largest |displ|/coords:  0.1403 (  27)  0.1396 (   3)  0.1326 (  13)
................................................................................
.............................. CYCLE    8 ......................................
................................................................................
   1    -50.7133336 -0.507133E+02  0.398E-01    8.93       0.0  T
   2    -50.7135733 -0.239622E-03  0.295E-01    8.93       1.0  T
   3    -50.7136951 -0.121791E-03  0.815E-02    8.92       1.0  T
   4    -50.7137237 -0.286540E-04  0.146E-02    8.92       1.3  T
   5    -50.7137241 -0.362479E-06  0.746E-03    8.92       2.6  T
   6    -50.7137241 -0.512784E-07  0.322E-03    8.92       6.1  T
   7    -50.7137241 -0.195635E-07  0.691E-04    8.92      28.4  T
speedup  1.04
cpu  time for SCC    0.01 s
wall time for SCC    0.01 s
speedup  1.02
cpu  time for grad    0.01 s
wall time for grad    0.01 s
 E :    -50.43921747  G :  0.054448    pred/act E change: -0.217D-02 -0.319D-02
Maxdispl :   0.0893   ||displ|| :   0.2850   Lambda : -0.469D-02
Largest |displ|/coords:  0.0893 (   3)  0.0816 (   8)  0.0779 (   7)
................................................................................
.............................. CYCLE    9 ......................................
................................................................................
   1    -50.7312476 -0.507312E+02  0.309E-01    8.91       0.0  T
   2    -50.7313173 -0.697315E-04  0.233E-01    8.90       1.0  T
   3    -50.7313617 -0.444474E-04  0.461E-02    8.89       1.0  T
   4    -50.7313717 -0.993382E-05  0.127E-02    8.89       1.5  T
   5    -50.7313719 -0.268446E-06  0.486E-03    8.89       4.0  T
   6    -50.7313720 -0.154376E-07  0.231E-03    8.89       8.5  T
speedup  1.02
cpu  time for SCC    0.01 s
wall time for SCC    0.01 s
speedup  0.92
cpu  time for grad    0.01 s
wall time for grad    0.01 s
 E :    -50.44147970  G :  0.051807    pred/act E change: -0.259D-02 -0.226D-02
Maxdispl :   0.1394   ||displ|| :   0.3342   Lambda : -0.479D-02
Largest |displ|/coords:  0.1394 (  10)  0.1111 (   9)  0.1011 (   3)
................................................................................
.............................. CYCLE   10 ......................................
................................................................................
   1    -50.7216034 -0.507216E+02  0.373E-01    8.94       0.0  T
   2    -50.7216901 -0.867317E-04  0.280E-01    8.93       1.0  T
   3    -50.7217461 -0.559220E-04  0.520E-02    8.91       1.0  T
   4    -50.7217582 -0.121194E-04  0.149E-02    8.92       1.3  T
   5    -50.7217585 -0.359569E-06  0.547E-03    8.92       3.6  T
   6    -50.7217586 -0.367787E-07  0.310E-03    8.92       6.3  T
speedup  1.09
cpu  time for SCC    0.01 s
wall time for SCC    0.01 s
speedup  1.03
cpu  time for grad    0.01 s
wall time for grad    0.01 s
 E :    -50.44312285  G :  0.050393    pred/act E change: -0.254D-02 -0.164D-02
Maxdispl :   0.1345   ||displ|| :   0.3641   Lambda : -0.678D-02
Largest |displ|/coords:  0.1345 (  14)  0.1215 (  10)  0.1048 (   6)
................................................................................
.............................. CYCLE   11 ......................................
................................................................................
   1    -50.7323883 -0.507324E+02  0.512E-01    8.97       0.0  T
   2    -50.7324667 -0.783012E-04  0.390E-01    8.96       1.0  T
   3    -50.7325460 -0.793133E-04  0.439E-02    8.95       1.0  T
   4    -50.7325523 -0.634627E-05  0.156E-02    8.95       1.3  T
   5    -50.7325526 -0.273446E-06  0.566E-03    8.95       3.5  T
   6    -50.7325526 -0.450105E-07  0.254E-03    8.95       7.7  T
speedup  0.89
cpu  time for SCC    0.00 s
wall time for SCC    0.01 s
speedup  0.95
cpu  time for grad    0.01 s
wall time for grad    0.01 s
 E :    -50.44287295  G :  0.075829    pred/act E change: -0.266D-02  0.250D-03
Maxdispl :   0.1446   ||displ|| :   0.3451   Lambda : -0.789D-02
Largest |displ|/coords:  0.1446 (  14)  0.1145 (  27)  0.0980 (  30)
................................................................................
.............................. CYCLE   12 ......................................
................................................................................
   1    -50.7346888 -0.507347E+02  0.501E-01    9.09       0.0  T
   2    -50.7348411 -0.152324E-03  0.381E-01    9.08       1.0  T
   3    -50.7349444 -0.103246E-03  0.665E-02    9.05       1.0  T
   4    -50.7349669 -0.225533E-04  0.254E-02    9.06       1.0  T
   5    -50.7349681 -0.118564E-05  0.747E-03    9.06       2.6  T
   6    -50.7349682 -0.592888E-07  0.410E-03    9.06       4.8  T
   7    -50.7349682 -0.314567E-07  0.122E-03    9.06      16.1  T
speedup  1.08
cpu  time for SCC    0.01 s
wall time for SCC    0.01 s
speedup  1.03
cpu  time for grad    0.01 s
wall time for grad    0.01 s
 E :    -50.44400324  G :  0.056530    pred/act E change: -0.384D-02 -0.113D-02
Maxdispl :   0.1771   ||displ|| :   0.4511   Lambda : -0.766D-02
Largest |displ|/coords:  0.1771 (  27)  0.1573 (  23)  0.1513 (  30)
................................................................................
.............................. CYCLE   13 ......................................
................................................................................
   1    -50.7349827 -0.507350E+02  0.458E-01    8.94       0.0  T
   2    -50.7353971 -0.414430E-03  0.342E-01    8.95       1.0  T
   3    -50.7356306 -0.233477E-03  0.113E-01    8.98       1.0  T
   4    -50.7356682 -0.376692E-04  0.356E-02    8.97       1.0  T
   5    -50.7356711 -0.290880E-05  0.106E-02    8.97       1.8  T
   6    -50.7356712 -0.920516E-07  0.584E-03    8.97       3.4  T
   7    -50.7356713 -0.381459E-07  0.150E-03    8.97      13.0  T
speedup  0.91
cpu  time for SCC    0.01 s
wall time for SCC    0.01 s
speedup  0.95
cpu  time for grad    0.01 s
wall time for grad    0.01 s
 E :    -50.44339022  G :  0.067187    pred/act E change: -0.442D-02  0.613D-03
Maxdispl :   0.1427   ||displ|| :   0.4628   Lambda : -0.135D-01
Largest |displ|/coords:  0.1427 (  30)  0.1357 (  20)  0.1328 (  33)
................................................................................
.............................. CYCLE   14 ......................................
................................................................................
   1    -50.7228526 -0.507229E+02  0.463E-01    9.15       0.0  T
   2    -50.7237005 -0.847831E-03  0.338E-01    9.13       1.0  T
   3    -50.7241173 -0.416798E-03  0.143E-01    9.09       1.0  T
   4    -50.7241630 -0.457141E-04  0.462E-02    9.10       1.0  T
   5    -50.7241676 -0.463807E-05  0.140E-02    9.10       1.4  T
   6    -50.7241679 -0.270708E-06  0.742E-03    9.10       2.6  T
   7    -50.7241680 -0.802732E-07  0.230E-03    9.10       8.5  T
   8    -50.7241680 -0.441158E-08  0.549E-04    9.10      35.7  T
speedup  0.80
cpu  time for SCC    0.01 s
wall time for SCC    0.01 s
speedup  0.90
cpu  time for grad    0.01 s
wall time for grad    0.02 s
 E :    -50.44325486  G :  0.051303    pred/act E change: -0.461D-02  0.135D-03
Maxdispl :   0.1194   ||displ|| :   0.3817   Lambda : -0.885D-02
Largest |displ|/coords:  0.1194 (   3)  0.1120 (  21)  0.0990 (  23)
................................................................................
.............................. CYCLE   15 ......................................
................................................................................
   1    -50.7413081 -0.507413E+02  0.363E-01    9.01       0.0  T
   2    -50.7417173 -0.409194E-03  0.271E-01    9.03       1.0  T
   3    -50.7419383 -0.220988E-03  0.107E-01    9.06       1.0  T
   4    -50.7419626 -0.243141E-04  0.353E-02    9.05       1.0  T
   5    -50.7419651 -0.244425E-05  0.988E-03    9.05       2.0  T
   6    -50.7419652 -0.110343E-06  0.500E-03    9.05       3.9  T
   7    -50.7419652 -0.352712E-07  0.149E-03    9.05      13.2  T
speedup  1.04
cpu  time for SCC    0.01 s
wall time for SCC    0.01 s
speedup  1.03
cpu  time for grad    0.01 s
wall time for grad    0.01 s
 E :    -50.44590094  G :  0.037222    pred/act E change: -0.822D-02 -0.265D-02
Maxdispl :   0.0496   ||displ|| :   0.1541   Lambda : -0.289D-02
Largest |displ|/coords:  0.0496 (   5)  0.0464 (  29)  0.0440 (  14)
................................................................................
.............................. CYCLE   16 ......................................
................................................................................
   1    -50.7337932 -0.507338E+02  0.183E-01    9.10       0.0  T
   2    -50.7338260 -0.328116E-04  0.139E-01    9.10       1.0  T
   3    -50.7338455 -0.195127E-04  0.312E-02    9.08       1.0  T
   4    -50.7338496 -0.416415E-05  0.134E-02    9.09       1.5  T
   5    -50.7338499 -0.254010E-06  0.293E-03    9.09       6.7  T
   6    -50.7338499 -0.134973E-07  0.161E-03    9.09      12.2  T
speedup  0.91
cpu  time for SCC    0.00 s
wall time for SCC    0.01 s
speedup  0.97
cpu  time for grad    0.01 s
wall time for grad    0.01 s
 E :    -50.44689958  G :  0.021634    pred/act E change: -0.507D-02 -0.999D-03
Maxdispl :   0.0610   ||displ|| :   0.1522   Lambda : -0.949D-03
Largest |displ|/coords:  0.0610 (   3)  0.0501 (   4)  0.0420 (   5)
................................................................................
.............................. CYCLE   17 ......................................
................................................................................
   1    -50.7351437 -0.507351E+02  0.162E-01    9.11       0.0  T
   2    -50.7351602 -0.165167E-04  0.121E-01    9.10       1.0  T
   3    -50.7351703 -0.100659E-04  0.233E-02    9.10       1.0  T
   4    -50.7351724 -0.213401E-05  0.790E-03    9.10       2.5  T
   5    -50.7351725 -0.126149E-06  0.239E-03    9.10       8.2  T
   6    -50.7351725 -0.451939E-08  0.135E-03    9.10      14.5  T
speedup  1.07
cpu  time for SCC    0.01 s
wall time for SCC    0.01 s
speedup  0.96
cpu  time for grad    0.01 s
wall time for grad    0.01 s
 E :    -50.44710392  G :  0.028814    pred/act E change: -0.148D-02 -0.204D-03
Maxdispl :   0.0585   ||displ|| :   0.1366   Lambda : -0.978D-03
Largest |displ|/coords:  0.0585 (   4)  0.0436 (  11)  0.0394 (   5)
................................................................................
.............................. CYCLE   18 ......................................
................................................................................
   1    -50.7385254 -0.507385E+02  0.139E-01    9.12       0.0  T
   2    -50.7385372 -0.118571E-04  0.104E-01    9.12       1.0  T
   3    -50.7385454 -0.820205E-05  0.193E-02    9.11       1.0  T
   4    -50.7385470 -0.152978E-05  0.544E-03    9.11       3.6  T
   5    -50.7385470 -0.399291E-07  0.213E-03    9.11       9.2  T
speedup  1.04
cpu  time for SCC    0.00 s
wall time for SCC    0.00 s
speedup  1.02
cpu  time for grad    0.01 s
wall time for grad    0.01 s
 E :    -50.44753867  G :  0.015911    pred/act E change: -0.486D-03 -0.435D-03
Maxdispl :   0.0750   ||displ|| :   0.1613   Lambda : -0.658D-03
Largest |displ|/coords:  0.0750 (   2)  0.0743 (   5)  0.0419 (  24)
................................................................................
.............................. CYCLE   19 ......................................
................................................................................
   1    -50.7391785 -0.507392E+02  0.109E-01    9.12       0.0  T
   2    -50.7391896 -0.110765E-04  0.812E-02    9.12       1.0  T
   3    -50.7391957 -0.617656E-05  0.189E-02    9.13       1.0  T
   4    -50.7391971 -0.140566E-05  0.452E-03    9.12       4.3  T
   5    -50.7391972 -0.460373E-07  0.197E-03    9.12      10.0  T
   6    -50.7391972 -0.363671E-08  0.102E-03    9.12      19.2  T
speedup  1.07
cpu  time for SCC    0.01 s
wall time for SCC    0.01 s
speedup  1.03
cpu  time for grad    0.01 s
wall time for grad    0.01 s
 E :    -50.44788243  G :  0.010731    pred/act E change: -0.498D-03 -0.344D-03
Maxdispl :   0.1216   ||displ|| :   0.2169   Lambda : -0.487D-03
Largest |displ|/coords:  0.1216 (   5)  0.0966 (   2)  0.0728 (   3)
................................................................................
.............................. CYCLE   20 ......................................
................................................................................
   1    -50.7369708 -0.507370E+02  0.126E-01    9.15       0.0  T
   2    -50.7369734 -0.255313E-05  0.942E-02    9.15       1.0  T
   3    -50.7369752 -0.185135E-05  0.998E-03    9.15       2.0  T
   4    -50.7369756 -0.335832E-06  0.451E-03    9.15       4.3  T
   5    -50.7369756 -0.225540E-07  0.113E-03    9.15      17.3  T
   6    -50.7369756 -0.153153E-08  0.711E-04    9.15      27.6  T
speedup  0.86
cpu  time for SCC    0.01 s
wall time for SCC    0.01 s
speedup  0.94
cpu  time for grad    0.01 s
wall time for grad    0.01 s
 E :    -50.44823118  G :  0.010912    pred/act E change: -0.338D-03 -0.349D-03
Maxdispl :   0.1852   ||displ|| :   0.3577   Lambda : -0.658D-03
Largest |displ|/coords:  0.1852 (   5)  0.1731 (   2)  0.0965 (   6)
................................................................................
.............................. CYCLE   21 ......................................
................................................................................
   1    -50.7388725 -0.507389E+02  0.182E-01    9.19       0.0  T
   2    -50.7388794 -0.683456E-05  0.137E-01    9.18       1.0  T
   3    -50.7388846 -0.521508E-05  0.165E-02    9.18       1.2  T
   4    -50.7388855 -0.875186E-06  0.840E-03    9.18       2.3  T
   5    -50.7388855 -0.677405E-07  0.177E-03    9.18      11.1  T
   6    -50.7388855 -0.309436E-08  0.116E-03    9.18      16.9  T
speedup  0.88
cpu  time for SCC    0.00 s
wall time for SCC    0.01 s
speedup  0.96
cpu  time for grad    0.01 s
wall time for grad    0.01 s
 E :    -50.44850801  G :  0.013939    pred/act E change: -0.255D-03 -0.277D-03
Maxdispl :   0.1080   ||displ|| :   0.2145   Lambda : -0.386D-03
Largest |displ|/coords:  0.1080 (   5)  0.0931 (   3)  0.0874 (   2)
................................................................................
.............................. CYCLE   22 ......................................
................................................................................
   1    -50.7386547 -0.507387E+02  0.116E-01    9.17       0.0  T
   2    -50.7386598 -0.511623E-05  0.863E-02    9.18       1.0  T
   3    -50.7386624 -0.258529E-05  0.132E-02    9.18       1.5  T
   4    -50.7386632 -0.789940E-06  0.307E-03    9.18       6.4  T
   5    -50.7386632 -0.220193E-07  0.139E-03    9.18      14.1  T
   6    -50.7386632 -0.118051E-08  0.744E-04    9.18      26.3  T
speedup  1.05
cpu  time for SCC    0.01 s
wall time for SCC    0.01 s
speedup  0.96
cpu  time for grad    0.01 s
wall time for grad    0.01 s
 E :    -50.44868146  G :  0.014842    pred/act E change: -0.371D-03 -0.173D-03
Maxdispl :   0.0501   ||displ|| :   0.0975   Lambda : -0.259D-03
Largest |displ|/coords:  0.0501 (   2)  0.0481 (   5)  0.0318 (   1)
................................................................................
.............................. CYCLE   23 ......................................
................................................................................
   1    -50.7389019 -0.507389E+02  0.529E-02    9.17       0.0  T
   2    -50.7389032 -0.132571E-05  0.397E-02    9.17       1.0  T
   3    -50.7389039 -0.681876E-06  0.625E-03    9.17       3.1  T
   4    -50.7389041 -0.207439E-06  0.243E-03    9.17       8.1  T
   5    -50.7389041 -0.923636E-08  0.556E-04    9.17      35.3  T
speedup  1.04
cpu  time for SCC    0.00 s
wall time for SCC    0.00 s
speedup  1.02
cpu  time for grad    0.01 s
wall time for grad    0.01 s
 E :    -50.44888290  G :  0.010359    pred/act E change: -0.202D-03 -0.201D-03
Maxdispl :   0.1744   ||displ|| :   0.3439   Lambda : -0.676D-03
Largest |displ|/coords:  0.1744 (   2)  0.1515 (   5)  0.1146 (   1)
................................................................................
.............................. CYCLE   24 ......................................
................................................................................
   1    -50.7406105 -0.507406E+02  0.181E-01    9.15       0.0  T
   2    -50.7406164 -0.596325E-05  0.136E-01    9.15       1.0  T
   3    -50.7406206 -0.422616E-05  0.135E-02    9.16       1.5  T
   4    -50.7406215 -0.884649E-06  0.636E-03    9.16       3.1  T
   5    -50.7406216 -0.447277E-07  0.160E-03    9.16      12.3  T
   6    -50.7406216 -0.179673E-08  0.953E-04    9.16      20.6  T
speedup  1.05
cpu  time for SCC    0.01 s
wall time for SCC    0.01 s
speedup  1.01
cpu  time for grad    0.01 s
wall time for grad    0.01 s
 E :    -50.44933744  G :  0.009965    pred/act E change: -0.131D-03 -0.455D-03
Maxdispl :   0.2840   ||displ|| :   0.5584   Lambda : -0.719D-03
Largest |displ|/coords:  0.2840 (   2)  0.2822 (   5)  0.1676 (   6)
................................................................................
.............................. CYCLE   25 ......................................
................................................................................
   1    -50.7357449 -0.507357E+02  0.316E-01    9.11       0.0  T
   2    -50.7357617 -0.167609E-04  0.237E-01    9.11       1.0  T
   3    -50.7357740 -0.123610E-04  0.251E-02    9.11       1.0  T
   4    -50.7357764 -0.238143E-05  0.815E-03    9.11       2.4  T
   5    -50.7357765 -0.123721E-06  0.328E-03    9.11       6.0  T
   6    -50.7357765 -0.646400E-08  0.159E-03    9.11      12.4  T
   7    -50.7357765 -0.765645E-08  0.415E-04    9.11      47.3  T
speedup  0.92
cpu  time for SCC    0.01 s
wall time for SCC    0.01 s
speedup  0.97
cpu  time for grad    0.01 s
wall time for grad    0.01 s
 E :    -50.44967482  G :  0.024057    pred/act E change: -0.378D-03 -0.337D-03
Maxdispl :   0.1098   ||displ|| :   0.3061   Lambda : -0.928D-03
Largest |displ|/coords:  0.1098 (   2)  0.1000 (   1)  0.0942 (   5)

generating ANC from model Hessian ...
 Shifting diagonal of input Hessian by   5.055841661337168E-003
 Lowest  eigenvalues of input Hessian
    0.005000   -0.000000    0.000000    0.000000    0.000000    0.000000
    0.000000    0.005156    0.005728    0.005791    0.006119    0.006672
    0.007012    0.007869    0.008411    0.008635    0.009969    0.010523
 Highest eigenvalues
    1.413207    1.421947    1.433594    2.545338    3.397399    3.672517
 
cpu  time for ANC gen    0.02 s
wall time for ANC gen    0.02 s
................................................................................
.............................. CYCLE   26 ......................................
................................................................................
   1    -50.7390551 -0.507391E+02  0.149E-01    9.10       0.0  T
   2    -50.7390656 -0.105238E-04  0.111E-01    9.10       1.0  T
   3    -50.7390721 -0.641574E-05  0.217E-02    9.10       1.0  T
   4    -50.7390734 -0.128960E-05  0.646E-03    9.10       3.0  T
   5    -50.7390735 -0.109525E-06  0.213E-03    9.10       9.2  T
   6    -50.7390735 -0.380350E-08  0.123E-03    9.10      16.0  T
   7    -50.7390735 -0.340962E-08  0.243E-04    9.10      80.7  T
   8    -50.7390735 -0.105764E-09  0.638E-05    9.10     307.3  T
speedup  0.95
cpu  time for SCC    0.01 s
wall time for SCC    0.01 s
speedup  0.99
cpu  time for grad    0.02 s
wall time for grad    0.02 s
 E :    -50.45018308  G :  0.014721    pred/act E change:  0.000D+00 -0.508D-03
Maxdispl :   0.1827   ||displ|| :   0.3264   Lambda : -0.142D-02
Largest |displ|/coords:  0.1827 (  11)  0.1455 (   6)  0.1226 (   7)
................................................................................
.............................. CYCLE   27 ......................................
................................................................................
   1    -50.7397309 -0.507397E+02  0.267E-01    9.13       0.0  T
   2    -50.7397397 -0.880455E-05  0.201E-01    9.13       1.0  T
   3    -50.7397457 -0.590622E-05  0.152E-02    9.13       1.3  T
   4    -50.7397471 -0.140797E-05  0.478E-03    9.13       4.1  T
   5    -50.7397471 -0.273086E-07  0.229E-03    9.13       8.6  T
   6    -50.7397471 -0.357826E-08  0.100E-03    9.13      19.6  T
speedup  0.93
cpu  time for SCC    0.00 s
wall time for SCC    0.01 s
speedup  1.03
cpu  time for grad    0.01 s
wall time for grad    0.01 s
 E :    -50.45128559  G :  0.009530    pred/act E change:  0.000D+00 -0.110D-02
Maxdispl :   0.2355   ||displ|| :   0.4772   Lambda : -0.120D-02
Largest |displ|/coords:  0.2355 (   1)  0.2162 (  11)  0.1605 (   7)
................................................................................
.............................. CYCLE   28 ......................................
................................................................................
   1    -50.7361556 -0.507362E+02  0.355E-01    9.18       0.0  T
   2    -50.7361713 -0.157002E-04  0.266E-01    9.18       1.0  T
   3    -50.7361822 -0.109281E-04  0.211E-02    9.18       1.0  T
   4    -50.7361847 -0.249113E-05  0.734E-03    9.18       2.7  T
   5    -50.7361848 -0.736084E-07  0.339E-03    9.18       5.8  T
   6    -50.7361848 -0.984834E-08  0.160E-03    9.18      12.3  T
   7    -50.7361848 -0.547987E-08  0.280E-04    9.18      69.9  T
speedup  1.09
cpu  time for SCC    0.01 s
wall time for SCC    0.01 s
speedup  1.04
cpu  time for grad    0.01 s
wall time for grad    0.01 s
 E :    -50.45180217  G :  0.028776    pred/act E change: -0.783D-03 -0.517D-03
Maxdispl :   0.1569   ||displ|| :   0.2493   Lambda : -0.113D-02
Largest |displ|/coords:  0.1569 (   1)  0.1128 (   7)  0.0607 (  14)
................................................................................
.............................. CYCLE   29 ......................................
................................................................................
   1    -50.7400757 -0.507401E+02  0.173E-01    9.21       0.0  T
   2    -50.7400854 -0.965982E-05  0.132E-01    9.21       1.0  T
   3    -50.7400927 -0.726890E-05  0.166E-02    9.20       1.2  T
   4    -50.7400940 -0.134305E-05  0.485E-03    9.21       4.0  T
   5    -50.7400941 -0.403756E-07  0.183E-03    9.21      10.7  T
speedup  0.83
cpu  time for SCC    0.00 s
wall time for SCC    0.00 s
speedup  0.94
cpu  time for grad    0.01 s
wall time for grad    0.01 s
 E :    -50.45229012  G :  0.018619    pred/act E change: -0.738D-03 -0.488D-03
Maxdispl :   0.2153   ||displ|| :   0.3401   Lambda : -0.148D-02
Largest |displ|/coords:  0.2153 (   1)  0.1520 (   7)  0.1163 (   4)
................................................................................
.............................. CYCLE   30 ......................................
................................................................................
   1    -50.7478075 -0.507478E+02  0.225E-01    9.22       0.0  T
   2    -50.7478279 -0.204011E-04  0.171E-01    9.22       1.0  T
   3    -50.7478472 -0.192510E-04  0.242E-02    9.22       1.0  T
   4    -50.7478495 -0.236918E-05  0.710E-03    9.21       2.8  T
   5    -50.7478496 -0.533875E-07  0.320E-03    9.21       6.1  T
   6    -50.7478496 -0.811958E-08  0.142E-03    9.21      13.8  T
   7    -50.7478496 -0.407407E-08  0.307E-04    9.21      63.8  T
speedup  1.09
cpu  time for SCC    0.01 s
wall time for SCC    0.01 s
speedup  1.04
cpu  time for grad    0.01 s
wall time for grad    0.01 s
 E :    -50.45259333  G :  0.025970    pred/act E change: -0.601D-03 -0.303D-03
Maxdispl :   0.3031   ||displ|| :   0.4243   Lambda : -0.156D-02
Largest |displ|/coords:  0.3031 (   1)  0.1425 (  11)  0.1422 (   2)
................................................................................
.............................. CYCLE   31 ......................................
................................................................................
   1    -50.7420768 -0.507421E+02  0.241E-01    9.21       0.0  T
   2    -50.7420894 -0.125968E-04  0.180E-01    9.21       1.0  T
   3    -50.7420977 -0.833351E-05  0.199E-02    9.21       1.0  T
   4    -50.7420997 -0.196089E-05  0.614E-03    9.21       3.2  T
   5    -50.7420998 -0.658369E-07  0.283E-03    9.21       6.9  T
   6    -50.7420998 -0.706899E-08  0.148E-03    9.21      13.3  T
speedup  1.03
cpu  time for SCC    0.01 s
wall time for SCC    0.01 s
speedup  1.01
cpu  time for grad    0.01 s
wall time for grad    0.01 s
 E :    -50.45365896  G :  0.020438    pred/act E change: -0.823D-03 -0.107D-02
Maxdispl :   0.3229   ||displ|| :   0.5438   Lambda : -0.166D-02
Largest |displ|/coords:  0.3229 (   1)  0.2680 (   2)  0.2183 (   3)
................................................................................
.............................. CYCLE   32 ......................................
................................................................................
   1    -50.7341344 -0.507341E+02  0.326E-01    9.18       0.0  T
   2    -50.7341771 -0.426735E-04  0.244E-01    9.18       1.0  T
   3    -50.7342085 -0.313702E-04  0.368E-02    9.18       1.0  T
   4    -50.7342145 -0.604234E-05  0.951E-03    9.18       2.1  T
   5    -50.7342146 -0.106624E-06  0.471E-03    9.18       4.2  T
   6    -50.7342147 -0.286580E-07  0.209E-03    9.18       9.4  T
speedup  1.03
cpu  time for SCC    0.01 s
wall time for SCC    0.01 s
speedup  1.01
cpu  time for grad    0.01 s
wall time for grad    0.01 s
 E :    -50.45395282  G :  0.038084    pred/act E change: -0.919D-03 -0.294D-03
Maxdispl :   0.2182   ||displ|| :   0.3076   Lambda : -0.209D-02
Largest |displ|/coords:  0.2182 (   1)  0.1376 (   5)  0.1035 (   4)
................................................................................
.............................. CYCLE   33 ......................................
................................................................................
   1    -50.7398847 -0.507399E+02  0.165E-01    9.16       0.0  T
   2    -50.7399015 -0.167727E-04  0.123E-01    9.16       1.0  T
   3    -50.7399134 -0.118839E-04  0.231E-02    9.16       1.0  T
   4    -50.7399156 -0.218082E-05  0.487E-03    9.16       4.0  T
   5    -50.7399156 -0.301145E-07  0.277E-03    9.16       7.1  T
speedup  1.04
cpu  time for SCC    0.00 s
wall time for SCC    0.00 s
speedup  1.01
cpu  time for grad    0.01 s
wall time for grad    0.01 s
 E :    -50.45527613  G :  0.017719    pred/act E change: -0.108D-02 -0.132D-02
Maxdispl :   0.4142   ||displ|| :   0.5757   Lambda : -0.158D-02
Largest |displ|/coords:  0.4142 (   1)  0.1814 (   4)  0.1745 (   2)
................................................................................
.............................. CYCLE   34 ......................................
................................................................................
   1    -50.7419158 -0.507419E+02  0.212E-01    9.12       0.0  T
   2    -50.7419265 -0.106279E-04  0.161E-01    9.12       1.0  T
   3    -50.7419405 -0.140344E-04  0.161E-02    9.12       1.2  T
   4    -50.7419411 -0.584121E-06  0.637E-03    9.12       3.1  T
   5    -50.7419411 -0.450166E-07  0.245E-03    9.12       8.0  T
   6    -50.7419411 -0.922174E-08  0.122E-03    9.12      16.1  T
speedup  0.86
cpu  time for SCC    0.01 s
wall time for SCC    0.01 s
speedup  0.94
cpu  time for grad    0.01 s
wall time for grad    0.01 s
 E :    -50.45627061  G :  0.021147    pred/act E change: -0.114D-02 -0.994D-03
Maxdispl :   0.4432   ||displ|| :   0.6332   Lambda : -0.170D-02
Largest |displ|/coords:  0.4432 (   1)  0.2202 (   3)  0.2008 (   2)
................................................................................
.............................. CYCLE   35 ......................................
................................................................................
   1    -50.7442640 -0.507443E+02  0.208E-01    9.08       0.0  T
   2    -50.7442748 -0.108174E-04  0.157E-01    9.08       1.0  T
   3    -50.7442837 -0.892082E-05  0.183E-02    9.08       1.1  T
   4    -50.7442850 -0.130970E-05  0.476E-03    9.08       4.1  T
   5    -50.7442851 -0.293063E-07  0.237E-03    9.08       8.3  T
speedup  1.02
cpu  time for SCC    0.00 s
wall time for SCC    0.00 s
speedup  1.01
cpu  time for grad    0.01 s
wall time for grad    0.01 s
 E :    -50.45745430  G :  0.017469    pred/act E change: -0.105D-02 -0.118D-02
Maxdispl :   0.5009   ||displ|| :   0.6707   Lambda : -0.158D-02
Largest |displ|/coords:  0.5009 (   1)  0.2121 (   2)  0.1968 (   3)
................................................................................
.............................. CYCLE   36 ......................................
................................................................................
   1    -50.7355522 -0.507356E+02  0.297E-01    9.06       0.0  T
   2    -50.7355737 -0.215063E-04  0.223E-01    9.06       1.0  T
   3    -50.7355890 -0.153030E-04  0.260E-02    9.07       1.0  T
   4    -50.7355922 -0.320417E-05  0.667E-03    9.06       2.9  T
   5    -50.7355922 -0.394215E-07  0.373E-03    9.06       5.3  T
   6    -50.7355923 -0.165857E-07  0.123E-03    9.07      16.0  T
   7    -50.7355923 -0.370589E-08  0.340E-04    9.07      57.7  T
speedup  1.08
cpu  time for SCC    0.01 s
wall time for SCC    0.01 s
speedup  1.03
cpu  time for grad    0.01 s
wall time for grad    0.01 s
 E :    -50.45723834  G :  0.043848    pred/act E change: -0.119D-02  0.216D-03
Maxdispl :   0.1323   ||displ|| :   0.2081   Lambda : -0.290D-02
Largest |displ|/coords:  0.1323 (   7)  0.0837 (  11)  0.0556 (   5)
................................................................................
.............................. CYCLE   37 ......................................
................................................................................
   1    -50.7455015 -0.507455E+02  0.144E-01    9.20       0.0  T
   2    -50.7455249 -0.234707E-04  0.106E-01    9.20       1.0  T
   3    -50.7455397 -0.147976E-04  0.268E-02    9.19       1.0  T
   4    -50.7455420 -0.224547E-05  0.668E-03    9.19       2.9  T
   5    -50.7455421 -0.707461E-07  0.280E-03    9.19       7.0  T
   6    -50.7455421 -0.400669E-08  0.137E-03    9.19      14.3  T
speedup  0.88
cpu  time for SCC    0.00 s
wall time for SCC    0.01 s
speedup  0.94
cpu  time for grad    0.01 s
wall time for grad    0.01 s
 E :    -50.45851426  G :  0.020741    pred/act E change: -0.114D-02 -0.128D-02
Maxdispl :   0.1032   ||displ|| :   0.1862   Lambda : -0.734D-03
Largest |displ|/coords:  0.1032 (   1)  0.0628 (   6)  0.0515 (   4)
................................................................................
.............................. CYCLE   38 ......................................
................................................................................
   1    -50.7455462 -0.507455E+02  0.137E-01    9.17       0.0  T
   2    -50.7455542 -0.793268E-05  0.103E-01    9.17       1.0  T
   3    -50.7455598 -0.563929E-05  0.162E-02    9.17       1.2  T
   4    -50.7455607 -0.907459E-06  0.466E-03    9.17       4.2  T
   5    -50.7455608 -0.491942E-07  0.164E-03    9.17      11.9  T
speedup  1.00
cpu  time for SCC    0.00 s
wall time for SCC    0.00 s
speedup  0.99
cpu  time for grad    0.01 s
wall time for grad    0.01 s
 E :    -50.45873108  G :  0.011154    pred/act E change: -0.151D-02 -0.217D-03
Maxdispl :   0.1190   ||displ|| :   0.2342   Lambda : -0.860D-03
Largest |displ|/coords:  0.1190 (   8)  0.0980 (   6)  0.0821 (  14)
................................................................................
.............................. CYCLE   39 ......................................
................................................................................
   1    -50.7458148 -0.507458E+02  0.195E-01    9.18       0.0  T
   2    -50.7458200 -0.528808E-05  0.147E-01    9.18       1.0  T
   3    -50.7458262 -0.613175E-05  0.149E-02    9.18       1.3  T
   4    -50.7458266 -0.423916E-06  0.529E-03    9.18       3.7  T
   5    -50.7458266 -0.339592E-07  0.213E-03    9.18       9.2  T
   6    -50.7458266 -0.507242E-08  0.968E-04    9.18      20.3  T
speedup  1.05
cpu  time for SCC    0.01 s
wall time for SCC    0.01 s
speedup  1.01
cpu  time for grad    0.01 s
wall time for grad    0.01 s
 E :    -50.45918719  G :  0.017629    pred/act E change: -0.380D-03 -0.456D-03
Maxdispl :   0.0973   ||displ|| :   0.2379   Lambda : -0.671D-03
Largest |displ|/coords:  0.0973 (   8)  0.0859 (  14)  0.0849 (   7)
................................................................................
.............................. CYCLE   40 ......................................
................................................................................
   1    -50.7451186 -0.507451E+02  0.178E-01    9.20       0.0  T
   2    -50.7451245 -0.584542E-05  0.133E-01    9.19       1.0  T
   3    -50.7451297 -0.522992E-05  0.163E-02    9.17       1.2  T
   4    -50.7451304 -0.656959E-06  0.452E-03    9.18       4.3  T
   5    -50.7451304 -0.315622E-07  0.192E-03    9.18      10.2  T
   6    -50.7451304 -0.415566E-08  0.104E-03    9.18      18.9  T
speedup  1.07
cpu  time for SCC    0.01 s
wall time for SCC    0.01 s
speedup  1.01
cpu  time for grad    0.01 s
wall time for grad    0.01 s
 E :    -50.45958947  G :  0.018708    pred/act E change: -0.454D-03 -0.402D-03
Maxdispl :   0.0888   ||displ|| :   0.2367   Lambda : -0.734D-03
Largest |displ|/coords:  0.0888 (   1)  0.0756 (  47)  0.0753 (   9)
................................................................................
.............................. CYCLE   41 ......................................
................................................................................
   1    -50.7461307 -0.507461E+02  0.169E-01    9.12       0.0  T
   2    -50.7461392 -0.844620E-05  0.127E-01    9.11       1.0  T
   3    -50.7461458 -0.665446E-05  0.191E-02    9.11       1.0  T
   4    -50.7461468 -0.998664E-06  0.543E-03    9.11       3.6  T
   5    -50.7461469 -0.488196E-07  0.192E-03    9.11      10.2  T
   6    -50.7461469 -0.449162E-08  0.112E-03    9.11      17.5  T
speedup  1.03
cpu  time for SCC    0.01 s
wall time for SCC    0.01 s
speedup  1.00
cpu  time for grad    0.01 s
wall time for grad    0.01 s
 E :    -50.45999923  G :  0.014403    pred/act E change: -0.354D-03 -0.410D-03
Maxdispl :   0.1510   ||displ|| :   0.4176   Lambda : -0.117D-02
Largest |displ|/coords:  0.1510 (   6)  0.1373 (  47)  0.1310 (   8)
................................................................................
.............................. CYCLE   42 ......................................
................................................................................
   1    -50.7456299 -0.507456E+02  0.355E-01    9.11       0.0  T
   2    -50.7456508 -0.208548E-04  0.268E-01    9.11       1.0  T
   3    -50.7456734 -0.226030E-04  0.297E-02    9.08       1.0  T
   4    -50.7456754 -0.203759E-05  0.109E-02    9.09       1.8  T
   5    -50.7456756 -0.155864E-06  0.419E-03    9.09       4.7  T
   6    -50.7456756 -0.205870E-07  0.223E-03    9.09       8.8  T
   7    -50.7456756 -0.862654E-08  0.508E-04    9.09      38.6  T
speedup  1.06
cpu  time for SCC    0.01 s
wall time for SCC    0.01 s
speedup  1.01
cpu  time for grad    0.01 s
wall time for grad    0.01 s
 E :    -50.46039831  G :  0.024074    pred/act E change: -0.387D-03 -0.399D-03
Maxdispl :   0.0574   ||displ|| :   0.1636   Lambda : -0.958D-03
Largest |displ|/coords:  0.0574 (   3)  0.0539 (   4)  0.0529 (  15)
................................................................................
.............................. CYCLE   43 ......................................
................................................................................
   1    -50.7517767 -0.507518E+02  0.116E-01    9.23       0.0  T
   2    -50.7517843 -0.758140E-05  0.858E-02    9.23       1.0  T
   3    -50.7517915 -0.717163E-05  0.185E-02    9.24       1.1  T
   4    -50.7517921 -0.661620E-06  0.466E-03    9.24       4.2  T
   5    -50.7517922 -0.316356E-07  0.198E-03    9.24       9.9  T
speedup  0.83
cpu  time for SCC    0.00 s
wall time for SCC    0.00 s
speedup  1.01
cpu  time for grad    0.01 s
wall time for grad    0.01 s
 E :    -50.46073088  G :  0.012164    pred/act E change: -0.689D-03 -0.333D-03
Maxdispl :   0.2410   ||displ|| :   0.3679   Lambda : -0.740D-03
Largest |displ|/coords:  0.2410 (   1)  0.1291 (   2)  0.1143 (  10)
................................................................................
.............................. CYCLE   44 ......................................
................................................................................
   1    -50.7439736 -0.507440E+02  0.202E-01    9.02       0.0  T
   2    -50.7439874 -0.138290E-04  0.151E-01    9.00       1.0  T
   3    -50.7439956 -0.819483E-05  0.252E-02    8.94       1.0  T
   4    -50.7439974 -0.179863E-05  0.811E-03    8.95       2.4  T
   5    -50.7439975 -0.108883E-06  0.223E-03    8.95       8.8  T
   6    -50.7439975 -0.601225E-08  0.138E-03    8.95      14.2  T
speedup  1.03
cpu  time for SCC    0.01 s
wall time for SCC    0.01 s
speedup  0.99
cpu  time for grad    0.01 s
wall time for grad    0.01 s
 E :    -50.46064681  G :  0.020386    pred/act E change: -0.492D-03  0.841D-04
Maxdispl :   0.1259   ||displ|| :   0.2171   Lambda : -0.978D-03
Largest |displ|/coords:  0.1259 (   4)  0.1158 (   1)  0.0737 (   3)
................................................................................
.............................. CYCLE   45 ......................................
................................................................................
   1    -50.7484473 -0.507484E+02  0.966E-02    9.08       0.0  T
   2    -50.7484516 -0.435615E-05  0.725E-02    9.08       1.0  T
   3    -50.7484552 -0.357948E-05  0.117E-02    9.10       1.7  T
   4    -50.7484557 -0.458924E-06  0.387E-03    9.10       5.1  T
   5    -50.7484557 -0.224208E-07  0.135E-03    9.10      14.5  T
speedup  1.02
cpu  time for SCC    0.00 s
wall time for SCC    0.00 s
speedup  1.00
cpu  time for grad    0.01 s
wall time for grad    0.01 s
 E :    -50.46114145  G :  0.007170    pred/act E change: -0.420D-03 -0.495D-03
Maxdispl :   0.0937   ||displ|| :   0.1749   Lambda : -0.215D-03
Largest |displ|/coords:  0.0937 (   3)  0.0768 (   9)  0.0550 (   5)
................................................................................
.............................. CYCLE   46 ......................................
................................................................................
   1    -50.7485635 -0.507486E+02  0.108E-01    9.11       0.0  T
   2    -50.7485660 -0.241224E-05  0.804E-02    9.11       1.0  T
   3    -50.7485682 -0.223057E-05  0.111E-02    9.12       1.8  T
   4    -50.7485685 -0.275203E-06  0.385E-03    9.11       5.1  T
   5    -50.7485685 -0.210894E-07  0.116E-03    9.11      16.9  T
   6    -50.7485685 -0.161619E-08  0.701E-04    9.11      28.0  T
speedup  1.03
cpu  time for SCC    0.01 s
wall time for SCC    0.01 s
speedup  1.01
cpu  time for grad    0.01 s
wall time for grad    0.01 s
 E :    -50.46125171  G :  0.006995    pred/act E change: -0.512D-03 -0.110D-03
Maxdispl :   0.0918   ||displ|| :   0.1896   Lambda : -0.202D-03
Largest |displ|/coords:  0.0918 (   3)  0.0686 (   9)  0.0661 (   1)
................................................................................
.............................. CYCLE   47 ......................................
................................................................................
   1    -50.7501496 -0.507501E+02  0.102E-01    9.15       0.0  T
   2    -50.7501528 -0.320502E-05  0.725E-02    9.14       1.0  T
   3    -50.7501547 -0.185392E-05  0.143E-02    9.14       1.4  T
   4    -50.7501549 -0.242219E-06  0.363E-03    9.14       5.4  T
   5    -50.7501549 -0.211282E-07  0.894E-04    9.14      21.9  T
   6    -50.7501549 -0.134283E-08  0.527E-04    9.14      37.2  T
speedup  0.88
cpu  time for SCC    0.00 s
wall time for SCC    0.01 s
speedup  0.94
cpu  time for grad    0.01 s
wall time for grad    0.01 s
 E :    -50.46137620  G :  0.005168    pred/act E change: -0.111D-03 -0.124D-03
Maxdispl :   0.1244   ||displ|| :   0.2093   Lambda : -0.151D-03
Largest |displ|/coords:  0.1244 (   3)  0.0888 (   9)  0.0491 (   8)
................................................................................
.............................. CYCLE   48 ......................................
................................................................................
   1    -50.7480804 -0.507481E+02  0.119E-01    9.11       0.0  T
   2    -50.7480834 -0.303408E-05  0.865E-02    9.12       1.0  T
   3    -50.7480855 -0.208416E-05  0.150E-02    9.12       1.3  T
   4    -50.7480858 -0.308082E-06  0.476E-03    9.12       4.1  T
   5    -50.7480858 -0.303098E-07  0.979E-04    9.12      20.0  T
   6    -50.7480858 -0.143753E-08  0.638E-04    9.12      30.8  T
speedup  1.07
cpu  time for SCC    0.01 s
wall time for SCC    0.01 s
speedup  1.03
cpu  time for grad    0.01 s
wall time for grad    0.01 s
 E :    -50.46141364  G :  0.008448    pred/act E change: -0.105D-03 -0.374D-04
Maxdispl :   0.0338   ||displ|| :   0.0589   Lambda : -0.976D-04
Largest |displ|/coords:  0.0338 (   1)  0.0172 (  19)  0.0165 (  14)
................................................................................
.............................. CYCLE   49 ......................................
................................................................................
   1    -50.7490332 -0.507490E+02  0.346E-02    9.12       0.0  T
   2    -50.7490338 -0.618850E-06  0.259E-02    9.12       1.0  T
   3    -50.7490343 -0.483770E-06  0.459E-03    9.11       4.3  T
   4    -50.7490343 -0.771127E-07  0.181E-03    9.11      10.8  T
   5    -50.7490344 -0.396206E-08  0.522E-04    9.11      37.6  T
speedup  0.87
cpu  time for SCC    0.00 s
wall time for SCC    0.00 s
speedup  0.94
cpu  time for grad    0.01 s
wall time for grad    0.01 s
 E :    -50.46147079  G :  0.005764    pred/act E change: -0.790D-04 -0.572D-04
Maxdispl :   0.0323   ||displ|| :   0.0791   Lambda : -0.775D-04
Largest |displ|/coords:  0.0323 (   4)  0.0258 (   1)  0.0251 (   8)
................................................................................
.............................. CYCLE   50 ......................................
................................................................................
   1    -50.7503045 -0.507503E+02  0.389E-02    9.15       0.0  T
   2    -50.7503052 -0.737435E-06  0.295E-02    9.15       1.0  T
   3    -50.7503056 -0.387214E-06  0.530E-03    9.16       3.7  T
   4    -50.7503057 -0.119553E-06  0.211E-03    9.16       9.3  T
   5    -50.7503057 -0.681795E-08  0.448E-04    9.16      43.7  T
speedup  1.06
cpu  time for SCC    0.00 s
wall time for SCC    0.00 s
speedup  1.02
cpu  time for grad    0.01 s
wall time for grad    0.01 s
 E :    -50.46151607  G :  0.005159    pred/act E change: -0.489D-04 -0.453D-04
Maxdispl :   0.0576   ||displ|| :   0.1340   Lambda : -0.980D-04
Largest |displ|/coords:  0.0576 (   5)  0.0496 (   3)  0.0367 (  19)
................................................................................
.............................. CYCLE   51 ......................................
................................................................................
   1    -50.7497628 -0.507498E+02  0.707E-02    9.16       0.0  T
   2    -50.7497644 -0.159429E-05  0.529E-02    9.16       1.0  T
   3    -50.7497653 -0.880001E-06  0.866E-03    9.17       2.3  T
   4    -50.7497655 -0.260334E-06  0.357E-03    9.17       5.5  T
   5    -50.7497655 -0.128698E-07  0.690E-04    9.16      28.4  T
   6    -50.7497655 -0.585430E-09  0.446E-04    9.16      44.0  T
speedup  0.93
cpu  time for SCC    0.00 s
wall time for SCC    0.01 s
speedup  0.95
cpu  time for grad    0.01 s
wall time for grad    0.01 s
 E :    -50.46158092  G :  0.006584    pred/act E change: -0.390D-04 -0.648D-04
Maxdispl :   0.0968   ||displ|| :   0.2487   Lambda : -0.154D-03
Largest |displ|/coords:  0.0968 (   3)  0.0803 (   7)  0.0718 (   4)
................................................................................
.............................. CYCLE   52 ......................................
................................................................................
   1    -50.7483976 -0.507484E+02  0.129E-01    9.10       0.0  T
   2    -50.7484027 -0.513874E-05  0.964E-02    9.10       1.0  T
   3    -50.7484060 -0.325566E-05  0.164E-02    9.10       1.2  T
   4    -50.7484067 -0.771449E-06  0.664E-03    9.10       3.0  T
   5    -50.7484068 -0.401680E-07  0.133E-03    9.10      14.7  T
   6    -50.7484068 -0.191223E-08  0.859E-04    9.10      22.8  T
speedup  0.91
cpu  time for SCC    0.00 s
wall time for SCC    0.01 s
speedup  0.96
cpu  time for grad    0.01 s
wall time for grad    0.01 s
 E :    -50.46164047  G :  0.008903    pred/act E change: -0.499D-04 -0.595D-04
Maxdispl :   0.0451   ||displ|| :   0.0896   Lambda : -0.112D-03
Largest |displ|/coords:  0.0451 (   3)  0.0239 (  22)  0.0229 (   5)

generating ANC from model Hessian ...
 Shifting diagonal of input Hessian by   4.904040179299633E-003
 Lowest  eigenvalues of input Hessian
   -0.000000   -0.000000   -0.000000    0.000000    0.000000    0.000000
    0.005000    0.005260    0.005973    0.006083    0.006908    0.007867
    0.008559    0.008867    0.009458    0.009848    0.011610    0.012680
 Highest eigenvalues
    1.383875    1.416490    1.434635    2.632959    3.428737    3.673791
 
cpu  time for ANC gen    0.02 s
wall time for ANC gen    0.02 s
................................................................................
.............................. CYCLE   53 ......................................
................................................................................
   1    -50.7489883 -0.507490E+02  0.488E-02    9.17       0.0  T
   2    -50.7489893 -0.981911E-06  0.361E-02    9.17       1.0  T
   3    -50.7489898 -0.554508E-06  0.674E-03    9.18       2.9  T
   4    -50.7489899 -0.125339E-06  0.188E-03    9.18      10.4  T
   5    -50.7489899 -0.910187E-08  0.573E-04    9.17      34.3  T
   6    -50.7489899 -0.382038E-09  0.340E-04    9.17      57.7  T
speedup  0.93
cpu  time for SCC    0.01 s
wall time for SCC    0.01 s
speedup  1.01
cpu  time for grad    0.01 s
wall time for grad    0.01 s
 E :    -50.46170066  G :  0.007967    pred/act E change:  0.000D+00 -0.602D-04
Maxdispl :   0.0554   ||displ|| :   0.1287   Lambda : -0.274D-03
Largest |displ|/coords:  0.0554 (   4)  0.0547 (   9)  0.0350 (  10)
................................................................................
.............................. CYCLE   54 ......................................
................................................................................
   1    -50.7490202 -0.507490E+02  0.141E-01    9.17       0.0  T
   2    -50.7490240 -0.380365E-05  0.108E-01    9.17       1.0  T
   3    -50.7490284 -0.441934E-05  0.824E-03    9.17       2.4  T
   4    -50.7490287 -0.301560E-06  0.421E-03    9.17       4.7  T
   5    -50.7490287 -0.156519E-07  0.104E-03    9.17      18.9  T
   6    -50.7490287 -0.109580E-08  0.635E-04    9.17      30.9  T
speedup  0.75
cpu  time for SCC    0.00 s
wall time for SCC    0.01 s
speedup  0.95
cpu  time for grad    0.01 s
wall time for grad    0.01 s
 E :    -50.46180224  G :  0.006847    pred/act E change:  0.000D+00 -0.102D-03
Maxdispl :   0.0376   ||displ|| :   0.0797   Lambda : -0.123D-03
Largest |displ|/coords:  0.0376 (   4)  0.0317 (  11)  0.0286 (   1)
................................................................................
.............................. CYCLE   55 ......................................
................................................................................
   1    -50.7495215 -0.507495E+02  0.621E-02    9.18       0.0  T
   2    -50.7495219 -0.388630E-06  0.465E-02    9.18       1.0  T
   3    -50.7495222 -0.312324E-06  0.438E-03    9.18       4.5  T
   4    -50.7495222 -0.483827E-07  0.180E-03    9.18      10.9  T
   5    -50.7495222 -0.289694E-08  0.423E-04    9.18      46.3  T
speedup  0.77
cpu  time for SCC    0.00 s
wall time for SCC    0.01 s
speedup  0.90
cpu  time for grad    0.01 s
wall time for grad    0.01 s
 E :    -50.46188904  G :  0.004057    pred/act E change: -0.139D-03 -0.868D-04
Maxdispl :   0.0727   ||displ|| :   0.1421   Lambda : -0.109D-03
Largest |displ|/coords:  0.0727 (   4)  0.0531 (   1)  0.0400 (   6)
................................................................................
.............................. CYCLE   56 ......................................
................................................................................
   1    -50.7497966 -0.507498E+02  0.965E-02    9.18       0.0  T
   2    -50.7497979 -0.127897E-05  0.721E-02    9.18       1.0  T
   3    -50.7497989 -0.104383E-05  0.807E-03    9.18       2.4  T
   4    -50.7497991 -0.154951E-06  0.324E-03    9.18       6.1  T
   5    -50.7497991 -0.108780E-07  0.759E-04    9.18      25.8  T
   6    -50.7497991 -0.830603E-09  0.519E-04    9.18      37.8  T
speedup  1.09
cpu  time for SCC    0.01 s
wall time for SCC    0.01 s
speedup  1.04
cpu  time for grad    0.01 s
wall time for grad    0.01 s
 E :    -50.46195249  G :  0.002218    pred/act E change: -0.618D-04 -0.634D-04
Maxdispl :   0.0949   ||displ|| :   0.1704   Lambda : -0.848D-04
Largest |displ|/coords:  0.0949 (   4)  0.0651 (   1)  0.0551 (   9)
................................................................................
.............................. CYCLE   57 ......................................
................................................................................
   1    -50.7493670 -0.507494E+02  0.109E-01    9.17       0.0  T
   2    -50.7493690 -0.203836E-05  0.818E-02    9.16       1.0  T
   3    -50.7493712 -0.218590E-05  0.940E-03    9.16       2.1  T
   4    -50.7493714 -0.176438E-06  0.390E-03    9.16       5.0  T
   5    -50.7493714 -0.160795E-07  0.951E-04    9.17      20.6  T
   6    -50.7493714 -0.103771E-08  0.649E-04    9.16      30.2  T
speedup  0.93
cpu  time for SCC    0.00 s
wall time for SCC    0.01 s
speedup  1.00
cpu  time for grad    0.01 s
wall time for grad    0.01 s
 E :    -50.46199812  G :  0.004111    pred/act E change: -0.556D-04 -0.456D-04
Maxdispl :   0.0552   ||displ|| :   0.1237   Lambda : -0.582D-04
Largest |displ|/coords:  0.0552 (   4)  0.0450 (   2)  0.0429 (   8)
................................................................................
.............................. CYCLE   58 ......................................
................................................................................
   1    -50.7496267 -0.507496E+02  0.659E-02    9.16       0.0  T
   2    -50.7496279 -0.116950E-05  0.492E-02    9.16       1.0  T
   3    -50.7496290 -0.107674E-05  0.750E-03    9.16       2.6  T
   4    -50.7496291 -0.128458E-06  0.256E-03    9.16       7.7  T
   5    -50.7496291 -0.101846E-07  0.741E-04    9.16      26.5  T
speedup  1.11
cpu  time for SCC    0.01 s
wall time for SCC    0.00 s
speedup  1.03
cpu  time for grad    0.01 s
wall time for grad    0.01 s
 E :    -50.46204320  G :  0.004192    pred/act E change: -0.436D-04 -0.451D-04
Maxdispl :   0.1318   ||displ|| :   0.2726   Lambda : -0.955D-04
Largest |displ|/coords:  0.1318 (   4)  0.0966 (   2)  0.0959 (   8)
................................................................................
.............................. CYCLE   59 ......................................
................................................................................
   1    -50.7488980 -0.507489E+02  0.148E-01    9.14       0.0  T
   2    -50.7489024 -0.432337E-05  0.111E-01    9.14       1.0  T
   3    -50.7489066 -0.426117E-05  0.146E-02    9.13       1.3  T
   4    -50.7489071 -0.429244E-06  0.554E-03    9.13       3.5  T
   5    -50.7489071 -0.362907E-07  0.137E-03    9.13      14.4  T
   6    -50.7489071 -0.204771E-08  0.915E-04    9.13      21.4  T
speedup  0.91
cpu  time for SCC    0.00 s
wall time for SCC    0.01 s
speedup  0.96
cpu  time for grad    0.01 s
wall time for grad    0.01 s
 E :    -50.46209911  G :  0.005648    pred/act E change: -0.296D-04 -0.559D-04
Maxdispl :   0.0669   ||displ|| :   0.1349   Lambda : -0.652D-04
Largest |displ|/coords:  0.0669 (   2)  0.0508 (   8)  0.0454 (   4)
................................................................................
.............................. CYCLE   60 ......................................
................................................................................
   1    -50.7500168 -0.507500E+02  0.701E-02    9.15       0.0  T
   2    -50.7500184 -0.160503E-05  0.521E-02    9.15       1.0  T
   3    -50.7500195 -0.109918E-05  0.902E-03    9.15       2.2  T
   4    -50.7500197 -0.209551E-06  0.417E-03    9.15       4.7  T
   5    -50.7500197 -0.165918E-07  0.737E-04    9.15      26.6  T
   6    -50.7500197 -0.648740E-09  0.496E-04    9.15      39.5  T
speedup  1.11
cpu  time for SCC    0.01 s
wall time for SCC    0.01 s
speedup  1.04
cpu  time for grad    0.01 s
wall time for grad    0.01 s
 E :    -50.46214081  G :  0.004820    pred/act E change: -0.513D-04 -0.417D-04
Maxdispl :   0.0991   ||displ|| :   0.2323   Lambda : -0.711D-04
Largest |displ|/coords:  0.0991 (   4)  0.0964 (   2)  0.0916 (   8)
................................................................................
.............................. CYCLE   61 ......................................
................................................................................
   1    -50.7499646 -0.507500E+02  0.121E-01    9.15       0.0  T
   2    -50.7499680 -0.335814E-05  0.900E-02    9.15       1.0  T
   3    -50.7499706 -0.267025E-05  0.136E-02    9.15       1.4  T
   4    -50.7499711 -0.420057E-06  0.588E-03    9.15       3.3  T
   5    -50.7499711 -0.292828E-07  0.107E-03    9.15      18.3  T
   6    -50.7499711 -0.106910E-08  0.757E-04    9.15      25.9  T
speedup  0.91
cpu  time for SCC    0.00 s
wall time for SCC    0.01 s
speedup  0.96
cpu  time for grad    0.01 s
wall time for grad    0.01 s
 E :    -50.46219809  G :  0.004087    pred/act E change: -0.332D-04 -0.573D-04
Maxdispl :   0.1406   ||displ|| :   0.2935   Lambda : -0.111D-03
Largest |displ|/coords:  0.1406 (   2)  0.1130 (   4)  0.1128 (   8)
................................................................................
.............................. CYCLE   62 ......................................
................................................................................
   1    -50.7507076 -0.507507E+02  0.154E-01    9.18       0.0  T
   2    -50.7507131 -0.557113E-05  0.114E-01    9.18       1.0  T
   3    -50.7507173 -0.420107E-05  0.180E-02    9.19       1.1  T
   4    -50.7507180 -0.685424E-06  0.820E-03    9.19       2.4  T
   5    -50.7507181 -0.556449E-07  0.143E-03    9.19      13.7  T
   6    -50.7507181 -0.203947E-08  0.101E-03    9.19      19.5  T
speedup  0.88
cpu  time for SCC    0.00 s
wall time for SCC    0.01 s
speedup  0.93
cpu  time for grad    0.01 s
wall time for grad    0.01 s
 E :    -50.46226844  G :  0.003969    pred/act E change: -0.374D-04 -0.704D-04
Maxdispl :   0.1201   ||displ|| :   0.2562   Lambda : -0.507D-04
Largest |displ|/coords:  0.1201 (   2)  0.1078 (   8)  0.0907 (   4)
................................................................................
.............................. CYCLE   63 ......................................
................................................................................
   1    -50.7494789 -0.507495E+02  0.141E-01    9.14       0.0  T
   2    -50.7494834 -0.456326E-05  0.105E-01    9.15       1.0  T
   3    -50.7494871 -0.364375E-05  0.162E-02    9.15       1.2  T
   4    -50.7494876 -0.562450E-06  0.626E-03    9.15       3.1  T
   5    -50.7494877 -0.361215E-07  0.123E-03    9.15      15.9  T
   6    -50.7494877 -0.166953E-08  0.840E-04    9.15      23.3  T
   7    -50.7494877 -0.101460E-08  0.182E-04    9.15     107.6  T
speedup  0.94
cpu  time for SCC    0.01 s
wall time for SCC    0.01 s
speedup  1.00
cpu  time for grad    0.01 s
wall time for grad    0.01 s
 E :    -50.46229723  G :  0.006022    pred/act E change: -0.602D-04 -0.288D-04
Maxdispl :   0.0938   ||displ|| :   0.1823   Lambda : -0.928D-04
Largest |displ|/coords:  0.0938 (   2)  0.0663 (   8)  0.0571 (   1)
................................................................................
.............................. CYCLE   64 ......................................
................................................................................
   1    -50.7518163 -0.507518E+02  0.109E-01    9.21       0.0  T
   2    -50.7518186 -0.232836E-05  0.798E-02    9.21       1.0  T
   3    -50.7518207 -0.210672E-05  0.129E-02    9.22       1.5  T
   4    -50.7518209 -0.195012E-06  0.473E-03    9.22       4.1  T
   5    -50.7518210 -0.249636E-07  0.996E-04    9.22      19.7  T
   6    -50.7518210 -0.104021E-08  0.667E-04    9.22      29.4  T
speedup  0.91
cpu  time for SCC    0.00 s
wall time for SCC    0.01 s
speedup  0.96
cpu  time for grad    0.01 s
wall time for grad    0.01 s
 E :    -50.46233821  G :  0.004918    pred/act E change: -0.270D-04 -0.410D-04
Maxdispl :   0.0919   ||displ|| :   0.1734   Lambda : -0.714D-04
Largest |displ|/coords:  0.0919 (   2)  0.0633 (   8)  0.0606 (   4)
................................................................................
.............................. CYCLE   65 ......................................
................................................................................
   1    -50.7507132 -0.507507E+02  0.103E-01    9.19       0.0  T
   2    -50.7507159 -0.265201E-05  0.771E-02    9.19       1.0  T
   3    -50.7507181 -0.225218E-05  0.117E-02    9.19       1.7  T
   4    -50.7507184 -0.323347E-06  0.398E-03    9.19       4.9  T
   5    -50.7507185 -0.198258E-07  0.100E-03    9.19      19.5  T
   6    -50.7507185 -0.134582E-08  0.637E-04    9.19      30.8  T
speedup  1.07
cpu  time for SCC    0.01 s
wall time for SCC    0.01 s
speedup  1.01
cpu  time for grad    0.01 s
[...]
Maxdispl :   0.0061   ||displ|| :   0.0135   Lambda : -0.478D-06
Largest |displ|/coords:  0.0061 (   1)  0.0042 (   5)  0.0038 (  37)
................................................................................
.............................. CYCLE   91 ......................................
................................................................................
   1    -50.7522799 -0.507523E+02  0.910E-03    9.24       0.0  T
   2    -50.7522799 -0.214212E-07  0.676E-03    9.24       2.9  T
   3    -50.7522799 -0.774743E-08  0.121E-03    9.24      16.2  T
   4    -50.7522799 -0.382743E-08  0.377E-04    9.24      52.0  T
   5    -50.7522799 -0.954756E-10  0.547E-05    9.24     358.4  T
speedup  0.85
cpu  time for SCC    0.00 s
wall time for SCC    0.00 s
speedup  0.97
cpu  time for grad    0.01 s
wall time for grad    0.01 s
 E :    -50.46248782  G :  0.000274    pred/act E change: -0.393D-06 -0.363D-06
Maxdispl :   0.0084   ||displ|| :   0.0175   Lambda : -0.620D-06
Largest |displ|/coords:  0.0084 (   1)  0.0056 (  38)  0.0055 (   5)
................................................................................
.............................. CYCLE   92 ......................................
................................................................................
   1    -50.7522413 -0.507522E+02  0.123E-02    9.24       0.0  T
   2    -50.7522414 -0.418190E-07  0.913E-03    9.24       2.1  T
   3    -50.7522414 -0.125033E-07  0.174E-03    9.24      11.3  T
   4    -50.7522414 -0.746851E-08  0.500E-04    9.24      39.2  T
   5    -50.7522414 -0.156206E-09  0.650E-05    9.24     301.5  T
speedup  1.04
cpu  time for SCC    0.00 s
wall time for SCC    0.00 s
speedup  1.02
cpu  time for grad    0.01 s
wall time for grad    0.01 s
 E :    -50.46248825  G :  0.000232    pred/act E change: -0.239D-06 -0.431D-06
Maxdispl :   0.0051   ||displ|| :   0.0111   Lambda : -0.422D-06
Largest |displ|/coords:  0.0051 (   1)  0.0043 (  38)  0.0039 (  37)
................................................................................
.............................. CYCLE   93 ......................................
................................................................................
   1    -50.7522150 -0.507522E+02  0.859E-03    9.24       0.0  T
   2    -50.7522150 -0.180707E-07  0.636E-03    9.24       3.1  T
   3    -50.7522150 -0.666377E-08  0.116E-03    9.24      16.9  T
   4    -50.7522150 -0.309760E-08  0.351E-04    9.24      55.8  T
   5    -50.7522150 -0.797442E-10  0.471E-05    9.24     416.6  T
speedup  1.04
cpu  time for SCC    0.00 s
wall time for SCC    0.00 s
speedup  1.03
cpu  time for grad    0.01 s
wall time for grad    0.01 s
 E :    -50.46248855  G :  0.000229    pred/act E change: -0.310D-06 -0.299D-06
Maxdispl :   0.0030   ||displ|| :   0.0075   Lambda : -0.321D-06
Largest |displ|/coords:  0.0030 (  38)  0.0027 (  37)  0.0024 (   4)
................................................................................
.............................. CYCLE   94 ......................................
................................................................................
   1    -50.7522129 -0.507522E+02  0.626E-03    9.24       0.0  T
   2    -50.7522129 -0.868137E-08  0.466E-03    9.24       4.2  T
   3    -50.7522129 -0.500113E-08  0.778E-04    9.24      25.2  T
   4    -50.7522129 -0.128785E-08  0.250E-04    9.24      78.6  T
speedup  1.05
cpu  time for SCC    0.00 s
wall time for SCC    0.00 s
speedup  0.96
cpu  time for grad    0.01 s
wall time for grad    0.01 s
 E :    -50.46248877  G :  0.000225    pred/act E change: -0.211D-06 -0.221D-06
Maxdispl :   0.0024   ||displ|| :   0.0063   Lambda : -0.207D-06
Largest |displ|/coords:  0.0024 (   4)  0.0024 (   6)  0.0024 (  15)
................................................................................
.............................. CYCLE   95 ......................................
................................................................................
   1    -50.7522301 -0.507522E+02  0.432E-03    9.24       0.0  T
   2    -50.7522301 -0.447631E-08  0.325E-03    9.24       6.0  T
   3    -50.7522301 -0.358282E-08  0.479E-04    9.24      40.9  T
   4    -50.7522301 -0.581316E-09  0.125E-04    9.24     157.0  T
speedup  1.03
cpu  time for SCC    0.00 s
wall time for SCC    0.00 s
speedup  1.02
cpu  time for grad    0.01 s
wall time for grad    0.01 s
 E :    -50.46248893  G :  0.000177    pred/act E change: -0.160D-06 -0.157D-06
Maxdispl :   0.0032   ||displ|| :   0.0080   Lambda : -0.195D-06
Largest |displ|/coords:  0.0032 (   6)  0.0032 (   5)  0.0025 (   1)
................................................................................
.............................. CYCLE   96 ......................................
................................................................................
   1    -50.7522582 -0.507523E+02  0.520E-03    9.24       0.0  T
   2    -50.7522582 -0.655760E-08  0.392E-03    9.24       5.0  T
   3    -50.7522582 -0.590900E-08  0.585E-04    9.24      33.5  T
   4    -50.7522582 -0.743121E-09  0.153E-04    9.24     128.0  T
speedup  1.03
cpu  time for SCC    0.00 s
wall time for SCC    0.00 s
speedup  1.03
cpu  time for grad    0.01 s
wall time for grad    0.01 s
 E :    -50.46248907  G :  0.000138    pred/act E change: -0.103D-06 -0.140D-06
Maxdispl :   0.0045   ||displ|| :   0.0089   Lambda : -0.159D-06
Largest |displ|/coords:  0.0045 (   5)  0.0040 (   1)  0.0028 (   6)
................................................................................
.............................. CYCLE   97 ......................................
................................................................................
   1    -50.7522857 -0.507523E+02  0.530E-03    9.24       0.0  T
   2    -50.7522857 -0.584614E-08  0.399E-03    9.24       4.9  T
   3    -50.7522857 -0.582166E-08  0.552E-04    9.24      35.5  T
   4    -50.7522857 -0.565251E-09  0.151E-04    9.24     130.0  T
speedup  1.08
cpu  time for SCC    0.00 s
wall time for SCC    0.00 s
speedup  0.97
cpu  time for grad    0.01 s
wall time for grad    0.01 s
 E :    -50.46248919  G :  0.000147    pred/act E change: -0.977D-07 -0.124D-06
Maxdispl :   0.0049   ||displ|| :   0.0098   Lambda : -0.182D-06
Largest |displ|/coords:  0.0049 (   5)  0.0044 (   1)  0.0028 (  10)
................................................................................
.............................. CYCLE   98 ......................................
................................................................................
   1    -50.7522986 -0.507523E+02  0.704E-03    9.24       0.0  T
   2    -50.7522986 -0.988803E-08  0.527E-03    9.24       3.7  T
   3    -50.7522986 -0.945355E-08  0.764E-04    9.24      25.7  T
   4    -50.7522986 -0.898112E-09  0.246E-04    9.24      79.7  T
speedup  0.81
cpu  time for SCC    0.00 s
wall time for SCC    0.00 s
speedup  0.97
cpu  time for grad    0.01 s
wall time for grad    0.01 s
 E :    -50.46248932  G :  0.000183    pred/act E change: -0.797D-07 -0.134D-06
Maxdispl :   0.0049   ||displ|| :   0.0090   Lambda : -0.142D-06
Largest |displ|/coords:  0.0049 (   5)  0.0041 (   1)  0.0028 (  10)
................................................................................
.............................. CYCLE   99 ......................................
................................................................................
   1    -50.7522996 -0.507523E+02  0.644E-03    9.24       0.0  T
   2    -50.7522996 -0.762675E-08  0.481E-03    9.24       4.1  T
   3    -50.7522996 -0.726912E-08  0.695E-04    9.24      28.2  T
   4    -50.7522996 -0.664642E-09  0.220E-04    9.24      89.3  T
speedup  1.08
cpu  time for SCC    0.00 s
wall time for SCC    0.00 s
speedup  1.06
cpu  time for grad    0.01 s
wall time for grad    0.01 s
 E :    -50.46248943  G :  0.000170    pred/act E change: -0.909D-07 -0.109D-06
Maxdispl :   0.0044   ||displ|| :   0.0084   Lambda : -0.116D-06
Largest |displ|/coords:  0.0044 (   5)  0.0037 (   1)  0.0025 (  10)
................................................................................
.............................. CYCLE  100 ......................................
................................................................................
   1    -50.7522880 -0.507523E+02  0.636E-03    9.24       0.0  T
   2    -50.7522880 -0.769214E-08  0.473E-03    9.24       4.1  T
   3    -50.7522880 -0.658708E-08  0.755E-04    9.24      26.0  T
   4    -50.7522880 -0.750333E-09  0.235E-04    9.24      83.6  T
speedup  1.05
cpu  time for SCC    0.00 s
wall time for SCC    0.00 s
speedup  0.97
cpu  time for grad    0.01 s
wall time for grad    0.01 s
 E :    -50.46248952  G :  0.000128    pred/act E change: -0.709D-07 -0.857D-07
Maxdispl :   0.0033   ||displ|| :   0.0060   Lambda : -0.693D-07
Largest |displ|/coords:  0.0033 (   5)  0.0029 (   1)  0.0017 (  10)

   *** GEOMETRY OPTIMIZATION CONVERGED AFTER 100 ITERATIONS ***

------------------------------------------------------------------------
 total energy gain (kcal):     -0.0040
------------------------------------------------------------------------
================
 final structure:
================
$coord
        3.17445665932413       -2.01100533650135        0.39328872054215      S 
        3.30921885535069        0.01140383489748       -1.47344800713796      O 
        3.26604966097581       -0.98885196583406        2.95824306403237      O 
        1.05508026075475       -3.67884416790710        0.04766532931846      O 
        5.66272145558664       -3.63103320107642        0.03377558996287      O 
        6.95691424456849       -2.39569296058872        0.21877280246398      H 
       -4.16005286293670       -0.02830383888359       -0.41528331726344      O 
       -5.96610838477347       -0.01250086429034       -0.53078364630239      H 
        0.80140511699619        0.03645268491878       -5.87244968556215      O 
        0.30325375189313        1.77832923531683       -5.95896395462772      H 
        1.93191900792824       -0.08163698960720       -4.41617245406081      H 
       -0.51536378348561        4.66573010605466        4.04003712630762      O 
       -0.44708342335577        4.59737821656534        2.16537475192436      H 
        1.19787201110489        4.90399498404149        4.58176833237403      H 
       -0.28721125573502        3.53551644201502       -0.80502357389906      O 
       -1.78564158073565        2.49289585970063       -0.96703541395723      H 
        1.14625454386964        2.39086854751631       -1.03046891375814      H 
       -2.39743702717021       -3.22842917262698       -3.58471531108724      O 
       -1.42895329919448       -2.21475486596011       -4.79164359413440      H 
       -1.13089581559920       -3.85622758468277       -2.39881238709386      H 
       -3.55604670830163       -1.31705113429892       -1.70218172373356      H 
       -1.46712390573631       -0.22967354362622        3.93327856348424      N 
       -1.34608138187362        1.73369943513029        4.32016717308597      H 
        0.44015632661505       -0.79188224060634        3.57556167756552      H 
       -2.21365202699368       -1.22676543640629        5.38928431856433      H 
       -2.54365042022466       -0.45361602434142        2.28976453298546      H 
$end
 
 Bond Distances (Angstroems)
 ---------------------------
S1-O2=1.4582         S1-O3=1.4619         S1-O4=1.4388         S1-O5=1.5827         O2-S1=1.4582         O3-S1=1.4619         
O4-S1=1.4388         O5-S1=1.5827         O5-H6=0.9518         H6-O5=0.9518         O7-H8=0.9577         O7-H21=1.0154        
H8-O7=0.9577         O9-H10=0.9598        O9-H11=0.9776        H10-O9=0.9598        H11-O9=0.9776        O12-H13=0.9933       
O12-H14=0.9592       H13-O12=0.9933       H14-O12=0.9592       O15-H16=0.9698       O15-H17=0.9780       H16-O15=0.9698       
H17-O15=0.9780       O18-H19=0.9789       O18-H20=0.9764       H19-O18=0.9789       H20-O18=0.9764       H21-O7=1.0154        
N22-H23=1.0609       N22-H24=1.0691       N22-H25=1.0140       N22-H26=1.0464       H23-N22=1.0609       H24-N22=1.0691       
H25-N22=1.0140       H26-N22=1.0464       
 N  H  Rav=1.0476 sigma=0.0211  Rmin=1.0140  Rmax=1.0691     4
 O  H  Rav=0.9744 sigma=0.0174  Rmin=0.9518  Rmax=1.0154    11
 S  O  Rav=1.4854 sigma=0.0568  Rmin=1.4388  Rmax=1.5827     4
 
 selected bond angles (degree)
 --------------------
O3-S1-O2=110.84                O4-S1-O2=113.72                O4-S1-O3=111.77                O5-S1-O2=105.99                
O5-S1-O3=106.52                O5-S1-O4=107.51                H6-O5-S1=102.37                H21-O7-H8=106.09               
H11-O9-H10=105.49              
 
 selected dihedral angles (degree)
 ---------------------------------
H6-O5-S1-O2= 55.74            H6-O5-S1-O3=297.64            H6-O5-S1-O4=177.69            
 
 CMA Distance (Angstroems)
 ---------------------------
R(CMA):  2.9028

========================================================================
 FINAL SINGLEPOINT CALCULATION ON OPTIMIZED GEOMETRY
========================================================================

 Ncao       : 65
 Nao        : 64
 Nshell     : 38
 Nel        : 80
 T(el)      :   300.0
 intcut     :    25.0
 scfconv/Eh :  0.100E-05
   qconv/e  :  0.100E-03
 intneglect :  0.100E-07
 broydamp   :      0.250
 iter      E             dE          RMSdq      gap      omega  full diag
   1    -50.7522880 -0.507523E+02  0.101E-04    9.24       0.0  T
   2    -50.7522880 -0.390799E-11  0.650E-05    9.24     301.8  T
   3    -50.7522880 -0.247979E-11  0.738E-06    9.24    2658.2  T
speedup  1.07
cpu  time for SCC    0.00 s
wall time for SCC    0.00 s

   *** convergence criteria satisfied after 3 iterations ***

          eigenvalues
 #    :          28         29         30         31         32         33         34         35
 occ. :        2.000      2.000      2.000      2.000      2.000      2.000      2.000      2.000
 eps  :       -13.389    -13.320    -12.541    -12.464    -12.359    -12.335    -12.246    -12.040
 #    :          36         37         38         39         40         41         42         43
 occ. :        2.000      2.000      2.000      2.000      2.000      0.000      0.000      0.000
 eps  :       -11.948    -11.900    -11.742    -11.693    -11.563     -2.319     -1.072     -0.358
 #    :          44         45         46         47         48         49         50         51
 occ. :        0.000      0.000      0.000      0.000      0.000      0.000      0.000      0.000
 eps  :         0.979      1.107      1.209      1.960      2.784      3.815      4.108      5.152


   #   Z            q   n(s)   n(p)   n(d)      C6AA      α(0)
   1  16 S      1.655  1.582  1.800  0.962    89.790    15.948
   2   8 O     -0.755  1.773  4.982  0.000    30.254     7.375
   3   8 O     -0.739  1.770  4.969  0.000    29.785     7.317
   4   8 O     -0.714  1.757  4.956  0.000    29.079     7.230
   5   8 O     -0.581  1.750  4.831  0.000    24.710     6.711
   6   1 H      0.343  0.657  0.000  0.000     0.595     1.207
   7   8 O     -0.645  1.752  4.892  0.000    26.286     6.919
   8   1 H      0.284  0.716  0.000  0.000     0.770     1.378
   9   8 O     -0.611  1.748  4.863  0.000    25.455     6.809
  10   1 H      0.290  0.710  0.000  0.000     0.751     1.362
  11   1 H      0.321  0.679  0.000  0.000     0.661     1.277
  12   8 O     -0.605  1.751  4.854  0.000    25.304     6.789
  13   1 H      0.341  0.659  0.000  0.000     0.611     1.228
  14   1 H      0.290  0.710  0.000  0.000     0.751     1.361
  15   8 O     -0.637  1.757  4.880  0.000    26.091     6.894
  16   1 H      0.316  0.684  0.000  0.000     0.675     1.291
  17   1 H      0.318  0.682  0.000  0.000     0.671     1.286
  18   8 O     -0.621  1.757  4.864  0.000    25.683     6.840
  19   1 H      0.326  0.674  0.000  0.000     0.648     1.264
  20   1 H      0.323  0.677  0.000  0.000     0.655     1.271
  21   1 H      0.346  0.654  0.000  0.000     0.599     1.216
  22   7 N     -0.351  1.276  4.075  0.000    29.020     8.001
  23   1 H      0.295  0.705  0.000  0.000     0.729     1.337
  24   1 H      0.292  0.708  0.000  0.000     0.737     1.345
  25   1 H      0.229  0.771  0.000  0.000     0.969     1.542
  26   1 H      0.288  0.712  0.000  0.000     0.750     1.357

 Mol. C6AA /au·bohr⁶  :       5444.910975
 Mol. C8AA /au·bohr⁸  :     117896.201184
 Mol. α(0) /au        :        106.556358

 
 Wiberg/Mayer (AO) data. WBOs > 0.1 written file <wbo>
 largest (>0.05) Wiberg bond orders for each atom
           total WBO             WBO to atom ...
     1  S   4.886    O    4 1.389    O    2 1.281    O    3 1.278    O    5 0.900
     2  O   1.716    S    1 1.281    O    4 0.113    O    3 0.104    O    5 0.074    H   17 0.052
     3  O   1.746    S    1 1.278    H   24 0.122    O    4 0.110    O    2 0.104    O    5 0.072    N   22 0.052
     4  O   1.746    S    1 1.389    O    2 0.113    O    3 0.110    O    5 0.063
     5  O   1.981    S    1 0.900    H    6 0.866    O    2 0.074    O    3 0.072    O    4 0.063
     6  H   0.882    O    5 0.866
     7  O   1.878    H    8 0.910    H   21 0.746    H   26 0.080    O   18 0.055
     8  H   0.919    O    7 0.910
     9  O   1.861    H   10 0.912    H   11 0.844    H   19 0.051
    10  H   0.916    O    9 0.912
    11  H   0.897    O    9 0.844
    12  O   1.919    H   14 0.913    H   13 0.803    H   23 0.109    N   22 0.054
    13  H   0.884    O   12 0.803    O   15 0.080
    14  H   0.916    O   12 0.913
    15  O   1.873    H   16 0.865    H   17 0.842    H   13 0.080
    16  H   0.900    O   15 0.865
    17  H   0.899    O   15 0.842    O    2 0.052
    18  O   1.929    H   20 0.848    H   19 0.840    H   21 0.131    O    7 0.055
    19  H   0.894    O   18 0.840    O    9 0.051
    20  H   0.895    O   18 0.848
    21  H   0.881    O    7 0.746    O   18 0.131
    22  N   3.521    H   25 0.944    H   26 0.832    H   23 0.799    H   24 0.783    O   12 0.054    O    3 0.052
    23  H   0.913    N   22 0.799    O   12 0.109
    24  H   0.915    N   22 0.783    O    3 0.122
    25  H   0.948    N   22 0.944
    26  H   0.917    N   22 0.832    O    7 0.080
 MOs/occ written to file <molden.input>
 
molecular dipole:
                 x           y           z       tot (Debye)
 q only:       -1.184       0.778       1.792
   full:       -0.473       0.585       1.711       4.750
molecular quadrupole (traceless):
                xx          xy          yy          xz          yz          zz
 q only:        8.735       4.038     -11.600      -4.267      -4.862       2.865
  q+dip:       14.650       4.116     -14.106      -3.372      -7.753      -0.544
   full:       15.332       3.890     -14.436      -3.272      -7.676      -0.895

SCC energy    :     -50.7522880
rep           :       0.2894450
ES            :       0.2668610
AES           :      -0.0712726
AXC           :      -0.0084751
disp          :      -0.0194550
XB            :       0.0000000
fix           :       0.0000000
total E       :     -50.4624895
atomizationE  :       4.9927937     3133.03
(atE without considering molecular charge,
 total energy contains solvation terms)
H-L gap (eV)  :          9.2441
optimized geometry written to: xtbopt.xyz


------------------------------------------------------------------------
 * finished run on 2019/09/16 at 11:40:34.657     
------------------------------------------------------------------------
 total:
 * wall-time:     0 d,  0 h,  0 min,  2.473 sec
 *  cpu-time:     0 d,  0 h,  0 min,  2.392 sec
 * ratio c/w:     0.967 speedup
 SCF:
 * wall-time:     0 d,  0 h,  0 min,  0.179 sec
 *  cpu-time:     0 d,  0 h,  0 min,  0.174 sec
 * ratio c/w:     0.969 speedup
 ANC optimizer:
 * wall-time:     0 d,  0 h,  0 min,  2.214 sec
 *  cpu-time:     0 d,  0 h,  0 min,  2.192 sec
 * ratio c/w:     0.990 speedup

