      -----------------------------------------------------------      
     |                   =====================                   |     
     |                           x T B                           |     
     |                   =====================                   |     
     |                         S. Grimme                         |     
     |          Mulliken Center for Theoretical Chemistry        |     
     |                    University of Bonn                     |     
     |                 Version 6.0.1 (SAW181210)                 |     
      -----------------------------------------------------------      

   This program is distributed in the hope that it will be useful,
   but WITHOUT ANY WARRANTY; without even the implied warranty of
   MERCHANTABILITY or FITNESS FOR A PARTICULAR PURPOSE.
   
   FOR NON-COMMERCIAL, ACADEMIA USE ONLY.
   
   Cite this work as:
   S. Grimme, C. Bannwarth, P. Shushkov, J. Comput. Theory Chem., 2017,
   13, 1989-2009.
   C. Bannwarth, S. Ehlert and S. Grimme., ChemRxiv, 2018, preprint.
   http://doi.org/10.26434/chemrxiv.7246238.v1
   
   for sTDA-xTB:
   S. Grimme and C. Bannwarth, J. Chem. Phys., 2016, 145, 054103.
   
   in the mass-spec context:
   V. Asgeirsson, C. Bauer and S. Grimme, Chem. Sci., 2017, 8, 4879.
   
   if GBSA is used:
   P. Shushkov, F. März and S. Grimme, unpublished.
   
   for ANC optimizer:
   S. Grimme, unpublished.
   Rational Function algorithm used in ANCopt:
   F. Eckert, P. Pulay, H.-J. Werner, J. Comput. Chem., 1997, 18, 1473.
   
   with help from (in alphabetical order)
   C. Bannwarth, F. Bohle, G. Brandenburg, E. Caldeweyher, M. Checinski,
   S. Dohm, S. Ehlert, S. Ehrlich, F. März, H. Neugebauer, J. Pisarek,
   P. Pracht, P. Shushkov, and S. Spicher.
   
 * started run on 2019/09/16 at 12:08:14.437     
========================================================================
 # omp threads = 1
========================================================================
number of atoms            : 26
number of electrons        : 80
charge                     : 0
spin                       : .0
first test random number   : .0264

########################################################################
# WARNING! Please study the warnings concerning your input carefully
#  - XTBPATH is not set, using XTBHOME instead
#  - the use of '-opt' is discouraged, please use '--opt' next time
#  - the use of '-chrg' is discouraged, please use '--chrg' next time
#  - the use of '-uhf' is discouraged, please use '--uhf' next time
########################################################################

           ------------------------------------------------- 
          |                 G F N 2 - x T B                 |
          | Geometry, Frequencies, Noncovalent interactions |
          |            JCTC 2018 parametrisation            |
           ------------------------------------------------- 
      method parameters     
 k(s)        :  1.8500
 k(p)        :  2.2300
 k(d)        :  2.2300
 k(f)        :  2.0000
 kEN (H0ij)  : -2.0000
 D4 a1       :  0.5200
 D4 a2       :  5.0000
 D4 s6       :  1.0000
 D4 s8       :  2.7000
 D4 s9       :  5.0000
 alphaj      :  2.0000


            Z     q(EN)     CN     RAES       Cart. coordinates
     1  S   6.0    0.64    4.26    4.17     0.04673    -4.17771    -0.41921
     2  O   6.0   -0.31    1.22    1.80    -2.49908    -3.97480    -1.60488
     3  O   6.0   -0.33    1.22    1.80     1.74956    -2.21923    -1.51139
     4  O   6.0   -0.30    1.22    1.80    -0.17783    -3.78224     2.35951
     5  O   6.0   -0.25    2.08    1.84     1.09966    -6.69958    -0.91323
     6  H   1.0    0.14    1.21    1.47     1.24468    -6.95521    -2.70340
     7  O   6.0   -0.39    1.69    1.81    -2.01673     2.79227     1.47469
     8  H   1.0    0.17    0.95    1.42    -2.74200     4.42686     2.00933
     9  O   6.0   -0.36    1.51    1.80     3.87141     1.90882     4.82503
    10  H   1.0    0.18    0.94    1.42     5.33009     2.21518     5.94850
    11  O   6.0   -0.23    2.94    2.63     2.45802     2.25909     0.56001
    12  H   1.0    0.15    1.04    1.43     2.63795     0.63163    -0.33935
    13  H   1.0    0.16    1.16    1.46     0.66850     2.76160     0.74744
    14  H   1.0    0.17    1.20    1.47     3.35824     2.25639     2.19742
    15  O   6.0   -0.22    2.94    2.63    -0.36528     0.33876     5.02394
    16  H   1.0    0.16    1.19    1.46     1.36760     0.97178     5.31768
    17  H   1.0    0.16    1.14    1.45    -1.31457     1.42243     3.83461
    18  H   1.0    0.16    1.04    1.44    -0.37484    -1.45364     4.49602
    19  O   6.0   -0.22    2.92    2.59    -4.03748     0.67073    -2.00308
    20  H   1.0    0.12    1.04    1.44    -3.12815     1.20410    -3.54531
    21  H   1.0    0.15    1.06    1.44    -3.98061    -1.18088    -1.76155
    22  H   1.0    0.16    1.20    1.46    -3.44561     1.59147    -0.48867
    23  N   5.0   -0.22    3.02    1.93    -0.43930     1.32783    -5.63145
    24  H   1.0    0.12    1.00    1.43     0.67328     0.07945    -4.67501
    25  H   1.0    0.10    0.99    1.43     0.59406     2.94745    -5.77315
    26  H   1.0    0.10    0.99    1.43    -0.57831     0.63744    -7.42452

  Z AO/shell   Hii/eV     exponent
  1     Wed Apr 25 08:07:45 CEST 2018   EN: 2.200 GM2: 0.406  GM3: 0.0800  RAES: 1.40
     1s    -10.707211    1.230000
  7     Wed Apr 25 08:07:45 CEST 2018   EN: 3.040 GM2: 0.461  GM3:-0.0640  RAES: 1.90
     2s    -16.686243    2.339881
     2p    -12.523956    2.014332
  8     Wed Apr 25 08:07:45 CEST 2018   EN: 3.440 GM2: 0.452  GM3:-0.0517  RAES: 1.80
     2s    -20.229985    2.439742
     2p    -15.503117    2.137023
 16     Tue Apr 24 11:44:34 CEST 2018   EN: 2.580 GM2: 0.340  GM3:-0.0502  RAES: 3.10
     3s    -20.029654    1.981333
     3p    -11.377694    2.025643
     3d     -0.420282    1.702555
 no old-style atom pair restraining (fixing) potential

molecular fragmentation (1/2 indicates fragments):
11111122222222222222222222
# atoms in fragment 1/2:     6    20
 fragment masses (1/2) :       97.07      108.11
CMA distance (Bohr)    :   5.847
constraining FC (au)   :  0.0500
           ------------------------------------------------- 
          |        Self-Consistent Charge Iterations        |
           ------------------------------------------------- 

 Ncao       : 65
 Nao        : 64
 Nshell     : 38
 Nel        : 80
 T(el)      :   300.0
 intcut     :    25.0
 scfconv/Eh :  0.100E-05
   qconv/e  :  0.100E-03
 intneglect :  0.100E-07
 broydamp   :      0.250
 iter      E             dE          RMSdq      gap      omega  full diag
   1    -50.5257521 -0.505258E+02  0.707E+00   10.12       0.0  T
   2    -50.5758428 -0.500907E-01  0.511E+00    9.28       1.0  T
   3    -50.6147453 -0.389024E-01  0.136E+00    5.73       1.0  T
   4    -50.6200968 -0.535149E-02  0.587E-01    6.09       1.0  T
   5    -50.6207430 -0.646225E-03  0.325E-01    6.04       1.0  T
   6    -50.6212191 -0.476112E-03  0.138E-01    6.18       1.0  T
   7    -50.6213245 -0.105385E-03  0.498E-02    6.19       1.0  T
   8    -50.6213364 -0.118785E-04  0.306E-02    6.18       1.0  T
   9    -50.6213417 -0.534229E-05  0.128E-02    6.20       1.5  T
  10    -50.6213428 -0.105648E-05  0.227E-03    6.20       8.7  T
  11    -50.6213428 -0.155782E-07  0.128E-03    6.20      15.3  T
  12    -50.6213428 -0.597452E-08  0.533E-04    6.20      36.8  T
  13    -50.6213428 -0.176373E-08  0.154E-04    6.20     127.7  T
speedup  0.96
cpu  time for SCC    0.01 s
wall time for SCC    0.02 s

   *** convergence criteria satisfied after 13 iterations ***

          eigenvalues
 #    :          28         29         30         31         32         33         34         35
 occ. :        2.000      2.000      2.000      2.000      2.000      2.000      2.000      2.000
 eps  :       -13.080    -12.108    -11.969    -11.898    -11.797    -11.373    -11.280    -11.272
 #    :          36         37         38         39         40         41         42         43
 occ. :        2.000      2.000      2.000      2.000      2.000      0.000      0.000      0.000
 eps  :       -11.057    -10.977    -10.867     -8.798     -8.317     -2.114     -0.457     -0.240
 #    :          44         45         46         47         48         49         50         51
 occ. :        0.000      0.000      0.000      0.000      0.000      0.000      0.000      0.000
 eps  :         0.679      0.806      1.083      2.184      3.348      3.680      3.753      4.607


   #   Z            q   n(s)   n(p)   n(d)      C6AA      α(0)
   1  16 S      1.610  1.583  1.833  0.975    90.846    16.042
   2   8 O     -0.763  1.776  4.988  0.000    30.491     7.403
   3   8 O     -0.770  1.769  5.001  0.000    30.700     7.429
   4   8 O     -0.723  1.765  4.958  0.000    29.345     7.263
   5   8 O     -0.543  1.722  4.820  0.000    23.827     6.590
   6   1 H      0.356  0.644  0.000  0.000     0.566     1.177
   7   8 O     -0.840  1.829  5.011  0.000    32.765     7.676
   8   1 H      0.219  0.781  0.000  0.000     1.027     1.592
   9   8 O     -0.896  1.813  5.083  0.000    34.588     7.887
  10   1 H      0.176  0.824  0.000  0.000     1.249     1.756
  11   8 O     -0.484  1.668  4.815  0.000    22.482     6.404
  12   1 H      0.378  0.622  0.000  0.000     0.527     1.141
  13   1 H      0.393  0.607  0.000  0.000     0.494     1.102
  14   1 H      0.406  0.594  0.000  0.000     0.468     1.072
  15   8 O     -0.478  1.666  4.812  0.000    22.365     6.387
  16   1 H      0.404  0.596  0.000  0.000     0.472     1.077
  17   1 H      0.389  0.611  0.000  0.000     0.503     1.113
  18   1 H      0.387  0.613  0.000  0.000     0.509     1.121
  19   8 O     -0.451  1.653  4.798  0.000    21.800     6.306
  20   1 H      0.381  0.619  0.000  0.000     0.521     1.134
  21   1 H      0.398  0.602  0.000  0.000     0.488     1.097
  22   1 H      0.404  0.596  0.000  0.000     0.471     1.075
  23   7 N     -0.454  1.384  4.069  0.000    31.926     8.392
  24   1 H      0.190  0.810  0.000  0.000     1.157     1.685
  25   1 H      0.159  0.841  0.000  0.000     1.339     1.813
  26   1 H      0.151  0.849  0.000  0.000     1.392     1.848

 Mol. C6AA /au·bohr⁶  :       5560.459994
 Mol. C8AA /au·bohr⁸  :     120401.571438
 Mol. α(0) /au        :        107.581555

 
 Wiberg/Mayer (AO) data. WBOs > 0.1 written file <wbo>
 largest (>0.05) Wiberg bond orders for each atom
           total WBO             WBO to atom ...
     1  S   4.905    O    4 1.335    O    2 1.273    O    3 1.264    O    5 0.995
     2  O   1.683    S    1 1.273    O    4 0.113    O    3 0.112    H   21 0.081    O    5 0.071
     3  O   1.671    S    1 1.264    O    4 0.114    O    2 0.112    O    5 0.071    H   12 0.065
     4  O   1.714    S    1 1.335    O    3 0.114    O    2 0.113    H   18 0.062    O    5 0.054
     5  O   2.048    S    1 0.995    H    6 0.849    O    3 0.071    O    2 0.071    O    4 0.054
     6  H   0.873    O    5 0.849
     7  O   1.650    H    8 0.946    H   22 0.198    H   13 0.161    H   17 0.155    O   19 0.062    O   11 0.055    O   15 0.054
     8  H   0.952    O    7 0.946
     9  O   1.452    H   10 0.943    H   14 0.191    H   16 0.190    O   15 0.058    O   11 0.057
    10  H   0.969    O    9 0.943
    11  O   2.258    H   12 0.782    H   13 0.679    H   14 0.637    O    9 0.057    O    7 0.055
    12  H   0.857    O   11 0.782    O    3 0.065
    13  H   0.846    O   11 0.679    O    7 0.161
    14  H   0.835    O   11 0.637    O    9 0.191
    15  O   2.264    H   18 0.778    H   17 0.689    H   16 0.641    O    9 0.058    O    7 0.054
    16  H   0.837    O   15 0.641    O    9 0.190
    17  H   0.849    O   15 0.689    O    7 0.155
    18  H   0.850    O   15 0.778    O    4 0.062
    19  O   2.290    H   20 0.769    H   21 0.752    H   22 0.634    O    7 0.062
    20  H   0.855    O   19 0.769    N   23 0.080
    21  H   0.841    O   19 0.752    O    2 0.081
    22  H   0.837    O   19 0.634    O    7 0.198
    23  N   3.018    H   26 0.974    H   25 0.971    H   24 0.947    H   20 0.080
    24  H   0.964    N   23 0.947
    25  H   0.975    N   23 0.971
    26  H   0.977    N   23 0.974
 MOs/occ written to file <molden.input>
 
molecular dipole:
                 x           y           z       tot (Debye)
 q only:       -1.337       0.892      -2.497
   full:       -0.567       0.291      -2.827       7.367
molecular quadrupole (traceless):
                xx          xy          yy          xz          yz          zz
 q only:       -3.550      -7.765      -1.575      -8.154       0.198       5.125
  q+dip:       -7.807      -8.797       2.380      -8.910       4.059       5.427
   full:       -8.132      -8.966       2.671      -8.577       4.402       5.461

SCC energy    :     -50.6213428
rep           :       0.2758952
ES            :       0.3168653
AES           :      -0.0694107
AXC           :      -0.0072650
disp          :      -0.0188192
XB            :       0.0000000
fix           :       0.0000000
total E       :     -50.3451284
atomizationE  :       4.8754325     3059.38
(atE without considering molecular charge,
 total energy contains solvation terms)
H-L gap (eV)  :          6.2028
           ------------------------------------------------- 
          |                 ===============                 |
          |                   A N C O P T                   |
          |                 ===============                 |
          |          Approximate Normal Coordinate          |
          |           Rational Function Optimizer           |
           ------------------------------------------------- 
dumping coords to <xtbopt.coord> and <xtbopt.log>
 optlevel               2
 Maxcycle             520
 Maxmicro              25
 Econv         1.000000000000000E-007
 Gconv         2.000000000000000E-004
 Maxdispl       1.00000000000000     
 Hlow          5.000000000000000E-003
 S6             20.0000000000000     
 Nvar               72

generating ANC from model Hessian ...
 Shifting diagonal of input Hessian by   4.888651082109765E-003
 Lowest  eigenvalues of input Hessian
   -0.000000   -0.000000   -0.000000   -0.000000    0.000000    0.000000
    0.005000    0.005059    0.005320    0.006042    0.006254    0.007195
    0.008061    0.008222    0.008845    0.009430    0.010781    0.011223
 Highest eigenvalues
    1.582200    1.590827    1.597794    3.143118    3.217308    3.317893
 
cpu  time for ANC gen    0.02 s
wall time for ANC gen    0.02 s
................................................................................
.............................. CYCLE    1 ......................................
................................................................................
   1    -50.6213428 -0.506213E+02  0.762E-05    6.20       0.0  T
   2    -50.6213428 -0.137490E-10  0.579E-05    6.20     338.6  T
   3    -50.6213428 -0.130527E-10  0.277E-05    6.20     709.2  T
speedup  0.71
cpu  time for SCC    0.00 s
wall time for SCC    0.00 s
speedup  0.98
cpu  time for grad    0.01 s
wall time for grad    0.01 s
 E :    -50.34512832  G :  0.235226    pred/act E change:  0.000D+00  0.478D-07
Maxdispl :   0.1186   ||displ|| :   0.3034   Lambda : -0.455D-01
Largest |displ|/coords:  0.1186 (  54)  0.1107 (  55)  0.1001 (  17)
................................................................................
.............................. CYCLE    2 ......................................
................................................................................
   1    -50.6393475 -0.506393E+02  0.339E-01    6.35       0.0  T
   2    -50.6396208 -0.273300E-03  0.254E-01    6.47       1.0  T
   3    -50.6397559 -0.135177E-03  0.807E-02    6.72       1.0  T
   4    -50.6397743 -0.183136E-04  0.205E-02    6.71       1.0  T
   5    -50.6397754 -0.116309E-05  0.589E-03    6.69       3.3  T
   6    -50.6397755 -0.682662E-07  0.321E-03    6.69       6.1  T
speedup  1.11
cpu  time for SCC    0.01 s
wall time for SCC    0.01 s
speedup  1.05
cpu  time for grad    0.01 s
wall time for grad    0.01 s
 E :    -50.38146062  G :  0.146763    pred/act E change:  0.000D+00 -0.363D-01
Maxdispl :   0.1479   ||displ|| :   0.3247   Lambda : -0.234D-01
Largest |displ|/coords:  0.1479 (  17)  0.1278 (  28)  0.0971 (  21)
................................................................................
.............................. CYCLE    3 ......................................
................................................................................
   1    -50.6481672 -0.506482E+02  0.293E-01    6.86       0.0  T
   2    -50.6485540 -0.386821E-03  0.213E-01    7.01       1.0  T
   3    -50.6487312 -0.177225E-03  0.877E-02    7.27       1.0  T
   4    -50.6487424 -0.111926E-04  0.176E-02    7.27       1.1  T
   5    -50.6487431 -0.657586E-06  0.538E-03    7.26       3.6  T
   6    -50.6487431 -0.605008E-07  0.296E-03    7.26       6.6  T
speedup  0.93
cpu  time for SCC    0.00 s
wall time for SCC    0.01 s
speedup  0.98
cpu  time for grad    0.01 s
wall time for grad    0.01 s
 E :    -50.40024137  G :  0.097041    pred/act E change: -0.249D-01 -0.188D-01
Maxdispl :   0.1392   ||displ|| :   0.3281   Lambda : -0.118D-01
Largest |displ|/coords:  0.1392 (  17)  0.0985 (  13)  0.0901 (  28)
................................................................................
.............................. CYCLE    4 ......................................
................................................................................
   1    -50.6535310 -0.506535E+02  0.236E-01    7.41       0.0  T
   2    -50.6539151 -0.384191E-03  0.163E-01    7.56       1.0  T
   3    -50.6540896 -0.174430E-03  0.743E-02    7.79       1.0  T
   4    -50.6540952 -0.563101E-05  0.147E-02    7.82       1.3  T
   5    -50.6540956 -0.415116E-06  0.483E-03    7.81       4.1  T
   6    -50.6540957 -0.516810E-07  0.272E-03    7.81       7.2  T
speedup  0.93
cpu  time for SCC    0.00 s
wall time for SCC    0.01 s
speedup  0.97
cpu  time for grad    0.01 s
wall time for grad    0.01 s
 E :    -50.40977745  G :  0.067399    pred/act E change: -0.129D-01 -0.954D-02
Maxdispl :   0.1123   ||displ|| :   0.3101   Lambda : -0.616D-02
Largest |displ|/coords:  0.1123 (  13)  0.0927 (   3)  0.0922 (   8)
................................................................................
.............................. CYCLE    5 ......................................
................................................................................
   1    -50.6574895 -0.506575E+02  0.211E-01    7.92       0.0  T
   2    -50.6577447 -0.255152E-03  0.146E-01    8.07       1.0  T
   3    -50.6578622 -0.117566E-03  0.617E-02    8.30       1.0  T
   4    -50.6578678 -0.559384E-05  0.136E-02    8.32       1.4  T
   5    -50.6578682 -0.396174E-06  0.403E-03    8.31       4.9  T
   6    -50.6578683 -0.334518E-07  0.228E-03    8.31       8.6  T
speedup  0.94
cpu  time for SCC    0.00 s
wall time for SCC    0.01 s
speedup  0.96
cpu  time for grad    0.01 s
wall time for grad    0.01 s
 E :    -50.41494369  G :  0.048686    pred/act E change: -0.654D-02 -0.517D-02
Maxdispl :   0.2827   ||displ|| :   0.5267   Lambda : -0.950D-02
Largest |displ|/coords:  0.2827 (  10)  0.1643 (  11)  0.1629 (   8)
................................................................................
.............................. CYCLE    6 ......................................
................................................................................
   1    -50.6568626 -0.506569E+02  0.695E-01    8.49       0.0  T
   2    -50.6585220 -0.165934E-02  0.491E-01    8.88       1.0  T
   3    -50.6592185 -0.696558E-03  0.178E-01    9.02       1.0  T
   4    -50.6592888 -0.702656E-04  0.386E-02    9.03       1.0  T
   5    -50.6592931 -0.428407E-05  0.138E-02    9.03       1.4  T
   6    -50.6592937 -0.660345E-06  0.648E-03    9.03       3.0  T
   7    -50.6592938 -0.755656E-07  0.206E-03    9.03       9.5  T
   8    -50.6592938 -0.120506E-07  0.558E-04    9.03      35.1  T
speedup  1.00
cpu  time for SCC    0.01 s
wall time for SCC    0.01 s
speedup  0.99
cpu  time for grad    0.01 s
wall time for grad    0.02 s
 E :    -50.42147628  G :  0.052703    pred/act E change: -0.337D-02 -0.653D-02
Maxdispl :   0.1415   ||displ|| :   0.3228   Lambda : -0.409D-02
Largest |displ|/coords:  0.1415 (   1)  0.1168 (  11)  0.1104 (   7)
................................................................................
.............................. CYCLE    7 ......................................
................................................................................
   1    -50.6699832 -0.506700E+02  0.252E-01    8.93       0.0  T
   2    -50.6700550 -0.718289E-04  0.190E-01    8.92       1.0  T
   3    -50.6700934 -0.383294E-04  0.393E-02    8.90       1.0  T
   4    -50.6701037 -0.103570E-04  0.968E-03    8.91       2.0  T
   5    -50.6701039 -0.156614E-06  0.360E-03    8.91       5.5  T
   6    -50.6701039 -0.185653E-07  0.138E-03    8.91      14.2  T
speedup  0.94
cpu  time for SCC    0.00 s
wall time for SCC    0.01 s
speedup  0.98
cpu  time for grad    0.01 s
wall time for grad    0.01 s
 E :    -50.42303340  G :  0.034991    pred/act E change: -0.607D-02 -0.156D-02
Maxdispl :   0.3114   ||displ|| :   0.5170   Lambda : -0.589D-02
Largest |displ|/coords:  0.3114 (  10)  0.1817 (   8)  0.1406 (  11)
................................................................................
.............................. CYCLE    8 ......................................
................................................................................
   1    -50.6705844 -0.506706E+02  0.664E-01    8.79       0.0  T
   2    -50.6718245 -0.124008E-02  0.465E-01    8.75       1.0  T
   3    -50.6723259 -0.501428E-03  0.159E-01    8.69       1.0  T
   4    -50.6723870 -0.611061E-04  0.316E-02    8.70       1.0  T
   5    -50.6723898 -0.278606E-05  0.126E-02    8.70       1.6  T
   6    -50.6723906 -0.762688E-06  0.629E-03    8.70       3.1  T
   7    -50.6723906 -0.461261E-07  0.149E-03    8.70      13.2  T
   8    -50.6723906 -0.819642E-08  0.424E-04    8.70      46.2  T
speedup  0.86
cpu  time for SCC    0.01 s
wall time for SCC    0.01 s
speedup  0.93
cpu  time for grad    0.01 s
wall time for grad    0.01 s
 E :    -50.42624916  G :  0.054960    pred/act E change: -0.226D-02 -0.322D-02
Maxdispl :   0.2055   ||displ|| :   0.3360   Lambda : -0.540D-02
Largest |displ|/coords:  0.2055 (   7)  0.1196 (  13)  0.1140 (  11)
................................................................................
.............................. CYCLE    9 ......................................
................................................................................
   1    -50.6839627 -0.506840E+02  0.350E-01    8.80       0.0  T
   2    -50.6841244 -0.161717E-03  0.254E-01    8.80       1.0  T
   3    -50.6842053 -0.808893E-04  0.651E-02    8.81       1.0  T
   4    -50.6842201 -0.148522E-04  0.191E-02    8.80       1.0  T
   5    -50.6842209 -0.730631E-06  0.598E-03    8.80       3.3  T
   6    -50.6842209 -0.208474E-07  0.291E-03    8.80       6.7  T
speedup  0.93
cpu  time for SCC    0.00 s
wall time for SCC    0.01 s
speedup  0.98
cpu  time for grad    0.01 s
wall time for grad    0.01 s
 E :    -50.42715798  G :  0.043589    pred/act E change: -0.373D-02 -0.909D-03
Maxdispl :   0.1639   ||displ|| :   0.3279   Lambda : -0.395D-02
Largest |displ|/coords:  0.1639 (   1)  0.1528 (   7)  0.1160 (   6)
................................................................................
.............................. CYCLE   10 ......................................
................................................................................
   1    -50.6844835 -0.506845E+02  0.268E-01    8.76       0.0  T
   2    -50.6845756 -0.921063E-04  0.198E-01    8.75       1.0  T
   3    -50.6846263 -0.506741E-04  0.491E-02    8.71       1.0  T
   4    -50.6846380 -0.117163E-04  0.105E-02    8.71       1.9  T
   5    -50.6846382 -0.158169E-06  0.470E-03    8.71       4.2  T
   6    -50.6846382 -0.297804E-07  0.217E-03    8.71       9.0  T
speedup  0.93
cpu  time for SCC    0.01 s
wall time for SCC    0.01 s
speedup  0.98
cpu  time for grad    0.01 s
wall time for grad    0.01 s
 E :    -50.42993996  G :  0.032427    pred/act E change: -0.300D-02 -0.278D-02
Maxdispl :   0.1911   ||displ|| :   0.4590   Lambda : -0.626D-02
Largest |displ|/coords:  0.1911 (  10)  0.1484 (  11)  0.1143 (  15)
................................................................................
.............................. CYCLE   11 ......................................
................................................................................
   1    -50.6846416 -0.506846E+02  0.531E-01    8.62       0.0  T
   2    -50.6852332 -0.591650E-03  0.375E-01    8.57       1.0  T
   3    -50.6854953 -0.262042E-03  0.117E-01    8.48       1.0  T
   4    -50.6855366 -0.413002E-04  0.221E-02    8.48       1.0  T
   5    -50.6855374 -0.840822E-06  0.102E-02    8.48       1.9  T
   6    -50.6855377 -0.338435E-06  0.493E-03    8.48       4.0  T
   7    -50.6855378 -0.317806E-07  0.117E-03    8.48      16.7  T
speedup  0.97
cpu  time for SCC    0.01 s
wall time for SCC    0.01 s
speedup  0.99
cpu  time for grad    0.01 s
wall time for grad    0.01 s
 E :    -50.43081861  G :  0.065927    pred/act E change: -0.219D-02 -0.879D-03
Maxdispl :   0.1147   ||displ|| :   0.2937   Lambda : -0.861D-02
Largest |displ|/coords:  0.1147 (  11)  0.1125 (  15)  0.1073 (  10)
................................................................................
.............................. CYCLE   12 ......................................
................................................................................
   1    -50.6945108 -0.506945E+02  0.396E-01    8.60       0.0  T
   2    -50.6947519 -0.241104E-03  0.283E-01    8.61       1.0  T
   3    -50.6948701 -0.118259E-03  0.742E-02    8.63       1.0  T
   4    -50.6948887 -0.186002E-04  0.146E-02    8.62       1.3  T
   5    -50.6948892 -0.418775E-06  0.654E-03    8.62       3.0  T
   6    -50.6948892 -0.391578E-07  0.300E-03    8.62       6.5  T
   7    -50.6948892 -0.276219E-07  0.677E-04    8.62      29.0  T
speedup  1.09
cpu  time for SCC    0.01 s
wall time for SCC    0.01 s
speedup  1.05
cpu  time for grad    0.01 s
wall time for grad    0.01 s
 E :    -50.43346421  G :  0.029917    pred/act E change: -0.379D-02 -0.265D-02
Maxdispl :   0.0868   ||displ|| :   0.2257   Lambda : -0.243D-02
Largest |displ|/coords:  0.0868 (  12)  0.0712 (  13)  0.0674 (   8)
................................................................................
.............................. CYCLE   13 ......................................
................................................................................
   1    -50.6965922 -0.506966E+02  0.191E-01    8.61       0.0  T
   2    -50.6966499 -0.577842E-04  0.140E-01    8.59       1.0  T
   3    -50.6966812 -0.312761E-04  0.389E-02    8.55       1.0  T
   4    -50.6966872 -0.593758E-05  0.815E-03    8.55       2.4  T
   5    -50.6966872 -0.918587E-07  0.356E-03    8.55       5.5  T
   6    -50.6966873 -0.135505E-07  0.165E-03    8.55      11.9  T
speedup  1.13
cpu  time for SCC    0.01 s
wall time for SCC    0.01 s
speedup  0.98
cpu  time for grad    0.01 s
wall time for grad    0.01 s
 E :    -50.43529879  G :  0.027419    pred/act E change: -0.468D-02 -0.183D-02
Maxdispl :   0.1357   ||displ|| :   0.3981   Lambda : -0.350D-02
Largest |displ|/coords:  0.1357 (  12)  0.1168 (  13)  0.1159 (  15)
................................................................................
.............................. CYCLE   14 ......................................
................................................................................
   1    -50.7010981 -0.507011E+02  0.290E-01    8.54       0.0  T
   2    -50.7011881 -0.899162E-04  0.214E-01    8.51       1.0  T
   3    -50.7012414 -0.533635E-04  0.512E-02    8.45       1.0  T
   4    -50.7012512 -0.976294E-05  0.140E-02    8.46       1.4  T
   5    -50.7012514 -0.255050E-06  0.504E-03    8.46       3.9  T
   6    -50.7012515 -0.296714E-07  0.269E-03    8.46       7.3  T
speedup  0.94
cpu  time for SCC    0.01 s
wall time for SCC    0.01 s
speedup  0.98
cpu  time for grad    0.01 s
wall time for grad    0.01 s
 E :    -50.43680636  G :  0.030070    pred/act E change: -0.128D-02 -0.151D-02
Maxdispl :   0.0825   ||displ|| :   0.2028   Lambda : -0.173D-02
Largest |displ|/coords:  0.0825 (   1)  0.0615 (  12)  0.0591 (   9)
................................................................................
.............................. CYCLE   15 ......................................
................................................................................
   1    -50.7036175 -0.507036E+02  0.118E-01    8.50       0.0  T
   2    -50.7036378 -0.203200E-04  0.857E-02    8.48       1.0  T
   3    -50.7036477 -0.996364E-05  0.229E-02    8.45       1.0  T
   4    -50.7036496 -0.187927E-05  0.434E-03    8.46       4.5  T
   5    -50.7036496 -0.248087E-07  0.186E-03    8.46      10.6  T
speedup  0.89
cpu  time for SCC    0.00 s
wall time for SCC    0.00 s
speedup  0.97
cpu  time for grad    0.01 s
wall time for grad    0.01 s
 E :    -50.43784231  G :  0.025175    pred/act E change: -0.203D-02 -0.104D-02
Maxdispl :   0.0574   ||displ|| :   0.1550   Lambda : -0.121D-02
Largest |displ|/coords:  0.0574 (  13)  0.0517 (  19)  0.0412 (  30)
................................................................................
.............................. CYCLE   16 ......................................
................................................................................
   1    -50.7051059 -0.507051E+02  0.105E-01    8.52       0.0  T
   2    -50.7051482 -0.423383E-04  0.715E-02    8.52       1.0  T
   3    -50.7051681 -0.198980E-04  0.266E-02    8.52       1.0  T
   4    -50.7051698 -0.167469E-05  0.504E-03    8.52       3.9  T
   5    -50.7051698 -0.483433E-07  0.226E-03    8.52       8.7  T
speedup  0.89
cpu  time for SCC    0.00 s
wall time for SCC    0.00 s
speedup  0.97
cpu  time for grad    0.01 s
wall time for grad    0.01 s
 E :    -50.43829269  G :  0.015289    pred/act E change: -0.902D-03 -0.450D-03
Maxdispl :   0.0725   ||displ|| :   0.1530   Lambda : -0.717D-03
Largest |displ|/coords:  0.0725 (   9)  0.0641 (   7)  0.0402 (  27)
................................................................................
.............................. CYCLE   17 ......................................
................................................................................
   1    -50.7100114 -0.507100E+02  0.108E-01    8.51       0.0  T
   2    -50.7100304 -0.190244E-04  0.810E-02    8.50       1.0  T
   3    -50.7100435 -0.131341E-04  0.235E-02    8.48       1.0  T
   4    -50.7100457 -0.214899E-05  0.521E-03    8.48       3.8  T
   5    -50.7100457 -0.244157E-07  0.211E-03    8.48       9.3  T
   6    -50.7100457 -0.319152E-08  0.613E-04    8.48      32.0  T
speedup  0.93
cpu  time for SCC    0.00 s
wall time for SCC    0.01 s
speedup  0.98
cpu  time for grad    0.01 s
wall time for grad    0.01 s
 E :    -50.43863073  G :  0.012385    pred/act E change: -0.622D-03 -0.338D-03
Maxdispl :   0.0576   ||displ|| :   0.1181   Lambda : -0.463D-03
Largest |displ|/coords:  0.0576 (   6)  0.0424 (   1)  0.0319 (  27)
................................................................................
.............................. CYCLE   18 ......................................
................................................................................
   1    -50.7089502 -0.507090E+02  0.930E-02    8.47       0.0  T
   2    -50.7089575 -0.730499E-05  0.696E-02    8.47       1.0  T
   3    -50.7089612 -0.377145E-05  0.136E-02    8.46       1.4  T
   4    -50.7089623 -0.111208E-05  0.352E-03    8.46       5.6  T
   5    -50.7089624 -0.159445E-07  0.123E-03    8.46      16.0  T
   6    -50.7089624 -0.173061E-08  0.581E-04    8.46      33.8  T
speedup  0.93
cpu  time for SCC    0.00 s
wall time for SCC    0.01 s
speedup  0.96
cpu  time for grad    0.01 s
wall time for grad    0.01 s
 E :    -50.43891881  G :  0.014955    pred/act E change: -0.367D-03 -0.288D-03
Maxdispl :   0.0558   ||displ|| :   0.1380   Lambda : -0.406D-03
Largest |displ|/coords:  0.0558 (   6)  0.0488 (  17)  0.0459 (  16)
................................................................................
.............................. CYCLE   19 ......................................
................................................................................
   1    -50.7077206 -0.507077E+02  0.962E-02    8.44       0.0  T
   2    -50.7077382 -0.176184E-04  0.704E-02    8.43       1.0  T
   3    -50.7077455 -0.734901E-05  0.202E-02    8.43       1.0  T
   4    -50.7077473 -0.180787E-05  0.539E-03    8.43       3.6  T
   5    -50.7077474 -0.316733E-07  0.155E-03    8.43      12.7  T
   6    -50.7077474 -0.277292E-08  0.845E-04    8.43      23.2  T
speedup  0.94
cpu  time for SCC    0.01 s
wall time for SCC    0.01 s
speedup  0.98
cpu  time for grad    0.01 s
wall time for grad    0.01 s
 E :    -50.43924374  G :  0.015223    pred/act E change: -0.235D-03 -0.325D-03
Maxdispl :   0.1589   ||displ|| :   0.3965   Lambda : -0.101D-02
Largest |displ|/coords:  0.1589 (  16)  0.1532 (   1)  0.1293 (   3)
................................................................................
.............................. CYCLE   20 ......................................
................................................................................
   1    -50.7067970 -0.507068E+02  0.262E-01    8.34       0.0  T
   2    -50.7069438 -0.146820E-03  0.192E-01    8.34       1.0  T
   3    -50.7070077 -0.638729E-04  0.590E-02    8.34       1.0  T
   4    -50.7070214 -0.137824E-04  0.140E-02    8.33       1.4  T
   5    -50.7070217 -0.229171E-06  0.491E-03    8.33       4.0  T
   6    -50.7070217 -0.272036E-07  0.231E-03    8.33       8.5  T
   7    -50.7070217 -0.742475E-08  0.803E-04    8.33      24.4  T
speedup  0.97
cpu  time for SCC    0.01 s
wall time for SCC    0.01 s
speedup  0.99
cpu  time for grad    0.01 s
wall time for grad    0.01 s
 E :    -50.43997997  G :  0.023050    pred/act E change: -0.207D-03 -0.736D-03
Maxdispl :   0.1984   ||displ|| :   0.4633   Lambda : -0.139D-02
Largest |displ|/coords:  0.1984 (  16)  0.1606 (   6)  0.1579 (   3)
................................................................................
.............................. CYCLE   21 ......................................
................................................................................
   1    -50.7071644 -0.507072E+02  0.312E-01    8.17       0.0  T
   2    -50.7073503 -0.185919E-03  0.229E-01    8.17       1.0  T
   3    -50.7074395 -0.892623E-04  0.692E-02    8.16       1.0  T
   4    -50.7074582 -0.186930E-04  0.178E-02    8.16       1.1  T
   5    -50.7074586 -0.392837E-06  0.609E-03    8.16       3.2  T
   6    -50.7074587 -0.357629E-07  0.297E-03    8.16       6.6  T
   7    -50.7074587 -0.119049E-07  0.103E-03    8.16      19.1  T
speedup  0.97
cpu  time for SCC    0.01 s
wall time for SCC    0.01 s
speedup  0.99
cpu  time for grad    0.01 s
wall time for grad    0.01 s
 E :    -50.44087530  G :  0.029102    pred/act E change: -0.584D-03 -0.895D-03
Maxdispl :   0.1517   ||displ|| :   0.3033   Lambda : -0.150D-02
Largest |displ|/coords:  0.1517 (   1)  0.1330 (  16)  0.1073 (   3)
................................................................................
.............................. CYCLE   22 ......................................
................................................................................
   1    -50.7122839 -0.507123E+02  0.175E-01    8.12       0.0  T
   2    -50.7123507 -0.668610E-04  0.129E-01    8.12       1.0  T
   3    -50.7123865 -0.357592E-04  0.428E-02    8.11       1.0  T
   4    -50.7123925 -0.603326E-05  0.991E-03    8.11       2.0  T
   5    -50.7123927 -0.180395E-06  0.426E-03    8.11       4.6  T
   6    -50.7123927 -0.135490E-07  0.184E-03    8.11      10.6  T
speedup  0.94
cpu  time for SCC    0.01 s
wall time for SCC    0.01 s
speedup  0.98
cpu  time for grad    0.01 s
wall time for grad    0.01 s
 E :    -50.44192782  G :  0.027334    pred/act E change: -0.842D-03 -0.105D-02
Maxdispl :   0.1889   ||displ|| :   0.3271   Lambda : -0.274D-02
Largest |displ|/coords:  0.1889 (   8)  0.0926 (   7)  0.0836 (   1)
................................................................................
.............................. CYCLE   23 ......................................
................................................................................
   1    -50.7248772 -0.507249E+02  0.176E-01    8.18       0.0  T
   2    -50.7249221 -0.448425E-04  0.130E-01    8.17       1.0  T
   3    -50.7249445 -0.224341E-04  0.379E-02    8.15       1.0  T
   4    -50.7249483 -0.380379E-05  0.120E-02    8.15       1.6  T
   5    -50.7249487 -0.379559E-06  0.363E-03    8.15       5.4  T
   6    -50.7249487 -0.119467E-07  0.194E-03    8.15      10.1  T
speedup  1.13
cpu  time for SCC    0.01 s
wall time for SCC    0.01 s
speedup  1.07
cpu  time for grad    0.01 s
wall time for grad    0.01 s
 E :    -50.44311596  G :  0.027639    pred/act E change: -0.818D-03 -0.119D-02
Maxdispl :   0.1750   ||displ|| :   0.3174   Lambda : -0.179D-02
Largest |displ|/coords:  0.1750 (   1)  0.0851 (  14)  0.0849 (   3)
................................................................................
.............................. CYCLE   24 ......................................
................................................................................
   1    -50.7187381 -0.507187E+02  0.193E-01    8.17       0.0  T
   2    -50.7187535 -0.153535E-04  0.145E-01    8.17       1.0  T
   3    -50.7187667 -0.132737E-04  0.230E-02    8.17       1.0  T
   4    -50.7187685 -0.171903E-05  0.880E-03    8.16       2.2  T
   5    -50.7187685 -0.908530E-07  0.284E-03    8.16       6.9  T
   6    -50.7187686 -0.119877E-07  0.138E-03    8.16      14.2  T
speedup  0.94
cpu  time for SCC    0.00 s
wall time for SCC    0.01 s
speedup  0.98
cpu  time for grad    0.01 s
wall time for grad    0.01 s
 E :    -50.44378301  G :  0.022240    pred/act E change: -0.152D-02 -0.667D-03
Maxdispl :   0.0475   ||displ|| :   0.1316   Lambda : -0.830D-03
Largest |displ|/coords:  0.0475 (   3)  0.0447 (   1)  0.0402 (   9)
................................................................................
.............................. CYCLE   25 ......................................
................................................................................
   1    -50.7205890 -0.507206E+02  0.822E-02    8.22       0.0  T
   2    -50.7205955 -0.652569E-05  0.597E-02    8.22       1.0  T
   3    -50.7205985 -0.305162E-05  0.159E-02    8.23       1.2  T
   4    -50.7205991 -0.574598E-06  0.437E-03    8.23       4.5  T
   5    -50.7205992 -0.477280E-07  0.137E-03    8.23      14.3  T
speedup  0.83
cpu  time for SCC    0.00 s
wall time for SCC    0.00 s
speedup  0.95
cpu  time for grad    0.01 s
wall time for grad    0.01 s
 E :    -50.44435058  G :  0.012945    pred/act E change: -0.983D-03 -0.568D-03
Maxdispl :   0.0673   ||displ|| :   0.1844   Lambda : -0.612D-03
Largest |displ|/coords:  0.0673 (   9)  0.0626 (  15)  0.0591 (  12)

generating ANC from model Hessian ...
 Shifting diagonal of input Hessian by   4.942793899902935E-003
 Lowest  eigenvalues of input Hessian
   -0.000000   -0.000000    0.000000    0.000000    0.000000    0.000000
    0.005000    0.005280    0.005694    0.006406    0.006721    0.006914
    0.007666    0.008697    0.009137    0.009827    0.012540    0.012601
 Highest eigenvalues
    1.378209    1.394059    1.411775    2.568731    3.538852    3.646277
 
cpu  time for ANC gen    0.02 s
wall time for ANC gen    0.02 s
................................................................................
.............................. CYCLE   26 ......................................
................................................................................
   1    -50.7222885 -0.507223E+02  0.862E-02    8.32       0.0  T
   2    -50.7222937 -0.517325E-05  0.636E-02    8.33       1.0  T
   3    -50.7222958 -0.212858E-05  0.165E-02    8.34       1.2  T
   4    -50.7222964 -0.633147E-06  0.473E-03    8.34       4.1  T
   5    -50.7222964 -0.328732E-07  0.123E-03    8.34      16.0  T
   6    -50.7222965 -0.230518E-08  0.667E-04    8.34      29.4  T
   7    -50.7222965 -0.998227E-09  0.287E-04    8.34      68.2  T
speedup  1.11
cpu  time for SCC    0.01 s
wall time for SCC    0.01 s
speedup  1.02
cpu  time for grad    0.01 s
wall time for grad    0.01 s
 E :    -50.44477093  G :  0.007277    pred/act E change:  0.000D+00 -0.420D-03
Maxdispl :   0.0962   ||displ|| :   0.1868   Lambda : -0.460D-03
Largest |displ|/coords:  0.0962 (   6)  0.0877 (   5)  0.0705 (   4)
................................................................................
.............................. CYCLE   27 ......................................
................................................................................
   1    -50.7221015 -0.507221E+02  0.997E-02    8.34       0.0  T
   2    -50.7221058 -0.425657E-05  0.751E-02    8.33       1.0  T
   3    -50.7221081 -0.236031E-05  0.116E-02    8.33       1.7  T
   4    -50.7221089 -0.744889E-06  0.241E-03    8.33       8.1  T
   5    -50.7221089 -0.754107E-08  0.133E-03    8.33      14.8  T
speedup  0.89
cpu  time for SCC    0.00 s
wall time for SCC    0.00 s
speedup  0.97
cpu  time for grad    0.01 s
wall time for grad    0.01 s
 E :    -50.44505116  G :  0.006033    pred/act E change:  0.000D+00 -0.280D-03
Maxdispl :   0.0816   ||displ|| :   0.1827   Lambda : -0.286D-03
Largest |displ|/coords:  0.0816 (  10)  0.0597 (   4)  0.0562 (   3)
................................................................................
.............................. CYCLE   28 ......................................
................................................................................
   1    -50.7222217 -0.507222E+02  0.103E-01    8.33       0.0  T
   2    -50.7222243 -0.259574E-05  0.774E-02    8.32       1.0  T
   3    -50.7222264 -0.207407E-05  0.924E-03    8.32       2.1  T
   4    -50.7222267 -0.357356E-06  0.251E-03    8.32       7.8  T
   5    -50.7222267 -0.575981E-08  0.117E-03    8.32      16.8  T
speedup  0.89
cpu  time for SCC    0.00 s
wall time for SCC    0.00 s
speedup  0.97
cpu  time for grad    0.01 s
wall time for grad    0.01 s
 E :    -50.44524685  G :  0.005072    pred/act E change: -0.238D-03 -0.196D-03
Maxdispl :   0.0813   ||displ|| :   0.2050   Lambda : -0.181D-03
Largest |displ|/coords:  0.0813 (  10)  0.0745 (   3)  0.0714 (   2)
................................................................................
.............................. CYCLE   29 ......................................
................................................................................
   1    -50.7223763 -0.507224E+02  0.103E-01    8.32       0.0  T
   2    -50.7223782 -0.192212E-05  0.770E-02    8.32       1.0  T
   3    -50.7223798 -0.160871E-05  0.843E-03    8.32       2.3  T
   4    -50.7223801 -0.242372E-06  0.272E-03    8.32       7.2  T
   5    -50.7223801 -0.684406E-08  0.105E-03    8.32      18.7  T
speedup  1.11
cpu  time for SCC    0.01 s
wall time for SCC    0.00 s
speedup  1.06
cpu  time for grad    0.01 s
wall time for grad    0.01 s
 E :    -50.44537001  G :  0.004445    pred/act E change: -0.148D-03 -0.123D-03
Maxdispl :   0.0770   ||displ|| :   0.1732   Lambda : -0.118D-03
Largest |displ|/coords:  0.0770 (   2)  0.0754 (   3)  0.0560 (   4)
................................................................................
.............................. CYCLE   30 ......................................
................................................................................
   1    -50.7229205 -0.507229E+02  0.834E-02    8.33       0.0  T
   2    -50.7229220 -0.152476E-05  0.625E-02    8.33       1.0  T
   3    -50.7229233 -0.130246E-05  0.711E-03    8.33       2.8  T
   4    -50.7229235 -0.179932E-06  0.322E-03    8.33       6.1  T
   5    -50.7229235 -0.957314E-08  0.914E-04    8.33      21.5  T
   6    -50.7229235 -0.110973E-08  0.527E-04    8.33      37.2  T
speedup  1.11
cpu  time for SCC    0.01 s
wall time for SCC    0.01 s
speedup  0.98
cpu  time for grad    0.01 s
wall time for grad    0.01 s
 E :    -50.44545353  G :  0.003563    pred/act E change: -0.941D-04 -0.835D-04
Maxdispl :   0.0865   ||displ|| :   0.1802   Lambda : -0.950D-04
Largest |displ|/coords:  0.0865 (   2)  0.0817 (   3)  0.0626 (   7)
................................................................................
.............................. CYCLE   31 ......................................
................................................................................
   1    -50.7234705 -0.507235E+02  0.833E-02    8.34       0.0  T
   2    -50.7234720 -0.154594E-05  0.621E-02    8.34       1.0  T
   3    -50.7234733 -0.129344E-05  0.787E-03    8.35       2.5  T
   4    -50.7234735 -0.173963E-06  0.295E-03    8.34       6.6  T
   5    -50.7234735 -0.891134E-08  0.928E-04    8.34      21.1  T
   6    -50.7234735 -0.117538E-08  0.535E-04    8.34      36.6  T
speedup  1.11
cpu  time for SCC    0.01 s
wall time for SCC    0.01 s
speedup  1.01
cpu  time for grad    0.01 s
wall time for grad    0.01 s
 E :    -50.44552168  G :  0.003752    pred/act E change: -0.605D-04 -0.682D-04
Maxdispl :   0.1243   ||displ|| :   0.2366   Lambda : -0.978D-04
Largest |displ|/coords:  0.1243 (   3)  0.1068 (   2)  0.0897 (   1)
................................................................................
.............................. CYCLE   32 ......................................
................................................................................
   1    -50.7232665 -0.507233E+02  0.109E-01    8.35       0.0  T
   2    -50.7232690 -0.255138E-05  0.814E-02    8.35       1.0  T
   3    -50.7232711 -0.207792E-05  0.102E-02    8.35       1.9  T
   4    -50.7232714 -0.293531E-06  0.377E-03    8.35       5.2  T
   5    -50.7232714 -0.150175E-07  0.116E-03    8.35      16.9  T
   6    -50.7232714 -0.146308E-08  0.668E-04    8.35      29.4  T
   7    -50.7232714 -0.816314E-09  0.162E-04    8.35     121.4  T
speedup  0.97
cpu  time for SCC    0.01 s
wall time for SCC    0.01 s
speedup  1.03
cpu  time for grad    0.01 s
wall time for grad    0.01 s
 E :    -50.44558529  G :  0.004753    pred/act E change: -0.490D-04 -0.636D-04
Maxdispl :   0.1159   ||displ|| :   0.2331   Lambda : -0.107D-03
Largest |displ|/coords:  0.1159 (   3)  0.0977 (   2)  0.0963 (   1)
................................................................................
.............................. CYCLE   33 ......................................
................................................................................
   1    -50.7236517 -0.507237E+02  0.938E-02    8.35       0.0  T
   2    -50.7236542 -0.248098E-05  0.695E-02    8.36       1.0  T
   3    -50.7236562 -0.206032E-05  0.117E-02    8.36       1.7  T
   4    -50.7236565 -0.272995E-06  0.345E-03    8.36       5.7  T
   5    -50.7236565 -0.165203E-07  0.119E-03    8.36      16.4  T
   6    -50.7236565 -0.193333E-08  0.675E-04    8.36      29.1  T
speedup  0.94
cpu  time for SCC    0.00 s
wall time for SCC    0.01 s
speedup  0.98
cpu  time for grad    0.01 s
wall time for grad    0.01 s
 E :    -50.44564738  G :  0.004741    pred/act E change: -0.516D-04 -0.621D-04
Maxdispl :   0.1196   ||displ|| :   0.2027   Lambda : -0.798D-04
Largest |displ|/coords:  0.1196 (   3)  0.0740 (   1)  0.0704 (   2)
................................................................................
.............................. CYCLE   34 ......................................
................................................................................
   1    -50.7226693 -0.507227E+02  0.930E-02    8.35       0.0  T
   2    -50.7226711 -0.175900E-05  0.693E-02    8.34       1.0  T
   3    -50.7226726 -0.154830E-05  0.994E-03    8.34       2.0  T
   4    -50.7226728 -0.192502E-06  0.279E-03    8.34       7.0  T
   5    -50.7226728 -0.105222E-07  0.991E-04    8.34      19.8  T
speedup  0.91
cpu  time for SCC    0.00 s
wall time for SCC    0.00 s
speedup  0.98
cpu  time for grad    0.01 s
wall time for grad    0.01 s
 E :    -50.44569771  G :  0.004399    pred/act E change: -0.564D-04 -0.503D-04
Maxdispl :   0.1043   ||displ|| :   0.1811   Lambda : -0.101D-03
Largest |displ|/coords:  0.1043 (   3)  0.0999 (   8)  0.0506 (   1)
................................................................................
.............................. CYCLE   35 ......................................
................................................................................
   1    -50.7230810 -0.507231E+02  0.723E-02    8.34       0.0  T
   2    -50.7230830 -0.194211E-05  0.539E-02    8.34       1.0  T
   3    -50.7230844 -0.142277E-05  0.989E-03    8.33       2.0  T
   4    -50.7230846 -0.253747E-06  0.230E-03    8.33       8.5  T
   5    -50.7230846 -0.107984E-07  0.909E-04    8.33      21.6  T
speedup  0.89
cpu  time for SCC    0.00 s
wall time for SCC    0.00 s
speedup  0.98
cpu  time for grad    0.01 s
wall time for grad    0.01 s
 E :    -50.44575399  G :  0.004570    pred/act E change: -0.416D-04 -0.563D-04
Maxdispl :   0.1146   ||displ|| :   0.1805   Lambda : -0.664D-04
Largest |displ|/coords:  0.1146 (   3)  0.0727 (   2)  0.0720 (   8)
................................................................................
.............................. CYCLE   36 ......................................
................................................................................
   1    -50.7218533 -0.507219E+02  0.836E-02    8.33       0.0  T
   2    -50.7218548 -0.148761E-05  0.619E-02    8.33       1.0  T
   3    -50.7218559 -0.116072E-05  0.945E-03    8.33       2.1  T
   4    -50.7218561 -0.183716E-06  0.292E-03    8.33       6.7  T
   5    -50.7218561 -0.973659E-08  0.878E-04    8.33      22.3  T
speedup  1.11
cpu  time for SCC    0.00 s
wall time for SCC    0.00 s
speedup  1.06
cpu  time for grad    0.01 s
wall time for grad    0.01 s
 E :    -50.44580113  G :  0.004685    pred/act E change: -0.521D-04 -0.471D-04
Maxdispl :   0.1231   ||displ|| :   0.1842   Lambda : -0.914D-04
Largest |displ|/coords:  0.1231 (   3)  0.0698 (   8)  0.0480 (   4)
................................................................................
.............................. CYCLE   37 ......................................
................................................................................
   1    -50.7221691 -0.507222E+02  0.889E-02    8.34       0.0  T
   2    -50.7221711 -0.194841E-05  0.662E-02    8.34       1.0  T
   3    -50.7221726 -0.150514E-05  0.110E-02    8.34       1.8  T
   4    -50.7221728 -0.260748E-06  0.328E-03    8.34       6.0  T
   5    -50.7221729 -0.130846E-07  0.902E-04    8.34      21.8  T
   6    -50.7221729 -0.980123E-09  0.549E-04    8.34      35.7  T
speedup  1.11
cpu  time for SCC    0.01 s
wall time for SCC    0.01 s
speedup  1.04
cpu  time for grad    0.01 s
wall time for grad    0.01 s
 E :    -50.44585723  G :  0.004094    pred/act E change: -0.343D-04 -0.561D-04
Maxdispl :   0.1276   ||displ|| :   0.1867   Lambda : -0.585D-04
Largest |displ|/coords:  0.1276 (   3)  0.0703 (   2)  0.0485 (   8)
................................................................................
.............................. CYCLE   38 ......................................
................................................................................
   1    -50.7216129 -0.507216E+02  0.867E-02    8.34       0.0  T
   2    -50.7216145 -0.160230E-05  0.645E-02    8.34       1.0  T
   3    -50.7216158 -0.128459E-05  0.922E-03    8.34       2.1  T
   4    -50.7216160 -0.195512E-06  0.330E-03    8.34       5.9  T
   5    -50.7216160 -0.108343E-07  0.844E-04    8.34      23.2  T
   6    -50.7216160 -0.949051E-09  0.516E-04    8.34      38.0  T
speedup  1.11
cpu  time for SCC    0.01 s
wall time for SCC    0.01 s
speedup  0.98
cpu  time for grad    0.01 s
wall time for grad    0.01 s
 E :    -50.44589451  G :  0.005418    pred/act E change: -0.473D-04 -0.373D-04
Maxdispl :   0.0694   ||displ|| :   0.1058   Lambda : -0.678D-04
Largest |displ|/coords:  0.0694 (   3)  0.0334 (  15)  0.0235 (  37)
................................................................................
.............................. CYCLE   39 ......................................
................................................................................
   1    -50.7234702 -0.507235E+02  0.529E-02    8.36       0.0  T
   2    -50.7234710 -0.845131E-06  0.396E-02    8.36       1.0  T
   3    -50.7234717 -0.677688E-06  0.601E-03    8.36       3.3  T
   4    -50.7234718 -0.979578E-07  0.182E-03    8.36      10.8  T
   5    -50.7234718 -0.531564E-08  0.545E-04    8.36      36.0  T
speedup  0.89
cpu  time for SCC    0.00 s
wall time for SCC    0.00 s
speedup  0.97
cpu  time for grad    0.01 s
wall time for grad    0.01 s
 E :    -50.44593669  G :  0.003881    pred/act E change: -0.302D-04 -0.422D-04
Maxdispl :   0.1769   ||displ|| :   0.2597   Lambda : -0.618D-04
Largest |displ|/coords:  0.1769 (   3)  0.0759 (   8)  0.0670 (   7)
................................................................................
.............................. CYCLE   40 ......................................
................................................................................
   1    -50.7227086 -0.507227E+02  0.124E-01    8.35       0.0  T
   2    -50.7227116 -0.293659E-05  0.926E-02    8.35       1.0  T
   3    -50.7227145 -0.295298E-05  0.133E-02    8.35       1.5  T
   4    -50.7227148 -0.270575E-06  0.439E-03    8.35       4.5  T
   5    -50.7227148 -0.236882E-07  0.128E-03    8.35      15.3  T
   6    -50.7227148 -0.205728E-08  0.799E-04    8.35      24.6  T
   7    -50.7227148 -0.100643E-08  0.209E-04    8.35      93.9  T
speedup  0.97
cpu  time for SCC    0.01 s
wall time for SCC    0.01 s
speedup  1.03
cpu  time for grad    0.01 s
wall time for grad    0.01 s
 E :    -50.44597627  G :  0.004951    pred/act E change: -0.343D-04 -0.396D-04
Maxdispl :   0.0772   ||displ|| :   0.1273   Lambda : -0.620D-04
Largest |displ|/coords:  0.0772 (   3)  0.0450 (  10)  0.0341 (  37)
................................................................................
.............................. CYCLE   41 ......................................
................................................................................
   1    -50.7231786 -0.507232E+02  0.783E-02    8.34       0.0  T
   2    -50.7231799 -0.133993E-05  0.583E-02    8.34       1.0  T
   3    -50.7231812 -0.125451E-05  0.845E-03    8.34       2.3  T
   4    -50.7231813 -0.128493E-06  0.263E-03    8.34       7.5  T
   5    -50.7231813 -0.803941E-08  0.745E-04    8.34      26.3  T
speedup  1.11
cpu  time for SCC    0.00 s
wall time for SCC    0.00 s
speedup  0.98
cpu  time for grad    0.01 s
wall time for grad    0.01 s
 E :    -50.44601360  G :  0.002983    pred/act E change: -0.330D-04 -0.373D-04
Maxdispl :   0.0733   ||displ|| :   0.1233   Lambda : -0.377D-04
Largest |displ|/coords:  0.0733 (   3)  0.0405 (   7)  0.0399 (  37)
................................................................................
.............................. CYCLE   42 ......................................
................................................................................
   1    -50.7231525 -0.507232E+02  0.796E-02    8.33       0.0  T
   2    -50.7231538 -0.137756E-05  0.595E-02    8.33       1.0  T
   3    -50.7231551 -0.122160E-05  0.843E-03    8.33       2.3  T
   4    -50.7231552 -0.157422E-06  0.315E-03    8.33       6.2  T
   5    -50.7231552 -0.100192E-07  0.775E-04    8.33      25.3  T
   6    -50.7231552 -0.803055E-09  0.488E-04    8.33      40.2  T
speedup  1.11
cpu  time for SCC    0.01 s
wall time for SCC    0.01 s
speedup  1.01
cpu  time for grad    0.01 s
wall time for grad    0.01 s
 E :    -50.44604233  G :  0.004137    pred/act E change: -0.315D-04 -0.287D-04
Maxdispl :   0.0576   ||displ|| :   0.1204   Lambda : -0.742D-04
Largest |displ|/coords:  0.0576 (  37)  0.0502 (  10)  0.0404 (   7)
................................................................................
.............................. CYCLE   43 ......................................
................................................................................
   1    -50.7240645 -0.507241E+02  0.109E-01    8.33       0.0  T
   2    -50.7240672 -0.264998E-05  0.815E-02    8.32       1.0  T
   3    -50.7240691 -0.187177E-05  0.112E-02    8.31       1.8  T
   4    -50.7240694 -0.377130E-06  0.423E-03    8.31       4.6  T
   5    -50.7240695 -0.141832E-07  0.934E-04    8.31      21.0  T
   6    -50.7240695 -0.110526E-08  0.553E-04    8.31      35.5  T
speedup  1.11
cpu  time for SCC    0.01 s
wall time for SCC    0.01 s
speedup  1.06
cpu  time for grad    0.01 s
wall time for grad    0.01 s
 E :    -50.44609096  G :  0.004939    pred/act E change: -0.192D-04 -0.486D-04
Maxdispl :   0.0626   ||displ|| :   0.1450   Lambda : -0.615D-04
Largest |displ|/coords:  0.0626 (  37)  0.0501 (   3)  0.0458 (   8)
................................................................................
.............................. CYCLE   44 ......................................
................................................................................
   1    -50.7229365 -0.507229E+02  0.124E-01    8.30       0.0  T
   2    -50.7229397 -0.318054E-05  0.931E-02    8.30       1.0  T
   3    -50.7229422 -0.247005E-05  0.120E-02    8.29       1.6  T
   4    -50.7229426 -0.411581E-06  0.491E-03    8.29       4.0  T
   5    -50.7229426 -0.162378E-07  0.106E-03    8.29      18.6  T
   6    -50.7229426 -0.124233E-08  0.645E-04    8.29      30.4  T
speedup  0.94
cpu  time for SCC    0.00 s
wall time for SCC    0.01 s
speedup  1.04
cpu  time for grad    0.01 s
wall time for grad    0.01 s
 E :    -50.44612376  G :  0.007840    pred/act E change: -0.377D-04 -0.328D-04
Maxdispl :   0.1284   ||displ|| :   0.1692   Lambda : -0.133D-03
Largest |displ|/coords:  0.1284 (   3)  0.0390 (   4)  0.0357 (  37)
................................................................................
.............................. CYCLE   45 ......................................
................................................................................
   1    -50.7247580 -0.507248E+02  0.105E-01    8.30       0.0  T
   2    -50.7247620 -0.400767E-05  0.781E-02    8.29       1.0  T
   3    -50.7247642 -0.219173E-05  0.140E-02    8.28       1.4  T
   4    -50.7247648 -0.625602E-06  0.486E-03    8.28       4.0  T
   5    -50.7247649 -0.270593E-07  0.117E-03    8.28      16.7  T
   6    -50.7247649 -0.163607E-08  0.680E-04    8.28      28.8  T
speedup  0.94
cpu  time for SCC    0.00 s
wall time for SCC    0.01 s
speedup  0.98
cpu  time for grad    0.01 s
wall time for grad    0.01 s
 E :    -50.44617781  G :  0.005734    pred/act E change: -0.314D-04 -0.541D-04
Maxdispl :   0.0663   ||displ|| :   0.1380   Lambda : -0.972D-04
Largest |displ|/coords:  0.0663 (  37)  0.0497 (   1)  0.0417 (   3)
................................................................................
.............................. CYCLE   46 ......................................
................................................................................
   1    -50.7239422 -0.507239E+02  0.123E-01    8.28       0.0  T
   2    -50.7239451 -0.297722E-05  0.924E-02    8.27       1.0  T
   3    -50.7239473 -0.211472E-05  0.115E-02    8.27       1.7  T
   4    -50.7239477 -0.451852E-06  0.490E-03    8.27       4.0  T
   5    -50.7239477 -0.198057E-07  0.102E-03    8.27      19.3  T
   6    -50.7239477 -0.100005E-08  0.668E-04    8.27      29.4  T
speedup  0.93
cpu  time for SCC    0.00 s
wall time for SCC    0.01 s
speedup  0.98
cpu  time for grad    0.01 s
wall time for grad    0.01 s
 E :    -50.44622490  G :  0.010023    pred/act E change: -0.685D-04 -0.471D-04
Maxdispl :   0.0334   ||displ|| :   0.0798   Lambda : -0.128D-03
Largest |displ|/coords:  0.0334 (   2)  0.0232 (  14)  0.0231 (  16)
................................................................................
.............................. CYCLE   47 ......................................
................................................................................
   1    -50.7238914 -0.507239E+02  0.396E-02    8.26       0.0  T
   2    -50.7238923 -0.851038E-06  0.295E-02    8.27       1.0  T
   3    -50.7238928 -0.491615E-06  0.573E-03    8.28       3.4  T
   4    -50.7238929 -0.121323E-06  0.175E-03    8.28      11.2  T
   5    -50.7238929 -0.554641E-08  0.623E-04    8.28      31.5  T
speedup  1.09
cpu  time for SCC    0.00 s
wall time for SCC    0.00 s
speedup  1.05
cpu  time for grad    0.01 s
wall time for grad    0.01 s
 E :    -50.44630709  G :  0.005295    pred/act E change: -0.495D-04 -0.822D-04
Maxdispl :   0.0675   ||displ|| :   0.1433   Lambda : -0.114D-03
Largest |displ|/coords:  0.0675 (  37)  0.0473 (   3)  0.0384 (  26)
................................................................................
.............................. CYCLE   48 ......................................
................................................................................
   1    -50.7232213 -0.507232E+02  0.136E-01    8.26       0.0  T
   2    -50.7232245 -0.319902E-05  0.102E-01    8.26       1.0  T
   3    -50.7232263 -0.181401E-05  0.130E-02    8.27       1.5  T
   4    -50.7232268 -0.543913E-06  0.513E-03    8.26       3.8  T
   5    -50.7232269 -0.175350E-07  0.839E-04    8.26      23.4  T
   6    -50.7232269 -0.530768E-09  0.538E-04    8.26      36.5  T
speedup  1.11
cpu  time for SCC    0.01 s
wall time for SCC    0.01 s
speedup  1.06
cpu  time for grad    0.01 s
wall time for grad    0.01 s
 E :    -50.44638138  G :  0.008000    pred/act E change: -0.645D-04 -0.743D-04
Maxdispl :   0.1323   ||displ|| :   0.1996   Lambda : -0.150D-03
Largest |displ|/coords:  0.1323 (   3)  0.0695 (   7)  0.0500 (   1)
................................................................................
.............................. CYCLE   49 ......................................
................................................................................
   1    -50.7241418 -0.507241E+02  0.126E-01    8.25       0.0  T
   2    -50.7241456 -0.381696E-05  0.935E-02    8.26       1.0  T
   3    -50.7241477 -0.209331E-05  0.159E-02    8.26       1.2  T
   4    -50.7241483 -0.570502E-06  0.524E-03    8.26       3.7  T
   5    -50.7241483 -0.241180E-07  0.105E-03    8.26      18.7  T
   6    -50.7241483 -0.102579E-08  0.686E-04    8.26      28.6  T
speedup  0.93
cpu  time for SCC    0.00 s
wall time for SCC    0.01 s
speedup  0.98
cpu  time for grad    0.01 s
wall time for grad    0.01 s
 E :    -50.44647796  G :  0.006040    pred/act E change: -0.581D-04 -0.966D-04
Maxdispl :   0.1729   ||displ|| :   0.2878   Lambda : -0.178D-03
Largest |displ|/coords:  0.1729 (   3)  0.1134 (  37)  0.0805 (   7)
................................................................................
.............................. CYCLE   50 ......................................
................................................................................
   1    -50.7220941 -0.507221E+02  0.237E-01    8.24       0.0  T
   2    -50.7221066 -0.124074E-04  0.177E-01    8.24       1.0  T
   3    -50.7221115 -0.494174E-05  0.273E-02    8.25       1.0  T
   4    -50.7221137 -0.224132E-05  0.897E-03    8.25       2.2  T
   5    -50.7221138 -0.602670E-07  0.168E-03    8.24      11.7  T
   6    -50.7221138 -0.192772E-08  0.939E-04    8.24      20.9  T
speedup  0.94
cpu  time for SCC    0.01 s
wall time for SCC    0.01 s
speedup  0.98
cpu  time for grad    0.01 s
wall time for grad    0.01 s
 E :    -50.44650208  G :  0.016153    pred/act E change: -0.780D-04 -0.241D-04
Maxdispl :   0.0700   ||displ|| :   0.1337   Lambda : -0.327D-03
Largest |displ|/coords:  0.0700 (   1)  0.0487 (   3)  0.0484 (   8)
................................................................................
.............................. CYCLE   51 ......................................
................................................................................
   1    -50.7245192 -0.507245E+02  0.783E-02    8.25       0.0  T
   2    -50.7245241 -0.490615E-05  0.579E-02    8.26       1.0  T
   3    -50.7245270 -0.287890E-05  0.155E-02    8.27       1.3  T
   4    -50.7245276 -0.632198E-06  0.511E-03    8.26       3.8  T
   5    -50.7245277 -0.454541E-07  0.143E-03    8.26      13.7  T
   6    -50.7245277 -0.271589E-08  0.807E-04    8.26      24.3  T
speedup  0.91
cpu  time for SCC    0.00 s
wall time for SCC    0.01 s
speedup  0.97
cpu  time for grad    0.01 s
wall time for grad    0.01 s
 E :    -50.44661178  G :  0.005796    pred/act E change: -0.962D-04 -0.110D-03
Maxdispl :   0.0289   ||displ|| :   0.0735   Lambda : -0.988D-04
Largest |displ|/coords:  0.0289 (  12)  0.0282 (   1)  0.0271 (  37)
................................................................................
.............................. CYCLE   52 ......................................
................................................................................
   1    -50.7244649 -0.507245E+02  0.661E-02    8.27       0.0  T
   2    -50.7244663 -0.137233E-05  0.491E-02    8.26       1.0  T
   3    -50.7244668 -0.541164E-06  0.770E-03    8.26       2.5  T
   4    -50.7244671 -0.231232E-06  0.239E-03    8.26       8.2  T
   5    -50.7244671 -0.731444E-08  0.640E-04    8.26      30.6  T
speedup  0.87
cpu  time for SCC    0.00 s
wall time for SCC    0.00 s
speedup  0.96
cpu  time for grad    0.01 s
wall time for grad    0.01 s
 E :    -50.44668032  G :  0.003446    pred/act E change: -0.167D-03 -0.685D-04
Maxdispl :   0.0860   ||displ|| :   0.1780   Lambda : -0.950D-04
Largest |displ|/coords:  0.0860 (   1)  0.0667 (   7)  0.0632 (  37)

generating ANC from model Hessian ...
 Shifting diagonal of input Hessian by   4.957343419269438E-003
 Lowest  eigenvalues of input Hessian
   -0.000000   -0.000000   -0.000000   -0.000000   -0.000000    0.000000
    0.005000    0.005205    0.005597    0.005997    0.006392    0.007149
    0.007329    0.008599    0.008722    0.009276    0.011458    0.011955
 Highest eigenvalues
    1.378367    1.389211    1.401188    2.601708    3.457027    3.639780
 
cpu  time for ANC gen    0.02 s
wall time for ANC gen    0.02 s
................................................................................
.............................. CYCLE   53 ......................................
................................................................................
   1    -50.7233813 -0.507234E+02  0.139E-01    8.26       0.0  T
   2    -50.7233861 -0.480091E-05  0.104E-01    8.26       1.0  T
   3    -50.7233876 -0.147983E-05  0.173E-02    8.26       1.1  T
   4    -50.7233885 -0.924823E-06  0.441E-03    8.26       4.4  T
   5    -50.7233886 -0.186483E-07  0.102E-03    8.26      19.3  T
   6    -50.7233886 -0.812896E-09  0.514E-04    8.26      38.2  T
   7    -50.7233886 -0.316106E-09  0.183E-04    8.26     107.0  T
speedup  1.13
cpu  time for SCC    0.01 s
wall time for SCC    0.01 s
speedup  1.02
cpu  time for grad    0.01 s
wall time for grad    0.01 s
 E :    -50.44672732  G :  0.009664    pred/act E change:  0.000D+00 -0.470D-04
Maxdispl :   0.0288   ||displ|| :   0.0514   Lambda : -0.112D-03
Largest |displ|/coords:  0.0288 (   2)  0.0229 (   7)  0.0125 (   5)
................................................................................
.............................. CYCLE   54 ......................................
................................................................................
   1    -50.7243901 -0.507244E+02  0.359E-02    8.26       0.0  T
   2    -50.7243908 -0.686851E-06  0.265E-02    8.27       1.0  T
   3    -50.7243911 -0.307897E-06  0.572E-03    8.27       3.4  T
   4    -50.7243912 -0.945863E-07  0.171E-03    8.27      11.5  T
   5    -50.7243912 -0.438774E-08  0.537E-04    8.27      36.5  T
speedup  0.89
cpu  time for SCC    0.00 s
wall time for SCC    0.00 s
speedup  0.97
cpu  time for grad    0.01 s
wall time for grad    0.01 s
 E :    -50.44680638  G :  0.003104    pred/act E change:  0.000D+00 -0.791D-04
Maxdispl :   0.0529   ||displ|| :   0.0865   Lambda : -0.707D-04
Largest |displ|/coords:  0.0529 (   2)  0.0290 (   5)  0.0230 (   7)
................................................................................
.............................. CYCLE   55 ......................................
................................................................................
   1    -50.7251134 -0.507251E+02  0.570E-02    8.27       0.0  T
   2    -50.7251142 -0.834511E-06  0.422E-02    8.27       1.0  T
   3    -50.7251148 -0.547820E-06  0.576E-03    8.27       3.4  T
   4    -50.7251149 -0.107287E-06  0.234E-03    8.27       8.4  T
   5    -50.7251149 -0.475519E-08  0.621E-04    8.27      31.6  T
   6    -50.7251149 -0.407319E-09  0.353E-04    8.27      55.6  T
speedup  0.94
cpu  time for SCC    0.01 s
wall time for SCC    0.01 s
speedup  1.01
cpu  time for grad    0.01 s
wall time for grad    0.01 s
 E :    -50.44685003  G :  0.003588    pred/act E change: -0.561D-04 -0.437D-04
Maxdispl :   0.0719   ||displ|| :   0.1162   Lambda : -0.562D-04
Largest |displ|/coords:  0.0719 (   2)  0.0593 (   7)  0.0267 (   5)
................................................................................
.............................. CYCLE   56 ......................................
................................................................................
   1    -50.7252179 -0.507252E+02  0.755E-02    8.28       0.0  T
   2    -50.7252187 -0.792906E-06  0.560E-02    8.28       1.0  T
   3    -50.7252194 -0.768236E-06  0.635E-03    8.28       3.1  T
   4    -50.7252195 -0.543304E-07  0.195E-03    8.28      10.0  T
   5    -50.7252195 -0.518616E-08  0.619E-04    8.28      31.7  T
   6    -50.7252195 -0.397570E-09  0.365E-04    8.28      53.7  T
speedup  1.11
cpu  time for SCC    0.01 s
wall time for SCC    0.01 s
speedup  1.00
cpu  time for grad    0.01 s
wall time for grad    0.01 s
 E :    -50.44689024  G :  0.005167    pred/act E change: -0.356D-04 -0.402D-04
Maxdispl :   0.1379   ||displ|| :   0.2174   Lambda : -0.951D-04
Largest |displ|/coords:  0.1379 (   2)  0.0871 (   7)  0.0723 (   5)
................................................................................
.............................. CYCLE   57 ......................................
................................................................................
   1    -50.7244801 -0.507245E+02  0.143E-01    8.28       0.0  T
   2    -50.7244831 -0.303511E-05  0.106E-01    8.28       1.0  T
   3    -50.7244860 -0.289882E-05  0.129E-02    8.28       1.5  T
   4    -50.7244862 -0.229606E-06  0.498E-03    8.28       3.9  T
   5    -50.7244862 -0.205009E-07  0.115E-03    8.28      17.0  T
   6    -50.7244862 -0.115641E-08  0.738E-04    8.28      26.6  T
speedup  0.94
cpu  time for SCC    0.00 s
wall time for SCC    0.01 s
speedup  0.98
cpu  time for grad    0.01 s
wall time for grad    0.01 s
 E :    -50.44696037  G :  0.004414    pred/act E change: -0.285D-04 -0.701D-04
Maxdispl :   0.1399   ||displ|| :   0.2228   Lambda : -0.911D-04
Largest |displ|/coords:  0.1399 (   2)  0.0979 (   7)  0.0652 (   9)
................................................................................
.............................. CYCLE   58 ......................................
................................................................................
   1    -50.7235989 -0.507236E+02  0.146E-01    8.27       0.0  T
   2    -50.7236029 -0.407582E-05  0.109E-01    8.27       1.0  T
   3    -50.7236062 -0.322853E-05  0.154E-02    8.27       1.3  T
   4    -50.7236066 -0.454518E-06  0.656E-03    8.27       3.0  T
   5    -50.7236067 -0.308383E-07  0.117E-03    8.27      16.8  T
   6    -50.7236067 -0.108874E-08  0.762E-04    8.27      25.7  T
speedup  0.94
cpu  time for SCC    0.00 s
wall time for SCC    0.01 s
speedup  0.98
cpu  time for grad    0.01 s
wall time for grad    0.01 s
 E :    -50.44700292  G :  0.007140    pred/act E change: -0.498D-04 -0.426D-04
Maxdispl :   0.0194   ||displ|| :   0.0390   Lambda : -0.473D-04
Largest |displ|/coords:  0.0194 (   7)  0.0163 (  14)  0.0139 (  11)
................................................................................
.............................. CYCLE   59 ......................................
................................................................................
   1    -50.7246620 -0.507247E+02  0.271E-02    8.28       0.0  T
   2    -50.7246623 -0.284150E-06  0.198E-02    8.27       1.0  T
   3    -50.7246625 -0.156997E-06  0.350E-03    8.27       5.6  T
   4    -50.7246625 -0.326225E-07  0.932E-04    8.27      21.0  T
   5    -50.7246625 -0.114236E-08  0.275E-04    8.27      71.4  T
speedup  0.89
cpu  time for SCC    0.00 s
wall time for SCC    0.00 s
speedup  0.97
cpu  time for grad    0.01 s
wall time for grad    0.01 s
 E :    -50.44703766  G :  0.004835    pred/act E change: -0.478D-04 -0.347D-04
Maxdispl :   0.0727   ||displ|| :   0.1101   Lambda : -0.762D-04
Largest |displ|/coords:  0.0727 (   2)  0.0319 (  37)  0.0289 (   1)
................................................................................
.............................. CYCLE   60 ......................................
................................................................................
   1    -50.7253642 -0.507254E+02  0.655E-02    8.27       0.0  T
   2    -50.7253657 -0.149792E-05  0.491E-02    8.27       1.0  T
   3    -50.7253663 -0.673872E-06  0.858E-03    8.27       2.3  T
   4    -50.7253666 -0.256715E-06  0.269E-03    8.27       7.3  T
   5    -50.7253666 -0.904683E-08  0.501E-04    8.27      39.1  T
speedup  1.11
cpu  time for SCC    0.00 s
wall time for SCC    0.00 s
speedup  1.05
cpu  time for grad    0.01 s
wall time for grad    0.01 s
 E :    -50.44709518  G :  0.004176    pred/act E change: -0.237D-04 -0.575D-04
Maxdispl :   0.1339   ||displ|| :   0.1946   Lambda : -0.925D-04
Largest |displ|/coords:  0.1339 (   2)  0.0576 (  37)  0.0428 (   1)
................................................................................
.............................. CYCLE   61 ......................................
................................................................................
   1    -50.7250791 -0.507251E+02  0.124E-01    8.26       0.0  T
   2    -50.7250835 -0.445841E-05  0.930E-02    8.26       1.0  T
   3    -50.7250860 -0.244045E-05  0.140E-02    8.27       1.4  T
   4    -50.7250867 -0.750471E-06  0.541E-03    8.26       3.6  T
   5    -50.7250868 -0.269584E-07  0.947E-04    8.26      20.7  T
   6    -50.7250868 -0.803404E-09  0.637E-04    8.26      30.8  T
speedup  1.13
cpu  time for SCC    0.01 s
wall time for SCC    0.01 s
speedup  0.98
cpu  time for grad    0.01 s
wall time for grad    0.01 s
 E :    -50.44715991  G :  0.005568    pred/act E change: -0.385D-04 -0.647D-04
Maxdispl :   0.0737   ||displ|| :   0.1443   Lambda : -0.867D-04
Largest |displ|/coords:  0.0737 (   2)  0.0562 (   3)  0.0547 (   1)
................................................................................
.............................. CYCLE   62 ......................................
................................................................................
   1    -50.7250531 -0.507251E+02  0.883E-02    8.26       0.0  T
   2    -50.7250555 -0.241894E-05  0.665E-02    8.26       1.0  T
   3    -50.7250569 -0.141368E-05  0.965E-03    8.26       2.0  T
   4    -50.7250573 -0.410618E-06  0.397E-03    8.26       4.9  T
   5    -50.7250573 -0.149099E-07  0.703E-04    8.26      27.9  T
   6    -50.7250573 -0.525297E-09  0.462E-04    8.26      42.4  T
speedup  0.94
cpu  time for SCC    0.00 s
wall time for SCC    0.01 s
speedup  0.98
cpu  time for grad    0.01 s
wall time for grad    0.01 s
 E :    -50.44721402  G :  0.003779    pred/act E change: -0.480D-04 -0.541D-04
Maxdispl :   0.0920   ||displ|| :   0.1636   Lambda : -0.787D-04
Largest |displ|/coords:  0.0920 (   2)  0.0567 (  37)  0.0416 (   1)
................................................................................
.............................. CYCLE   63 ......................................
................................................................................
   1    -50.7235391 -0.507235E+02  0.125E-01    8.26       0.0  T
   2    -50.7235437 -0.458339E-05  0.941E-02    8.26       1.0  T
   3    -50.7235465 -0.285912E-05  0.135E-02    8.26       1.4  T
   4    -50.7235472 -0.713958E-06  0.604E-03    8.26       3.2  T
   5    -50.7235473 -0.369699E-07  0.108E-03    8.26      18.2  T
   6    -50.7235473 -0.119451E-08  0.697E-04    8.26      28.2  T
   7    -50.7235473 -0.640050E-09  0.200E-04    8.26      98.2  T
speedup  0.94
cpu  time for SCC    0.01 s
wall time for SCC    0.01 s
speedup  1.01
cpu  time for grad    0.01 s
wall time for grad    0.01 s
 E :    -50.44724692  G :  0.008983    pred/act E change: -0.442D-04 -0.329D-04
Maxdispl :   0.0684   ||displ|| :   0.1360   Lambda : -0.157D-03
Largest |displ|/coords:  0.0684 (   9)  0.0541 (   2)  0.0526 (   7)
................................................................................
.............................. CYCLE   64 ......................................
................................................................................
   1    -50.7245659 -0.507246E+02  0.695E-02    8.30       0.0  T
   2    -50.7245674 -0.150850E-05  0.513E-02    8.30       1.0  T
   3    -50.7245687 -0.127216E-05  0.852E-03    8.30       2.3  T
   4    -50.7245688 -0.139209E-06  0.261E-03    8.30       7.5  T
   5    -50.7245688 -0.105153E-07  0.826E-04    8.30      23.7  T
speedup  1.09
cpu  time for SCC    0.00 s
wall time for SCC    0.00 s
speedup  1.05
cpu  time for grad    0.01 s
wall time for grad    0.01 s
 E :    -50.44732854  G :  0.004307    pred/act E change: -0.404D-04 -0.816D-04
Maxdispl :   0.0344   ||displ|| :   0.0972   Lambda : -0.728D-04
Largest |displ|/coords:  0.0344 (   9)  0.0315 (  37)  0.0299 (  28)
................................................................................
.............................. CYCLE   65 ......................................
................................................................................
   1    -50.7243116 -0.507243E+02  0.785E-02    8.30       0.0  T
   2    -50.7243131 -0.154112E-05  0.588E-02    8.30       1.0  T
   3    -50.7243143 -0.125116E-05  0.877E-03    8.30       2.2  T
   4    -50.7243145 -0.180010E-06  0.390E-03    8.30       5.0  T
   5    -50.7243145 -0.112930E-07  0.633E-04    8.30      31.0  T
   6    -50.7243145 -0.393918E-09  0.408E-04    8.30      48.0  T
speedup  1.11
cpu  time for SCC    0.01 s
wall time for SCC    0.01 s
speedup  1.05
cpu  time for grad    0.01 s
wall time for grad    0.01 s
 E :    -50.44737801  G :  0.004914    pred/act E change: -0.798D-04 -0.495D-04
Maxdispl :   0.0668   ||displ|| :   0.1147   Lambda : -0.725D-04
Largest |displ|/coords:  0.0668 (   2)  0.0466 (   9)  0.0291 (  11)
................................................................................
[...]
................................................................................
   1    -50.7251708 -0.507252E+02  0.271E-02    8.29       0.0  T
   2    -50.7251709 -0.155960E-06  0.203E-02    8.29       1.0  T
   3    -50.7251711 -0.159119E-06  0.273E-03    8.29       7.2  T
   4    -50.7251711 -0.136947E-07  0.114E-03    8.29      17.1  T
   5    -50.7251711 -0.114469E-08  0.209E-04    8.29      93.8  T
   6    -50.7251711 -0.477343E-10  0.146E-04    8.29     134.2  T
speedup  1.11
cpu  time for SCC    0.01 s
wall time for SCC    0.01 s
speedup  1.01
cpu  time for grad    0.01 s
wall time for grad    0.01 s
 E :    -50.44772656  G :  0.000593    pred/act E change: -0.920D-06 -0.135D-05
Maxdispl :   0.0193   ||displ|| :   0.0363   Lambda : -0.142D-05
Largest |displ|/coords:  0.0193 (   7)  0.0132 (   8)  0.0127 (   1)
................................................................................
.............................. CYCLE   92 ......................................
................................................................................
   1    -50.7251791 -0.507252E+02  0.237E-02    8.29       0.0  T
   2    -50.7251792 -0.110792E-06  0.179E-02    8.29       1.1  T
   3    -50.7251793 -0.128326E-06  0.207E-03    8.29       9.5  T
   4    -50.7251793 -0.773203E-08  0.872E-04    8.29      22.5  T
   5    -50.7251793 -0.759997E-09  0.191E-04    8.29     102.5  T
speedup  0.89
cpu  time for SCC    0.00 s
wall time for SCC    0.00 s
speedup  1.01
cpu  time for grad    0.01 s
wall time for grad    0.01 s
 E :    -50.44772757  G :  0.000569    pred/act E change: -0.960D-06 -0.101D-05
Maxdispl :   0.0177   ||displ|| :   0.0333   Lambda : -0.119D-05
Largest |displ|/coords:  0.0177 (   7)  0.0126 (   1)  0.0118 (   8)
................................................................................
.............................. CYCLE   93 ......................................
................................................................................
   1    -50.7251976 -0.507252E+02  0.219E-02    8.30       0.0  T
   2    -50.7251977 -0.971804E-07  0.165E-02    8.30       1.2  T
   3    -50.7251978 -0.113747E-06  0.187E-03    8.30      10.5  T
   4    -50.7251978 -0.658491E-08  0.793E-04    8.30      24.7  T
   5    -50.7251978 -0.672514E-09  0.184E-04    8.30     106.6  T
speedup  0.89
cpu  time for SCC    0.00 s
wall time for SCC    0.00 s
speedup  0.93
cpu  time for grad    0.01 s
wall time for grad    0.01 s
 E :    -50.44772838  G :  0.000450    pred/act E change: -0.710D-06 -0.802D-06
Maxdispl :   0.0095   ||displ|| :   0.0176   Lambda : -0.693D-06
Largest |displ|/coords:  0.0095 (   7)  0.0056 (   1)  0.0051 (   8)
................................................................................
.............................. CYCLE   94 ......................................
................................................................................
   1    -50.7252169 -0.507252E+02  0.121E-02    8.30       0.0  T
   2    -50.7252169 -0.318713E-07  0.911E-03    8.30       2.2  T
   3    -50.7252170 -0.383157E-07  0.102E-03    8.30      19.2  T
   4    -50.7252170 -0.203866E-08  0.422E-04    8.30      46.5  T
   5    -50.7252170 -0.221796E-09  0.116E-04    8.30     168.6  T
speedup  1.09
cpu  time for SCC    0.00 s
wall time for SCC    0.00 s
speedup  1.00
cpu  time for grad    0.01 s
wall time for grad    0.01 s
 E :    -50.44772889  G :  0.000363    pred/act E change: -0.595D-06 -0.514D-06
Maxdispl :   0.0074   ||displ|| :   0.0162   Lambda : -0.656D-06
Largest |displ|/coords:  0.0074 (   7)  0.0058 (   3)  0.0048 (   1)
................................................................................
.............................. CYCLE   95 ......................................
................................................................................
   1    -50.7252406 -0.507252E+02  0.103E-02    8.30       0.0  T
   2    -50.7252407 -0.289294E-07  0.773E-03    8.30       2.5  T
   3    -50.7252407 -0.301531E-07  0.112E-03    8.30      17.5  T
   4    -50.7252407 -0.254850E-08  0.435E-04    8.30      45.1  T
   5    -50.7252407 -0.240554E-09  0.110E-04    8.30     178.7  T
speedup  0.89
cpu  time for SCC    0.00 s
wall time for SCC    0.00 s
speedup  0.99
cpu  time for grad    0.01 s
wall time for grad    0.01 s
 E :    -50.44772936  G :  0.000333    pred/act E change: -0.347D-06 -0.466D-06
Maxdispl :   0.0055   ||displ|| :   0.0120   Lambda : -0.461D-06
Largest |displ|/coords:  0.0055 (   3)  0.0054 (   2)  0.0038 (   7)
................................................................................
.............................. CYCLE   96 ......................................
................................................................................
   1    -50.7252543 -0.507253E+02  0.678E-03    8.30       0.0  T
   2    -50.7252543 -0.162581E-07  0.503E-03    8.30       3.9  T
   3    -50.7252544 -0.148081E-07  0.959E-04    8.29      20.4  T
   4    -50.7252544 -0.154213E-08  0.325E-04    8.29      60.3  T
speedup  0.81
cpu  time for SCC    0.00 s
wall time for SCC    0.00 s
speedup  0.98
cpu  time for grad    0.01 s
wall time for grad    0.01 s
 E :    -50.44772968  G :  0.000316    pred/act E change: -0.328D-06 -0.325D-06
Maxdispl :   0.0052   ||displ|| :   0.0079   Lambda : -0.301D-06
Largest |displ|/coords:  0.0052 (   2)  0.0037 (   3)  0.0017 (   9)
................................................................................
.............................. CYCLE   97 ......................................
................................................................................
   1    -50.7252782 -0.507253E+02  0.346E-03    8.29       0.0  T
   2    -50.7252782 -0.574607E-08  0.249E-03    8.29       7.9  T
   3    -50.7252782 -0.448551E-08  0.535E-04    8.29      36.6  T
   4    -50.7252782 -0.484853E-09  0.179E-04    8.29     109.6  T
speedup  0.83
cpu  time for SCC    0.00 s
wall time for SCC    0.00 s
speedup  0.99
cpu  time for grad    0.01 s
wall time for grad    0.01 s
 E :    -50.44772990  G :  0.000260    pred/act E change: -0.231D-06 -0.222D-06
Maxdispl :   0.0068   ||displ|| :   0.0152   Lambda : -0.243D-06
Largest |displ|/coords:  0.0068 (   3)  0.0054 (   8)  0.0054 (   7)
................................................................................
.............................. CYCLE   98 ......................................
................................................................................
   1    -50.7252251 -0.507252E+02  0.104E-02    8.29       0.0  T
   2    -50.7252251 -0.228338E-07  0.764E-03    8.29       2.6  T
   3    -50.7252251 -0.240279E-07  0.126E-03    8.29      15.5  T
   4    -50.7252251 -0.146127E-08  0.319E-04    8.29      61.5  T
   5    -50.7252251 -0.195890E-09  0.801E-05    8.29     244.9  T
speedup  1.11
cpu  time for SCC    0.00 s
wall time for SCC    0.00 s
speedup  1.01
cpu  time for grad    0.01 s
wall time for grad    0.01 s
 E :    -50.44773005  G :  0.000261    pred/act E change: -0.151D-06 -0.151D-06
Maxdispl :   0.0040   ||displ|| :   0.0061   Lambda : -0.149D-06
Largest |displ|/coords:  0.0040 (   2)  0.0023 (   3)  0.0016 (  15)
................................................................................
.............................. CYCLE   99 ......................................
................................................................................
   1    -50.7252827 -0.507253E+02  0.277E-03    8.29       0.0  T
   2    -50.7252827 -0.336343E-08  0.205E-03    8.29       9.6  T
   3    -50.7252827 -0.252842E-08  0.355E-04    8.29      55.2  T
   4    -50.7252827 -0.404782E-09  0.126E-04    8.29     155.6  T
speedup  0.81
cpu  time for SCC    0.00 s
wall time for SCC    0.00 s
speedup  0.99
cpu  time for grad    0.01 s
wall time for grad    0.01 s
 E :    -50.44773016  G :  0.000188    pred/act E change: -0.122D-06 -0.103D-06
Maxdispl :   0.0031   ||displ|| :   0.0067   Lambda : -0.119D-06
Largest |displ|/coords:  0.0031 (   3)  0.0025 (   7)  0.0022 (  21)
................................................................................
.............................. CYCLE  100 ......................................
................................................................................
   1    -50.7252707 -0.507253E+02  0.489E-03    8.29       0.0  T
   2    -50.7252707 -0.534202E-08  0.363E-03    8.29       5.4  T
   3    -50.7252707 -0.500322E-08  0.572E-04    8.29      34.3  T
   4    -50.7252707 -0.464333E-09  0.192E-04    8.29     102.1  T
speedup  1.11
cpu  time for SCC    0.00 s
wall time for SCC    0.00 s
speedup  1.08
cpu  time for grad    0.01 s
wall time for grad    0.01 s
 E :    -50.44773024  G :  0.000142    pred/act E change: -0.743D-07 -0.838D-07
Maxdispl :   0.0014   ||displ|| :   0.0036   Lambda : -0.745D-07
Largest |displ|/coords:  0.0014 (   3)  0.0012 (   2)  0.0012 (   9)

   *** GEOMETRY OPTIMIZATION CONVERGED AFTER 100 ITERATIONS ***

------------------------------------------------------------------------
 total energy gain (kcal):     -0.0116
------------------------------------------------------------------------
================
 final structure:
================
$coord
       -0.02006831538980       -3.95936806838474       -0.51157070880527      S 
       -2.60847041652803       -3.95012952222395       -1.37378780655574      O 
        1.48705441406384       -1.90224521175813       -1.49036462687855      O 
        0.14057106162140       -4.13527497435131        2.26224048375620      O 
        1.21951015968518       -6.48490312427540       -1.51805928860452      O 
        0.01967589700419       -7.69487059795443       -0.94629539117559      H 
       -2.25041329846984        2.98265173930062        1.65372748646151      O 
       -3.59520409043501        3.99196188353041        2.32698306501609      H 
        4.04132430419068        1.64450776233172        4.75115521096862      O 
        4.36100454584865        3.18119457905001        5.65479070085922      H 
        2.83803288865148        2.71722108179818        0.09602866471588      O 
        2.62214089701849        1.02892255203994       -0.61738950322462      H 
        1.13534611692269        3.34154992092547        0.32429437493228      H 
        3.92489608911520        2.09626808236143        2.92319755558178      H 
       -0.38594428359314       -0.25182802172924        4.71656991426728      O 
        1.42693035938497        0.39251169273286        4.95622484904091      H 
       -1.23203162056054        1.00800758816565        3.51207332568757      H 
       -0.19187719503904       -2.02103027677633        3.67849253295318      H 
       -4.06871704826197        0.77421797696358       -2.16534020304041      O 
       -2.92570221239555        1.20777191219361       -3.57372892309280      H 
       -3.78893939114311       -1.03776517980683       -1.89701930230077      H 
       -3.00611543218298        2.08368504045664        0.09716584338361      H 
       -0.25645419231434        1.36231815626845       -5.52523638677371      N 
        0.63914272323643        0.03899611261756       -4.45014891627797      H 
        0.86555860065476        2.91116269765122       -5.57967565598740      H 
       -0.39125054217419        0.67446623664760       -7.30432727600570      H 
$end
 
 Bond Distances (Angstroems)
 ---------------------------
S1-O2=1.4437         S1-O3=1.4455         S1-O4=1.4732         S1-O5=1.5812         O2-S1=1.4437         O3-S1=1.4455         
O4-S1=1.4732         O5-S1=1.5812         O5-H6=0.9511         H6-O5=0.9511         O7-H8=0.9584         O7-H22=1.0318        
H8-O7=0.9584         O9-H10=0.9584        O9-H14=0.9983        H10-O9=0.9584        O11-H12=0.9766       O11-H13=0.9673       
H12-O11=0.9766       H13-O11=0.9673       H14-O9=0.9983        O15-H16=1.0260       O15-H17=1.0253       O15-H18=1.0903       
H16-O15=1.0260       H17-O15=1.0253       H18-O15=1.0903       O19-H20=0.9869       O19-H21=0.9806       H20-O19=0.9869       
H21-O19=0.9806       H22-O7=1.0318        N23-H24=1.0191       N23-H25=1.0125       N23-H26=1.0119       H24-N23=1.0191       
H25-N23=1.0125       H26-N23=1.0119       
 N  H  Rav=1.0145 sigma=0.0033  Rmin=1.0119  Rmax=1.0191     3
 O  H  Rav=0.9959 sigma=0.0391  Rmin=0.9511  Rmax=1.0903    12
 S  O  Rav=1.4859 sigma=0.0562  Rmin=1.4437  Rmax=1.5812     4
 
 selected bond angles (degree)
 --------------------
O3-S1-O2=114.06                O4-S1-O2=111.71                O4-S1-O3=111.89                O5-S1-O2=106.86                
O5-S1-O3=106.68                O5-S1-O4=104.97                H6-O5-S1=100.66                H22-O7-H8=105.42               
H14-O9-H10=106.93              
 
 selected dihedral angles (degree)
 ---------------------------------
H6-O5-S1-O2=308.40            H6-O5-S1-O3=186.02            H6-O5-S1-O4= 67.15            
 
 CMA Distance (Angstroems)
 ---------------------------
R(CMA):  3.0358

========================================================================
 FINAL SINGLEPOINT CALCULATION ON OPTIMIZED GEOMETRY
========================================================================

 Ncao       : 65
 Nao        : 64
 Nshell     : 38
 Nel        : 80
 T(el)      :   300.0
 intcut     :    25.0
 scfconv/Eh :  0.100E-05
   qconv/e  :  0.100E-03
 intneglect :  0.100E-07
 broydamp   :      0.250
 iter      E             dE          RMSdq      gap      omega  full diag
   1    -50.7252707 -0.507253E+02  0.769E-05    8.29       0.0  T
   2    -50.7252707 -0.283507E-11  0.495E-05    8.29     396.1  T
   3    -50.7252707 -0.164846E-11  0.745E-06    8.29    2632.5  T
speedup  0.74
cpu  time for SCC    0.00 s
wall time for SCC    0.00 s

   *** convergence criteria satisfied after 3 iterations ***

          eigenvalues
 #    :          28         29         30         31         32         33         34         35
 occ. :        2.000      2.000      2.000      2.000      2.000      2.000      2.000      2.000
 eps  :       -13.378    -13.247    -12.712    -12.590    -12.473    -12.414    -12.229    -12.058
 #    :          36         37         38         39         40         41         42         43
 occ. :        2.000      2.000      2.000      2.000      2.000      0.000      0.000      0.000
 eps  :       -11.987    -11.941    -11.712    -11.681    -10.749     -2.460     -0.697     -0.458
 #    :          44         45         46         47         48         49         50         51
 occ. :        0.000      0.000      0.000      0.000      0.000      0.000      0.000      0.000
 eps  :         0.598      1.120      1.296      1.887      3.129      3.906      4.095      5.079


   #   Z            q   n(s)   n(p)   n(d)      C6AA      α(0)
   1  16 S      1.662  1.579  1.797  0.963    89.646    15.936
   2   8 O     -0.727  1.771  4.957  0.000    29.458     7.277
   3   8 O     -0.718  1.754  4.965  0.000    29.206     7.246
   4   8 O     -0.724  1.770  4.953  0.000    29.228     7.254
   5   8 O     -0.579  1.750  4.829  0.000    24.661     6.704
   6   1 H      0.345  0.655  0.000  0.000     0.589     1.201
   7   8 O     -0.646  1.758  4.887  0.000    26.310     6.923
   8   1 H      0.290  0.710  0.000  0.000     0.750     1.361
   9   8 O     -0.608  1.751  4.857  0.000    25.370     6.798
  10   1 H      0.291  0.709  0.000  0.000     0.749     1.359
  11   8 O     -0.622  1.755  4.867  0.000    25.715     6.844
  12   1 H      0.330  0.670  0.000  0.000     0.639     1.255
  13   1 H      0.315  0.685  0.000  0.000     0.678     1.294
  14   1 H      0.345  0.655  0.000  0.000     0.601     1.219
  15   8 O     -0.518  1.731  4.788  0.000    23.226     6.509
  16   1 H      0.384  0.616  0.000  0.000     0.515     1.127
  17   1 H      0.376  0.624  0.000  0.000     0.531     1.145
  18   1 H      0.397  0.603  0.000  0.000     0.482     1.085
  19   8 O     -0.625  1.754  4.871  0.000    25.776     6.853
  20   1 H      0.321  0.679  0.000  0.000     0.661     1.277
  21   1 H      0.323  0.677  0.000  0.000     0.655     1.272
  22   1 H      0.352  0.648  0.000  0.000     0.582     1.198
  23   7 N     -0.458  1.375  4.083  0.000    32.049     8.408
  24   1 H      0.189  0.811  0.000  0.000     1.163     1.689
  25   1 H      0.156  0.844  0.000  0.000     1.362     1.828
  26   1 H      0.149  0.851  0.000  0.000     1.411     1.861

 Mol. C6AA /au·bohr⁶  :       5473.300293
 Mol. C8AA /au·bohr⁸  :     118315.881602
 Mol. α(0) /au        :        106.921143

 
 Wiberg/Mayer (AO) data. WBOs > 0.1 written file <wbo>
 largest (>0.05) Wiberg bond orders for each atom
           total WBO             WBO to atom ...
     1  S   4.886    O    3 1.358    O    2 1.353    O    4 1.224    O    5 0.905
     2  O   1.736    S    1 1.353    O    3 0.115    O    4 0.106    O    5 0.078    H   21 0.057
     3  O   1.743    S    1 1.358    O    2 0.115    O    4 0.107    O    5 0.062
     4  O   1.789    S    1 1.224    H   18 0.224    O    3 0.107    O    2 0.106    O    5 0.063    O   15 0.059
     5  O   1.984    S    1 0.905    H    6 0.864    O    2 0.078    O    4 0.063    O    3 0.062
     6  H   0.880    O    5 0.864
     7  O   1.908    H    8 0.908    H   22 0.714    H   17 0.137    O   19 0.062    O   15 0.050
     8  H   0.916    O    7 0.908
     9  O   1.926    H   10 0.911    H   14 0.787    H   16 0.134
    10  H   0.915    O    9 0.911
    11  O   1.896    H   13 0.876    H   12 0.843    H   14 0.093
    12  H   0.891    O   11 0.843
    13  H   0.901    O   11 0.876
    14  H   0.881    O    9 0.787    O   11 0.093
    15  O   2.228    H   17 0.717    H   16 0.715    H   18 0.608    O    4 0.059    O    7 0.050
    16  H   0.852    O   15 0.715    O    9 0.134
    17  H   0.858    O   15 0.717    O    7 0.137
    18  H   0.843    O   15 0.608    O    4 0.224
    19  O   1.946    H   21 0.834    H   20 0.820    H   22 0.159    O    7 0.062
    20  H   0.897    O   19 0.820    N   23 0.073
    21  H   0.895    O   19 0.834    O    2 0.057
    22  H   0.876    O    7 0.714    O   19 0.159
    23  N   3.011    H   26 0.975    H   25 0.972    H   24 0.937    H   20 0.073
    24  H   0.964    N   23 0.937
    25  H   0.976    N   23 0.972
    26  H   0.978    N   23 0.975
 MOs/occ written to file <molden.input>
 
molecular dipole:
                 x           y           z       tot (Debye)
 q only:       -0.131       1.432       0.947
   full:        0.029       1.012       0.408       2.775
molecular quadrupole (traceless):
                xx          xy          yy          xz          yz          zz
 q only:       -9.326       0.262       2.636      -1.511       4.967       6.691
  q+dip:      -13.061       1.056       7.369      -4.087       7.937       5.693
   full:      -13.625       0.981       8.100      -4.075       8.294       5.524

SCC energy    :     -50.7252707
rep           :       0.2772127
ES            :       0.2443360
AES           :      -0.0622061
AXC           :      -0.0066660
disp          :      -0.0187853
XB            :       0.0000000
fix           :       0.0000000
total E       :     -50.4477302
atomizationE  :       4.9780344     3123.76
(atE without considering molecular charge,
 total energy contains solvation terms)
H-L gap (eV)  :          8.2899
optimized geometry written to: xtbopt.xyz


------------------------------------------------------------------------
 * finished run on 2019/09/16 at 12:08:16.693     
------------------------------------------------------------------------
 total:
 * wall-time:     0 d,  0 h,  0 min,  2.254 sec
 *  cpu-time:     0 d,  0 h,  0 min,  2.234 sec
 * ratio c/w:     0.991 speedup
 SCF:
 * wall-time:     0 d,  0 h,  0 min,  0.141 sec
 *  cpu-time:     0 d,  0 h,  0 min,  0.137 sec
 * ratio c/w:     0.974 speedup
 ANC optimizer:
 * wall-time:     0 d,  0 h,  0 min,  2.089 sec
 *  cpu-time:     0 d,  0 h,  0 min,  2.075 sec
 * ratio c/w:     0.993 speedup

