      -----------------------------------------------------------      
     |                   =====================                   |     
     |                           x T B                           |     
     |                   =====================                   |     
     |                         S. Grimme                         |     
     |          Mulliken Center for Theoretical Chemistry        |     
     |                    University of Bonn                     |     
     |                 Version 6.0.1 (SAW181210)                 |     
      -----------------------------------------------------------      

   This program is distributed in the hope that it will be useful,
   but WITHOUT ANY WARRANTY; without even the implied warranty of
   MERCHANTABILITY or FITNESS FOR A PARTICULAR PURPOSE.
   
   FOR NON-COMMERCIAL, ACADEMIA USE ONLY.
   
   Cite this work as:
   S. Grimme, C. Bannwarth, P. Shushkov, J. Comput. Theory Chem., 2017,
   13, 1989-2009.
   C. Bannwarth, S. Ehlert and S. Grimme., ChemRxiv, 2018, preprint.
   http://doi.org/10.26434/chemrxiv.7246238.v1
   
   for sTDA-xTB:
   S. Grimme and C. Bannwarth, J. Chem. Phys., 2016, 145, 054103.
   
   in the mass-spec context:
   V. Asgeirsson, C. Bauer and S. Grimme, Chem. Sci., 2017, 8, 4879.
   
   if GBSA is used:
   P. Shushkov, F. März and S. Grimme, unpublished.
   
   for ANC optimizer:
   S. Grimme, unpublished.
   Rational Function algorithm used in ANCopt:
   F. Eckert, P. Pulay, H.-J. Werner, J. Comput. Chem., 1997, 18, 1473.
   
   with help from (in alphabetical order)
   C. Bannwarth, F. Bohle, G. Brandenburg, E. Caldeweyher, M. Checinski,
   S. Dohm, S. Ehlert, S. Ehrlich, F. März, H. Neugebauer, J. Pisarek,
   P. Pracht, P. Shushkov, and S. Spicher.
   
 * started run on 2019/09/16 at 12:24:39.232     
========================================================================
 # omp threads = 1
========================================================================
number of atoms            : 26
number of electrons        : 80
charge                     : 0
spin                       : .0
first test random number   : .1546

########################################################################
# WARNING! Please study the warnings concerning your input carefully
#  - XTBPATH is not set, using XTBHOME instead
#  - the use of '-opt' is discouraged, please use '--opt' next time
#  - the use of '-chrg' is discouraged, please use '--chrg' next time
#  - the use of '-uhf' is discouraged, please use '--uhf' next time
########################################################################

           ------------------------------------------------- 
          |                 G F N 2 - x T B                 |
          | Geometry, Frequencies, Noncovalent interactions |
          |            JCTC 2018 parametrisation            |
           ------------------------------------------------- 
      method parameters     
 k(s)        :  1.8500
 k(p)        :  2.2300
 k(d)        :  2.2300
 k(f)        :  2.0000
 kEN (H0ij)  : -2.0000
 D4 a1       :  0.5200
 D4 a2       :  5.0000
 D4 s6       :  1.0000
 D4 s8       :  2.7000
 D4 s9       :  5.0000
 alphaj      :  2.0000


            Z     q(EN)     CN     RAES       Cart. coordinates
     1  S   6.0    0.64    4.28    4.20     1.73558    -0.76885     2.35519
     2  O   6.0   -0.32    1.24    1.80     3.13725    -2.50570     0.63857
     3  O   6.0   -0.32    1.22    1.80     1.42927     1.73733     1.10886
     4  O   6.0   -0.31    1.21    1.80    -0.80113    -1.85256     2.91985
     5  O   6.0   -0.25    2.10    1.84     3.15718    -0.45879     4.72066
     6  H   1.0    0.15    1.28    1.49     4.79177     0.23942     4.35774
     7  O   6.0   -0.36    1.51    1.80    -6.02181     3.04878     0.26957
     8  H   1.0    0.18    0.94    1.42    -7.30107     4.26448     0.87726
     9  O   6.0   -0.39    1.69    1.81    -2.70115    -1.45119    -3.63090
    10  H   1.0    0.17    0.95    1.42    -3.75037    -1.50006    -5.17379
    11  O   6.0   -0.23    2.94    2.64    -4.98476    -1.34235     0.37487
    12  H   1.0    0.16    1.20    1.46    -5.71946     0.36838     0.52801
    13  H   1.0    0.16    1.15    1.45    -4.28810    -1.65535    -1.33004
    14  H   1.0    0.16    1.04    1.44    -3.73062    -1.68740     1.71636
    15  O   6.0   -0.22    2.90    2.54     1.00440    -4.06878    -3.45631
    16  H   1.0    0.12    0.96    1.43     0.50701    -5.86098    -3.28181
    17  H   1.0    0.16    1.21    1.47    -0.47455    -2.95055    -3.68501
    18  H   1.0    0.16    1.08    1.44     2.09514    -3.50547    -2.04760
    19  O   6.0   -0.23    2.94    2.63    -2.16701     2.87245    -2.07732
    20  H   1.0    0.16    1.20    1.46    -3.76011     3.29682    -1.19881
    21  H   1.0    0.15    1.05    1.44    -0.70099     2.89625    -0.91964
    22  H   1.0    0.16    1.15    1.45    -2.29251     1.25982    -3.01284
    23  N   5.0   -0.22    3.01    1.93     7.41416     2.08184     2.84155
    24  H   1.0    0.11    0.99    1.43     8.51838     1.06446     1.63461
    25  H   1.0    0.10    0.99    1.43     8.60716     3.29410     3.74611
    26  H   1.0    0.11    0.99    1.43     6.29633     3.18389     1.72485

  Z AO/shell   Hii/eV     exponent
  1     Wed Apr 25 08:07:45 CEST 2018   EN: 2.200 GM2: 0.406  GM3: 0.0800  RAES: 1.40
     1s    -10.707211    1.230000
  7     Wed Apr 25 08:07:45 CEST 2018   EN: 3.040 GM2: 0.461  GM3:-0.0640  RAES: 1.90
     2s    -16.686243    2.339881
     2p    -12.523956    2.014332
  8     Wed Apr 25 08:07:45 CEST 2018   EN: 3.440 GM2: 0.452  GM3:-0.0517  RAES: 1.80
     2s    -20.229985    2.439742
     2p    -15.503117    2.137023
 16     Tue Apr 24 11:44:34 CEST 2018   EN: 2.580 GM2: 0.340  GM3:-0.0502  RAES: 3.10
     3s    -20.029654    1.981333
     3p    -11.377694    2.025643
     3d     -0.420282    1.702555
 no old-style atom pair restraining (fixing) potential

molecular fragmentation (1/2 indicates fragments):
11111122222222222222222222
# atoms in fragment 1/2:     6    20
 fragment masses (1/2) :       97.07      108.11
CMA distance (Bohr)    :   4.636
constraining FC (au)   :  0.0500
           ------------------------------------------------- 
          |        Self-Consistent Charge Iterations        |
           ------------------------------------------------- 

 Ncao       : 65
 Nao        : 64
 Nshell     : 38
 Nel        : 80
 T(el)      :   300.0
 intcut     :    25.0
 scfconv/Eh :  0.100E-05
   qconv/e  :  0.100E-03
 intneglect :  0.100E-07
 broydamp   :      0.250
 iter      E             dE          RMSdq      gap      omega  full diag
   1    -50.5182453 -0.505182E+02  0.705E+00   10.06       0.0  T
   2    -50.5664433 -0.481981E-01  0.508E+00    9.39       1.0  T
   3    -50.6049005 -0.384571E-01  0.129E+00    5.87       1.0  T
   4    -50.6101580 -0.525756E-02  0.574E-01    6.23       1.0  T
   5    -50.6108410 -0.682913E-03  0.301E-01    6.19       1.0  T
   6    -50.6112511 -0.410101E-03  0.135E-01    6.31       1.0  T
   7    -50.6113534 -0.102355E-03  0.467E-02    6.34       1.0  T
   8    -50.6113628 -0.943535E-05  0.308E-02    6.33       1.0  T
   9    -50.6113691 -0.622623E-05  0.994E-03    6.35       2.0  T
  10    -50.6113697 -0.585076E-06  0.218E-03    6.35       9.0  T
  11    -50.6113697 -0.160504E-07  0.120E-03    6.35      16.4  T
  12    -50.6113697 -0.518129E-08  0.468E-04    6.35      41.9  T
  13    -50.6113697 -0.121133E-08  0.154E-04    6.35     127.2  T
speedup  1.01
cpu  time for SCC    0.01 s
wall time for SCC    0.01 s

   *** convergence criteria satisfied after 13 iterations ***

          eigenvalues
 #    :          28         29         30         31         32         33         34         35
 occ. :        2.000      2.000      2.000      2.000      2.000      2.000      2.000      2.000
 eps  :       -12.631    -11.823    -11.618    -11.503    -11.345    -11.211    -11.186    -11.055
 #    :          36         37         38         39         40         41         42         43
 occ. :        2.000      2.000      2.000      2.000      2.000      0.000      0.000      0.000
 eps  :       -11.000    -10.943    -10.733     -8.718     -8.234     -1.884     -0.796      0.185
 #    :          44         45         46         47         48         49         50         51
 occ. :        0.000      0.000      0.000      0.000      0.000      0.000      0.000      0.000
 eps  :         0.791      1.096      1.252      1.734      3.320      3.713      4.835      4.978


   #   Z            q   n(s)   n(p)   n(d)      C6AA      α(0)
   1  16 S      1.599  1.586  1.838  0.977    91.107    16.065
   2   8 O     -0.772  1.772  5.001  0.000    30.751     7.435
   3   8 O     -0.763  1.771  4.992  0.000    30.482     7.402
   4   8 O     -0.734  1.762  4.972  0.000    29.654     7.301
   5   8 O     -0.557  1.718  4.839  0.000    24.150     6.634
   6   1 H      0.372  0.628  0.000  0.000     0.532     1.141
   7   8 O     -0.896  1.813  5.082  0.000    34.574     7.886
   8   1 H      0.176  0.824  0.000  0.000     1.251     1.757
   9   8 O     -0.838  1.829  5.009  0.000    32.698     7.669
  10   1 H      0.223  0.777  0.000  0.000     1.007     1.577
  11   8 O     -0.480  1.667  4.814  0.000    22.412     6.394
  12   1 H      0.405  0.595  0.000  0.000     0.470     1.074
  13   1 H      0.388  0.612  0.000  0.000     0.504     1.113
  14   1 H      0.386  0.614  0.000  0.000     0.511     1.124
  15   8 O     -0.426  1.655  4.771  0.000    21.300     6.233
  16   1 H      0.365  0.635  0.000  0.000     0.555     1.171
  17   1 H      0.410  0.590  0.000  0.000     0.461     1.063
  18   1 H      0.410  0.590  0.000  0.000     0.466     1.073
  19   8 O     -0.482  1.667  4.814  0.000    22.440     6.398
  20   1 H      0.405  0.595  0.000  0.000     0.470     1.074
  21   1 H      0.384  0.616  0.000  0.000     0.516     1.129
  22   1 H      0.387  0.613  0.000  0.000     0.507     1.117
  23   7 N     -0.447  1.394  4.053  0.000    31.743     8.368
  24   1 H      0.159  0.841  0.000  0.000     1.344     1.816
  25   1 H      0.158  0.842  0.000  0.000     1.351     1.821
  26   1 H      0.171  0.829  0.000  0.000     1.267     1.763

 Mol. C6AA /au·bohr⁶  :       5561.647401
 Mol. C8AA /au·bohr⁸  :     120443.518524
 Mol. α(0) /au        :        107.596077

 
 Wiberg/Mayer (AO) data. WBOs > 0.1 written file <wbo>
 largest (>0.05) Wiberg bond orders for each atom
           total WBO             WBO to atom ...
     1  S   4.913    O    4 1.322    O    3 1.276    O    2 1.246    O    5 1.029
     2  O   1.685    S    1 1.246    O    4 0.110    O    3 0.109    H   18 0.108    O    5 0.070
     3  O   1.675    S    1 1.276    O    4 0.115    O    2 0.109    O    5 0.074    H   21 0.071
     4  O   1.704    S    1 1.322    O    3 0.115    O    2 0.110    H   14 0.066    O    5 0.057
     5  O   2.047    S    1 1.029    H    6 0.783    O    3 0.074    O    2 0.070    O    4 0.057
     6  H   0.861    O    5 0.783    N   23 0.058
     7  O   1.453    H    8 0.943    H   20 0.190    H   12 0.190    O   19 0.057    O   11 0.057
     8  H   0.969    O    7 0.943
     9  O   1.658    H   10 0.945    H   17 0.213    H   22 0.155    H   13 0.154    O   15 0.065    O   19 0.055    O   11 0.053
    10  H   0.950    O    9 0.945
    11  O   2.262    H   14 0.775    H   13 0.690    H   12 0.639    O    7 0.057    O    9 0.053
    12  H   0.836    O   11 0.639    O    7 0.190
    13  H   0.849    O   11 0.690    O    9 0.154
    14  H   0.851    O   11 0.775    O    4 0.066
    15  O   2.301    H   16 0.859    H   18 0.714    H   17 0.614    O    9 0.065
    16  H   0.867    O   15 0.859
    17  H   0.832    O   15 0.614    O    9 0.213
    18  H   0.832    O   15 0.714    O    2 0.108
    19  O   2.261    H   21 0.773    H   22 0.691    H   20 0.639    O    7 0.057    O    9 0.055
    20  H   0.836    O   19 0.639    O    7 0.190
    21  H   0.853    O   19 0.773    O    3 0.071
    22  H   0.851    O   19 0.691    O    9 0.155
    23  N   2.995    H   24 0.973    H   25 0.972    H   26 0.967    H    6 0.058
    24  H   0.975    N   23 0.973
    25  H   0.975    N   23 0.972
    26  H   0.971    N   23 0.967
 MOs/occ written to file <molden.input>
 
molecular dipole:
                 x           y           z       tot (Debye)
 q only:        1.638      -1.716      -1.949
   full:        2.081      -1.363      -1.654       7.592
molecular quadrupole (traceless):
                xx          xy          yy          xz          yz          zz
 q only:       -4.994      13.452       6.484       4.394      11.182      -1.490
  q+dip:        0.042      14.315       4.974       6.559      13.008      -5.017
   full:        0.234      14.029       4.799       6.946      13.385      -5.033

SCC energy    :     -50.6113697
rep           :       0.2758988
ES            :       0.3232017
AES           :      -0.0639782
AXC           :      -0.0075680
disp          :      -0.0180715
XB            :       0.0000000
fix           :       0.0000000
total E       :     -50.3352841
atomizationE  :       4.8655883     3053.20
(atE without considering molecular charge,
 total energy contains solvation terms)
H-L gap (eV)  :          6.3498
           ------------------------------------------------- 
          |                 ===============                 |
          |                   A N C O P T                   |
          |                 ===============                 |
          |          Approximate Normal Coordinate          |
          |           Rational Function Optimizer           |
           ------------------------------------------------- 
dumping coords to <xtbopt.coord> and <xtbopt.log>
 optlevel               2
 Maxcycle             520
 Maxmicro              25
 Econv         1.000000000000000E-007
 Gconv         2.000000000000000E-004
 Maxdispl       1.00000000000000     
 Hlow          5.000000000000000E-003
 S6             20.0000000000000     
 Nvar               72

generating ANC from model Hessian ...
 Shifting diagonal of input Hessian by   5.053131272805977E-003
 Lowest  eigenvalues of input Hessian
    0.005000   -0.000000    0.000000    0.000000    0.000000    0.000000
    0.000000    0.005160    0.005502    0.006116    0.006139    0.007022
    0.007882    0.008499    0.009412    0.009769    0.009974    0.010124
 Highest eigenvalues
    1.587588    1.591901    1.596430    3.145088    3.221197    3.319823
 
cpu  time for ANC gen    0.01 s
wall time for ANC gen    0.01 s
................................................................................
.............................. CYCLE    1 ......................................
................................................................................
   1    -50.6113697 -0.506114E+02  0.730E-05    6.35       0.0  T
   2    -50.6113697 -0.131877E-10  0.549E-05    6.35     357.4  T
   3    -50.6113697 -0.113332E-10  0.261E-05    6.35     752.6  T
speedup  0.71
cpu  time for SCC    0.00 s
wall time for SCC    0.00 s
speedup  1.00
cpu  time for grad    0.01 s
wall time for grad    0.01 s
 E :    -50.33528404  G :  0.228422    pred/act E change:  0.000D+00  0.463D-07
Maxdispl :   0.1216   ||displ|| :   0.3036   Lambda : -0.456D-01
Largest |displ|/coords:  0.1216 (  54)  0.1023 (  55)  0.0882 (  26)
................................................................................
.............................. CYCLE    2 ......................................
................................................................................
   1    -50.6282745 -0.506283E+02  0.330E-01    6.46       0.0  T
   2    -50.6285883 -0.313796E-03  0.246E-01    6.59       1.0  T
   3    -50.6287477 -0.159403E-03  0.853E-02    6.86       1.0  T
   4    -50.6287660 -0.183246E-04  0.184E-02    6.85       1.1  T
   5    -50.6287668 -0.809904E-06  0.700E-03    6.83       2.8  T
   6    -50.6287669 -0.819437E-07  0.380E-03    6.83       5.2  T
   7    -50.6287669 -0.311693E-07  0.106E-03    6.83      18.4  T
speedup  1.13
cpu  time for SCC    0.01 s
wall time for SCC    0.01 s
speedup  1.01
cpu  time for grad    0.01 s
wall time for grad    0.01 s
 E :    -50.37189034  G :  0.141990    pred/act E change:  0.000D+00 -0.366D-01
Maxdispl :   0.1275   ||displ|| :   0.3314   Lambda : -0.243D-01
Largest |displ|/coords:  0.1275 (  28)  0.1219 (  26)  0.1037 (  54)
................................................................................
.............................. CYCLE    3 ......................................
................................................................................
   1    -50.6368476 -0.506368E+02  0.299E-01    6.97       0.0  T
   2    -50.6373046 -0.456986E-03  0.216E-01    7.13       1.0  T
   3    -50.6375199 -0.215277E-03  0.955E-02    7.39       1.0  T
   4    -50.6375311 -0.111837E-04  0.181E-02    7.40       1.1  T
   5    -50.6375319 -0.831904E-06  0.700E-03    7.39       2.8  T
   6    -50.6375320 -0.872318E-07  0.387E-03    7.39       5.1  T
   7    -50.6375320 -0.319028E-07  0.116E-03    7.39      17.0  T
speedup  0.95
cpu  time for SCC    0.01 s
wall time for SCC    0.01 s
speedup  1.01
cpu  time for grad    0.01 s
wall time for grad    0.01 s
 E :    -50.39170512  G :  0.096217    pred/act E change: -0.249D-01 -0.198D-01
Maxdispl :   0.1026   ||displ|| :   0.3410   Lambda : -0.134D-01
Largest |displ|/coords:  0.1026 (  26)  0.0984 (  14)  0.0976 (   8)
................................................................................
.............................. CYCLE    4 ......................................
................................................................................
   1    -50.6418226 -0.506418E+02  0.294E-01    7.53       0.0  T
   2    -50.6423233 -0.500627E-03  0.207E-01    7.71       1.0  T
   3    -50.6425543 -0.231073E-03  0.930E-02    7.98       1.0  T
   4    -50.6425651 -0.107809E-04  0.176E-02    8.00       1.1  T
   5    -50.6425660 -0.843579E-06  0.670E-03    7.99       2.9  T
   6    -50.6425660 -0.804329E-07  0.371E-03    7.99       5.3  T
   7    -50.6425661 -0.277671E-07  0.110E-03    7.99      17.8  T
speedup  0.98
cpu  time for SCC    0.01 s
wall time for SCC    0.01 s
speedup  1.01
cpu  time for grad    0.01 s
wall time for grad    0.01 s
 E :    -50.40291420  G :  0.070237    pred/act E change: -0.135D-01 -0.112D-01
Maxdispl :   0.1658   ||displ|| :   0.3822   Lambda : -0.880D-02
Largest |displ|/coords:  0.1658 (  10)  0.1481 (   2)  0.1399 (  14)
................................................................................
.............................. CYCLE    5 ......................................
................................................................................
   1    -50.6437018 -0.506437E+02  0.435E-01    8.08       0.0  T
   2    -50.6442445 -0.542638E-03  0.312E-01    8.30       1.0  T
   3    -50.6444868 -0.242348E-03  0.106E-01    8.67       1.0  T
   4    -50.6445181 -0.312534E-04  0.182E-02    8.65       1.1  T
   5    -50.6445190 -0.952379E-06  0.729E-03    8.63       2.7  T
   6    -50.6445191 -0.106278E-06  0.384E-03    8.63       5.1  T
   7    -50.6445192 -0.235844E-07  0.102E-03    8.63      19.2  T
speedup  1.11
cpu  time for SCC    0.01 s
wall time for SCC    0.01 s
speedup  1.00
cpu  time for grad    0.01 s
wall time for grad    0.01 s
 E :    -50.41042041  G :  0.064342    pred/act E change: -0.751D-02 -0.751D-02
Maxdispl :   0.1148   ||displ|| :   0.3161   Lambda : -0.768D-02
Largest |displ|/coords:  0.1148 (  15)  0.1064 (   8)  0.0930 (   3)
................................................................................
.............................. CYCLE    6 ......................................
................................................................................
   1    -50.6561283 -0.506561E+02  0.258E-01    8.88       0.0  T
   2    -50.6563677 -0.239407E-03  0.188E-01    9.00       1.0  T
   3    -50.6564791 -0.111413E-03  0.689E-02    9.22       1.0  T
   4    -50.6564930 -0.139269E-04  0.134E-02    9.23       1.5  T
   5    -50.6564933 -0.319557E-06  0.491E-03    9.22       4.0  T
   6    -50.6564934 -0.407955E-07  0.244E-03    9.22       8.0  T
speedup  0.91
cpu  time for SCC    0.00 s
wall time for SCC    0.01 s
speedup  0.98
cpu  time for grad    0.01 s
wall time for grad    0.01 s
 E :    -50.41563821  G :  0.048576    pred/act E change: -0.504D-02 -0.522D-02
Maxdispl :   0.2493   ||displ|| :   0.6129   Lambda : -0.150D-01
Largest |displ|/coords:  0.2493 (  10)  0.2044 (  14)  0.1663 (  12)
................................................................................
.............................. CYCLE    7 ......................................
................................................................................
   1    -50.6614054 -0.506614E+02  0.836E-01    9.17       0.0  T
   2    -50.6645516 -0.314623E-02  0.567E-01    9.17       1.0  T
   3    -50.6658807 -0.132912E-02  0.223E-01    9.16       1.0  T
   4    -50.6659757 -0.949291E-04  0.401E-02    9.16       1.0  T
   5    -50.6659807 -0.506101E-05  0.219E-02    9.16       1.0  T
   6    -50.6659816 -0.913976E-06  0.745E-03    9.16       2.6  T
   7    -50.6659817 -0.884040E-07  0.168E-03    9.16      11.6  T
   8    -50.6659817 -0.658974E-08  0.706E-04    9.16      27.8  T
speedup  1.00
cpu  time for SCC    0.01 s
wall time for SCC    0.01 s
speedup  1.01
cpu  time for grad    0.01 s
wall time for grad    0.01 s
 E :    -50.42502865  G :  0.066475    pred/act E change: -0.423D-02 -0.939D-02
Maxdispl :   0.1373   ||displ|| :   0.3290   Lambda : -0.736D-02
Largest |displ|/coords:  0.1373 (  15)  0.1181 (   8)  0.1080 (   3)
................................................................................
.............................. CYCLE    8 ......................................
................................................................................
   1    -50.6806951 -0.506807E+02  0.320E-01    9.13       0.0  T
   2    -50.6807708 -0.757200E-04  0.238E-01    9.13       1.0  T
   3    -50.6808239 -0.530514E-04  0.503E-02    9.12       1.0  T
   4    -50.6808321 -0.828167E-05  0.158E-02    9.12       1.2  T
   5    -50.6808326 -0.449881E-06  0.496E-03    9.12       4.0  T
   6    -50.6808326 -0.254648E-07  0.249E-03    9.12       7.9  T
speedup  1.11
cpu  time for SCC    0.01 s
wall time for SCC    0.01 s
speedup  0.99
cpu  time for grad    0.01 s
wall time for grad    0.01 s
 E :    -50.42777070  G :  0.052376    pred/act E change: -0.103D-01 -0.274D-02
Maxdispl :   0.1539   ||displ|| :   0.3882   Lambda : -0.692D-02
Largest |displ|/coords:  0.1539 (   2)  0.1496 (   7)  0.1387 (   6)
................................................................................
.............................. CYCLE    9 ......................................
................................................................................
   1    -50.6786800 -0.506787E+02  0.438E-01    9.04       0.0  T
   2    -50.6791512 -0.471237E-03  0.311E-01    9.03       1.0  T
   3    -50.6793622 -0.210944E-03  0.101E-01    9.00       1.0  T
   4    -50.6793939 -0.317376E-04  0.177E-02    9.00       1.1  T
   5    -50.6793943 -0.388261E-06  0.832E-03    9.00       2.4  T
   6    -50.6793945 -0.206370E-06  0.328E-03    9.00       6.0  T
   7    -50.6793945 -0.199297E-07  0.682E-04    9.00      28.8  T
speedup  0.98
cpu  time for SCC    0.01 s
wall time for SCC    0.01 s
speedup  1.01
cpu  time for grad    0.01 s
wall time for grad    0.01 s
 E :    -50.43097950  G :  0.063017    pred/act E change: -0.408D-02 -0.321D-02
Maxdispl :   0.1132   ||displ|| :   0.2536   Lambda : -0.489D-02
Largest |displ|/coords:  0.1132 (   3)  0.0883 (   7)  0.0870 (   2)
................................................................................
.............................. CYCLE   10 ......................................
................................................................................
   1    -50.6875757 -0.506876E+02  0.222E-01    9.02       0.0  T
   2    -50.6876895 -0.113783E-03  0.161E-01    9.02       1.0  T
   3    -50.6877447 -0.552762E-04  0.538E-02    9.01       1.0  T
   4    -50.6877535 -0.876411E-05  0.127E-02    9.01       1.5  T
   5    -50.6877538 -0.282867E-06  0.503E-03    9.01       3.9  T
   6    -50.6877538 -0.198123E-07  0.235E-03    9.01       8.4  T
speedup  1.11
cpu  time for SCC    0.01 s
wall time for SCC    0.01 s
speedup  1.06
cpu  time for grad    0.01 s
wall time for grad    0.01 s
 E :    -50.43347471  G :  0.037809    pred/act E change: -0.398D-02 -0.250D-02
Maxdispl :   0.1777   ||displ|| :   0.3478   Lambda : -0.384D-02
Largest |displ|/coords:  0.1777 (   6)  0.1672 (   3)  0.0877 (  25)
................................................................................
.............................. CYCLE   11 ......................................
................................................................................
   1    -50.6954028 -0.506954E+02  0.233E-01    8.99       0.0  T
   2    -50.6954719 -0.691712E-04  0.173E-01    8.98       1.0  T
   3    -50.6955168 -0.448396E-04  0.444E-02    8.95       1.0  T
   4    -50.6955252 -0.842264E-05  0.127E-02    8.95       1.5  T
   5    -50.6955254 -0.232054E-06  0.533E-03    8.95       3.7  T
   6    -50.6955255 -0.470062E-07  0.245E-03    8.95       8.0  T
speedup  0.96
cpu  time for SCC    0.00 s
wall time for SCC    0.01 s
speedup  1.00
cpu  time for grad    0.01 s
wall time for grad    0.01 s
 E :    -50.43655373  G :  0.030921    pred/act E change: -0.260D-02 -0.308D-02
Maxdispl :   0.1831   ||displ|| :   0.5315   Lambda : -0.661D-02
Largest |displ|/coords:  0.1831 (   2)  0.1661 (  30)  0.1577 (   3)
................................................................................
.............................. CYCLE   12 ......................................
................................................................................
   1    -50.7007088 -0.507007E+02  0.424E-01    8.91       0.0  T
   2    -50.7008625 -0.153666E-03  0.313E-01    8.89       1.0  T
   3    -50.7009622 -0.997207E-04  0.753E-02    8.84       1.0  T
   4    -50.7009801 -0.179358E-04  0.250E-02    8.84       1.0  T
   5    -50.7009811 -0.962853E-06  0.774E-03    8.85       2.5  T
   6    -50.7009812 -0.137150E-06  0.445E-03    8.85       4.4  T
   7    -50.7009813 -0.494873E-07  0.135E-03    8.85      14.5  T
speedup  0.98
cpu  time for SCC    0.01 s
wall time for SCC    0.01 s
speedup  1.01
cpu  time for grad    0.01 s
wall time for grad    0.01 s
 E :    -50.43826465  G :  0.058300    pred/act E change: -0.215D-02 -0.171D-02
Maxdispl :   0.0986   ||displ|| :   0.2488   Lambda : -0.550D-02
Largest |displ|/coords:  0.0986 (   6)  0.0918 (  15)  0.0731 (   2)
................................................................................
.............................. CYCLE   13 ......................................
................................................................................
   1    -50.6989896 -0.506990E+02  0.228E-01    8.95       0.0  T
   2    -50.6990482 -0.585829E-04  0.167E-01    8.95       1.0  T
   3    -50.6990862 -0.379959E-04  0.437E-02    8.95       1.0  T
   4    -50.6990918 -0.558943E-05  0.121E-02    8.95       1.6  T
   5    -50.6990920 -0.239712E-06  0.456E-03    8.95       4.3  T
   6    -50.6990920 -0.235586E-07  0.209E-03    8.95       9.4  T
speedup  0.91
cpu  time for SCC    0.00 s
wall time for SCC    0.01 s
speedup  0.98
cpu  time for grad    0.01 s
wall time for grad    0.01 s
 E :    -50.43918491  G :  0.027642    pred/act E change: -0.424D-02 -0.920D-03
Maxdispl :   0.1100   ||displ|| :   0.2187   Lambda : -0.205D-02
Largest |displ|/coords:  0.1100 (   3)  0.0779 (   2)  0.0620 (  16)
................................................................................
.............................. CYCLE   14 ......................................
................................................................................
   1    -50.7026255 -0.507026E+02  0.152E-01    8.94       0.0  T
   2    -50.7026389 -0.133665E-04  0.113E-01    8.93       1.0  T
   3    -50.7026484 -0.952361E-05  0.211E-02    8.92       1.0  T
   4    -50.7026500 -0.158537E-05  0.717E-03    8.92       2.7  T
   5    -50.7026501 -0.729775E-07  0.256E-03    8.92       7.7  T
   6    -50.7026501 -0.940366E-08  0.132E-03    8.92      14.9  T
speedup  1.13
cpu  time for SCC    0.01 s
wall time for SCC    0.01 s
speedup  1.00
cpu  time for grad    0.01 s
wall time for grad    0.01 s
 E :    -50.44050594  G :  0.017268    pred/act E change: -0.292D-02 -0.132D-02
Maxdispl :   0.1279   ||displ|| :   0.2788   Lambda : -0.123D-02
Largest |displ|/coords:  0.1279 (   3)  0.1042 (   6)  0.0787 (   8)
................................................................................
.............................. CYCLE   15 ......................................
................................................................................
   1    -50.7006407 -0.507006E+02  0.197E-01    8.90       0.0  T
   2    -50.7006643 -0.235878E-04  0.147E-01    8.89       1.0  T
   3    -50.7006794 -0.151780E-04  0.252E-02    8.87       1.0  T
   4    -50.7006825 -0.303674E-05  0.991E-03    8.87       2.0  T
   5    -50.7006826 -0.146392E-06  0.320E-03    8.87       6.1  T
   6    -50.7006826 -0.183745E-07  0.178E-03    8.87      11.0  T
   7    -50.7006826 -0.913290E-08  0.533E-04    8.87      36.8  T
speedup  0.95
cpu  time for SCC    0.01 s
wall time for SCC    0.01 s
speedup  1.00
cpu  time for grad    0.01 s
wall time for grad    0.01 s
 E :    -50.44102713  G :  0.030967    pred/act E change: -0.107D-02 -0.521D-03
Maxdispl :   0.1013   ||displ|| :   0.1828   Lambda : -0.103D-02
Largest |displ|/coords:  0.1013 (   3)  0.0654 (   2)  0.0511 (   4)
................................................................................
.............................. CYCLE   16 ......................................
................................................................................
   1    -50.7061198 -0.507061E+02  0.119E-01    8.94       0.0  T
   2    -50.7061338 -0.140054E-04  0.876E-02    8.93       1.0  T
   3    -50.7061423 -0.842270E-05  0.193E-02    8.91       1.0  T
   4    -50.7061440 -0.171513E-05  0.532E-03    8.91       3.7  T
   5    -50.7061440 -0.449452E-07  0.233E-03    8.91       8.4  T
speedup  1.11
cpu  time for SCC    0.00 s
wall time for SCC    0.00 s
speedup  0.98
cpu  time for grad    0.01 s
wall time for grad    0.01 s
 E :    -50.44173267  G :  0.024829    pred/act E change: -0.663D-03 -0.706D-03
Maxdispl :   0.1252   ||displ|| :   0.2619   Lambda : -0.133D-02
Largest |displ|/coords:  0.1252 (  11)  0.1013 (   3)  0.0943 (   2)
................................................................................
.............................. CYCLE   17 ......................................
................................................................................
   1    -50.7082861 -0.507083E+02  0.199E-01    8.98       0.0  T
   2    -50.7083400 -0.538378E-04  0.144E-01    8.98       1.0  T
   3    -50.7083631 -0.231370E-04  0.339E-02    8.97       1.0  T
   4    -50.7083685 -0.543373E-05  0.717E-03    8.97       2.7  T
   5    -50.7083686 -0.876203E-07  0.335E-03    8.97       5.9  T
   6    -50.7083686 -0.978521E-08  0.145E-03    8.97      13.5  T
speedup  0.96
cpu  time for SCC    0.00 s
wall time for SCC    0.01 s
speedup  1.00
cpu  time for grad    0.01 s
wall time for grad    0.01 s
 E :    -50.44252175  G :  0.021008    pred/act E change: -0.532D-03 -0.789D-03
Maxdispl :   0.1054   ||displ|| :   0.2721   Lambda : -0.129D-02
Largest |displ|/coords:  0.1054 (   2)  0.1004 (   3)  0.0868 (   5)
................................................................................
.............................. CYCLE   18 ......................................
................................................................................
   1    -50.7126821 -0.507127E+02  0.192E-01    9.04       0.0  T
   2    -50.7127560 -0.738321E-04  0.140E-01    9.01       1.0  T
   3    -50.7127868 -0.308108E-04  0.424E-02    8.97       1.0  T
   4    -50.7127933 -0.650262E-05  0.807E-03    8.98       2.4  T
   5    -50.7127934 -0.169591E-06  0.385E-03    8.98       5.1  T
   6    -50.7127935 -0.137321E-07  0.177E-03    8.98      11.1  T
speedup  1.11
cpu  time for SCC    0.01 s
wall time for SCC    0.01 s
speedup  0.99
cpu  time for grad    0.01 s
wall time for grad    0.01 s
 E :    -50.44317917  G :  0.023441    pred/act E change: -0.712D-03 -0.657D-03
Maxdispl :   0.2184   ||displ|| :   0.4204   Lambda : -0.138D-02
Largest |displ|/coords:  0.2184 (  11)  0.1643 (   3)  0.1436 (   2)
................................................................................
.............................. CYCLE   19 ......................................
................................................................................
   1    -50.7037522 -0.507038E+02  0.331E-01    8.88       0.0  T
   2    -50.7038458 -0.935680E-04  0.243E-01    8.88       1.0  T
   3    -50.7038952 -0.493909E-04  0.471E-02    8.86       1.0  T
   4    -50.7039063 -0.111140E-04  0.130E-02    8.85       1.5  T
   5    -50.7039066 -0.298527E-06  0.569E-03    8.85       3.4  T
   6    -50.7039066 -0.443982E-07  0.273E-03    8.85       7.2  T
speedup  0.94
cpu  time for SCC    0.00 s
wall time for SCC    0.01 s
speedup  0.97
cpu  time for grad    0.01 s
wall time for grad    0.01 s
 E :    -50.44357787  G :  0.032936    pred/act E change: -0.692D-03 -0.399D-03
Maxdispl :   0.0854   ||displ|| :   0.2396   Lambda : -0.207D-02
Largest |displ|/coords:  0.0854 (   6)  0.0811 (   2)  0.0770 (   1)
................................................................................
.............................. CYCLE   20 ......................................
................................................................................
   1    -50.7081761 -0.507082E+02  0.151E-01    8.88       0.0  T
   2    -50.7082095 -0.333822E-04  0.113E-01    8.87       1.0  T
   3    -50.7082260 -0.165050E-04  0.344E-02    8.85       1.0  T
   4    -50.7082298 -0.380835E-05  0.963E-03    8.86       2.0  T
   5    -50.7082300 -0.241228E-06  0.334E-03    8.86       5.9  T
   6    -50.7082301 -0.115703E-07  0.162E-03    8.86      12.1  T
speedup  0.94
cpu  time for SCC    0.01 s
wall time for SCC    0.01 s
speedup  0.98
cpu  time for grad    0.01 s
wall time for grad    0.01 s
 E :    -50.44485434  G :  0.026764    pred/act E change: -0.810D-03 -0.128D-02
Maxdispl :   0.1167   ||displ|| :   0.3295   Lambda : -0.241D-02
Largest |displ|/coords:  0.1167 (   2)  0.1099 (   1)  0.1019 (  16)
................................................................................
.............................. CYCLE   21 ......................................
................................................................................
   1    -50.7245015 -0.507245E+02  0.203E-01    8.90       0.0  T
   2    -50.7245749 -0.734065E-04  0.149E-01    8.89       1.0  T
   3    -50.7246141 -0.392321E-04  0.482E-02    8.86       1.0  T
   4    -50.7246204 -0.627086E-05  0.156E-02    8.87       1.3  T
   5    -50.7246209 -0.461078E-06  0.454E-03    8.87       4.3  T
   6    -50.7246209 -0.210926E-07  0.238E-03    8.87       8.3  T
speedup  1.11
cpu  time for SCC    0.01 s
wall time for SCC    0.01 s
speedup  1.06
cpu  time for grad    0.01 s
wall time for grad    0.01 s
 E :    -50.44600737  G :  0.036057    pred/act E change: -0.109D-02 -0.115D-02
Maxdispl :   0.1913   ||displ|| :   0.4313   Lambda : -0.232D-02
Largest |displ|/coords:  0.1913 (   2)  0.1044 (  20)  0.1016 (   7)
................................................................................
.............................. CYCLE   22 ......................................
................................................................................
   1    -50.7226643 -0.507227E+02  0.272E-01    8.74       0.0  T
   2    -50.7227282 -0.638902E-04  0.205E-01    8.73       1.0  T
   3    -50.7227724 -0.441547E-04  0.421E-02    8.69       1.0  T
   4    -50.7227811 -0.873739E-05  0.160E-02    8.70       1.2  T
   5    -50.7227816 -0.460547E-06  0.528E-03    8.70       3.7  T
   6    -50.7227816 -0.285262E-07  0.272E-03    8.70       7.2  T
speedup  0.93
cpu  time for SCC    0.00 s
wall time for SCC    0.01 s
speedup  0.98
cpu  time for grad    0.01 s
wall time for grad    0.01 s
 E :    -50.44752333  G :  0.028732    pred/act E change: -0.134D-02 -0.152D-02
Maxdispl :   0.1186   ||displ|| :   0.2783   Lambda : -0.204D-02
Largest |displ|/coords:  0.1186 (   1)  0.0860 (   7)  0.0848 (   2)
................................................................................
.............................. CYCLE   23 ......................................
................................................................................
   1    -50.7206755 -0.507207E+02  0.142E-01    8.65       0.0  T
   2    -50.7206946 -0.191865E-04  0.106E-01    8.65       1.0  T
   3    -50.7207085 -0.138171E-04  0.252E-02    8.66       1.0  T
   4    -50.7207106 -0.211504E-05  0.837E-03    8.65       2.3  T
   5    -50.7207107 -0.121054E-06  0.279E-03    8.65       7.0  T
   6    -50.7207107 -0.916219E-08  0.143E-03    8.65      13.7  T
speedup  0.93
cpu  time for SCC    0.00 s
wall time for SCC    0.01 s
speedup  0.98
cpu  time for grad    0.01 s
wall time for grad    0.01 s
 E :    -50.44861791  G :  0.027624    pred/act E change: -0.138D-02 -0.109D-02
Maxdispl :   0.1326   ||displ|| :   0.2692   Lambda : -0.170D-02
Largest |displ|/coords:  0.1326 (   4)  0.0894 (   1)  0.0894 (   2)
................................................................................
.............................. CYCLE   24 ......................................
................................................................................
   1    -50.7202285 -0.507202E+02  0.174E-01    8.57       0.0  T
   2    -50.7202585 -0.300684E-04  0.128E-01    8.58       1.0  T
   3    -50.7202749 -0.163578E-04  0.313E-02    8.59       1.0  T
   4    -50.7202784 -0.351626E-05  0.851E-03    8.58       2.3  T
   5    -50.7202786 -0.160934E-06  0.335E-03    8.58       5.8  T
   6    -50.7202786 -0.990210E-08  0.168E-03    8.58      11.7  T
speedup  0.93
cpu  time for SCC    0.01 s
wall time for SCC    0.01 s
speedup  0.98
cpu  time for grad    0.01 s
wall time for grad    0.01 s
 E :    -50.44933084  G :  0.028556    pred/act E change: -0.110D-02 -0.713D-03
Maxdispl :   0.0900   ||displ|| :   0.2450   Lambda : -0.165D-02
Largest |displ|/coords:  0.0900 (   1)  0.0686 (   4)  0.0681 (   3)
................................................................................
.............................. CYCLE   25 ......................................
................................................................................
   1    -50.7261669 -0.507262E+02  0.185E-01    8.69       0.0  T
   2    -50.7261869 -0.200032E-04  0.135E-01    8.69       1.0  T
   3    -50.7261982 -0.113063E-04  0.273E-02    8.69       1.0  T
   4    -50.7262002 -0.192066E-05  0.901E-03    8.70       2.2  T
   5    -50.7262003 -0.111412E-06  0.250E-03    8.70       7.9  T
   6    -50.7262003 -0.595997E-08  0.137E-03    8.70      14.3  T
speedup  1.11
cpu  time for SCC    0.01 s
wall time for SCC    0.01 s
speedup  1.06
cpu  time for grad    0.01 s
wall time for grad    0.01 s
 E :    -50.45017321  G :  0.021745    pred/act E change: -0.910D-03 -0.842D-03
Maxdispl :   0.1243   ||displ|| :   0.3072   Lambda : -0.140D-02
Largest |displ|/coords:  0.1243 (   5)  0.1161 (   4)  0.0997 (   2)

generating ANC from model Hessian ...
 Shifting diagonal of input Hessian by   5.075517402623179E-003
 Lowest  eigenvalues of input Hessian
    0.005000   -0.000000   -0.000000   -0.000000    0.000000    0.000000
    0.000000    0.005109    0.005145    0.005310    0.006119    0.006171
    0.006544    0.007295    0.007885    0.008212    0.009882    0.011538
 Highest eigenvalues
    1.378547    1.403588    1.410070    2.736945    3.295818    3.594445
 
cpu  time for ANC gen    0.02 s
wall time for ANC gen    0.02 s
................................................................................
.............................. CYCLE   26 ......................................
................................................................................
   1    -50.7227080 -0.507227E+02  0.203E-01    8.67       0.0  T
   2    -50.7227454 -0.373538E-04  0.150E-01    8.67       1.0  T
   3    -50.7227664 -0.210159E-04  0.338E-02    8.68       1.0  T
   4    -50.7227707 -0.428804E-05  0.128E-02    8.68       1.5  T
   5    -50.7227709 -0.238561E-06  0.350E-03    8.68       5.6  T
   6    -50.7227709 -0.116652E-07  0.198E-03    8.68       9.9  T
   7    -50.7227709 -0.544879E-08  0.489E-04    8.68      40.1  T
   8    -50.7227709 -0.458947E-09  0.151E-04    8.68     130.1  T
speedup  1.13
cpu  time for SCC    0.01 s
wall time for SCC    0.01 s
speedup  1.03
cpu  time for grad    0.02 s
wall time for grad    0.02 s
 E :    -50.45020270  G :  0.026958    pred/act E change:  0.000D+00 -0.295D-04
Maxdispl :   0.1035   ||displ|| :   0.2342   Lambda : -0.160D-02
Largest |displ|/coords:  0.1035 (   5)  0.0918 (   2)  0.0899 (   8)
................................................................................
.............................. CYCLE   27 ......................................
................................................................................
   1    -50.7263118 -0.507263E+02  0.141E-01    8.74       0.0  T
   2    -50.7263209 -0.902150E-05  0.105E-01    8.75       1.0  T
   3    -50.7263261 -0.525894E-05  0.167E-02    8.76       1.2  T
   4    -50.7263273 -0.120326E-05  0.499E-03    8.76       3.9  T
   5    -50.7263274 -0.416040E-07  0.179E-03    8.76      10.9  T
speedup  1.11
cpu  time for SCC    0.00 s
wall time for SCC    0.00 s
speedup  1.05
cpu  time for grad    0.01 s
wall time for grad    0.01 s
 E :    -50.45133757  G :  0.012115    pred/act E change:  0.000D+00 -0.113D-02
Maxdispl :   0.1483   ||displ|| :   0.3680   Lambda : -0.110D-02
Largest |displ|/coords:  0.1483 (   8)  0.1458 (   2)  0.1185 (   4)
................................................................................
.............................. CYCLE   28 ......................................
................................................................................
   1    -50.7267183 -0.507267E+02  0.244E-01    8.83       0.0  T
   2    -50.7267363 -0.179480E-04  0.184E-01    8.84       1.0  T
   3    -50.7267511 -0.148062E-04  0.235E-02    8.86       1.0  T
   4    -50.7267535 -0.242132E-05  0.831E-03    8.85       2.4  T
   5    -50.7267536 -0.102542E-06  0.335E-03    8.85       5.8  T
   6    -50.7267536 -0.111054E-07  0.167E-03    8.85      11.7  T
   7    -50.7267536 -0.743783E-08  0.329E-04    8.85      59.5  T
speedup  1.13
cpu  time for SCC    0.01 s
wall time for SCC    0.01 s
speedup  1.06
cpu  time for grad    0.01 s
wall time for grad    0.01 s
 E :    -50.45196580  G :  0.013144    pred/act E change: -0.845D-03 -0.628D-03
Maxdispl :   0.1285   ||displ|| :   0.2486   Lambda : -0.430D-03
Largest |displ|/coords:  0.1285 (   5)  0.0858 (   4)  0.0847 (   8)
................................................................................
.............................. CYCLE   29 ......................................
................................................................................
   1    -50.7261428 -0.507261E+02  0.145E-01    8.88       0.0  T
   2    -50.7261478 -0.505750E-05  0.108E-01    8.89       1.0  T
   3    -50.7261509 -0.303507E-05  0.128E-02    8.90       1.5  T
   4    -50.7261517 -0.790931E-06  0.417E-03    8.90       4.7  T
   5    -50.7261517 -0.323293E-07  0.152E-03    8.90      12.9  T
   6    -50.7261517 -0.156165E-08  0.781E-04    8.90      25.1  T
speedup  1.09
cpu  time for SCC    0.01 s
wall time for SCC    0.01 s
speedup  1.04
cpu  time for grad    0.01 s
wall time for grad    0.01 s
 E :    -50.45226330  G :  0.012490    pred/act E change: -0.625D-03 -0.297D-03
Maxdispl :   0.1243   ||displ|| :   0.2994   Lambda : -0.445D-03
Largest |displ|/coords:  0.1243 (   7)  0.1177 (   4)  0.1054 (   2)
................................................................................
.............................. CYCLE   30 ......................................
................................................................................
   1    -50.7254496 -0.507254E+02  0.171E-01    8.91       0.0  T
   2    -50.7254563 -0.669440E-05  0.127E-01    8.92       1.0  T
   3    -50.7254602 -0.395141E-05  0.148E-02    8.95       1.3  T
   4    -50.7254612 -0.979246E-06  0.466E-03    8.94       4.2  T
   5    -50.7254612 -0.355019E-07  0.167E-03    8.94      11.7  T
   6    -50.7254612 -0.235637E-08  0.828E-04    8.94      23.7  T
speedup  1.09
cpu  time for SCC    0.01 s
wall time for SCC    0.01 s
speedup  1.05
cpu  time for grad    0.01 s
wall time for grad    0.01 s
 E :    -50.45256381  G :  0.009606    pred/act E change: -0.228D-03 -0.301D-03
Maxdispl :   0.1543   ||displ|| :   0.2816   Lambda : -0.302D-03
Largest |displ|/coords:  0.1543 (   4)  0.1093 (   2)  0.1012 (   8)
................................................................................
.............................. CYCLE   31 ......................................
................................................................................
   1    -50.7248435 -0.507248E+02  0.160E-01    8.95       0.0  T
   2    -50.7248476 -0.404033E-05  0.120E-01    8.96       1.0  T
   3    -50.7248514 -0.387554E-05  0.109E-02    8.98       1.8  T
   4    -50.7248518 -0.390328E-06  0.445E-03    8.97       4.4  T
   5    -50.7248519 -0.214021E-07  0.147E-03    8.97      13.4  T
   6    -50.7248519 -0.272893E-08  0.750E-04    8.97      26.1  T
speedup  0.93
cpu  time for SCC    0.00 s
wall time for SCC    0.01 s
speedup  0.98
cpu  time for grad    0.01 s
wall time for grad    0.01 s
 E :    -50.45275391  G :  0.010509    pred/act E change: -0.242D-03 -0.190D-03
Maxdispl :   0.1099   ||displ|| :   0.2191   Lambda : -0.292D-03
Largest |displ|/coords:  0.1099 (   4)  0.0968 (   2)  0.0919 (   7)
................................................................................
.............................. CYCLE   32 ......................................
................................................................................
   1    -50.7279145 -0.507279E+02  0.111E-01    8.99       0.0  T
   2    -50.7279185 -0.399085E-05  0.825E-02    9.00       1.0  T
   3    -50.7279215 -0.301366E-05  0.103E-02    9.02       1.9  T
   4    -50.7279219 -0.384952E-06  0.383E-03    9.01       5.1  T
   5    -50.7279219 -0.169796E-07  0.121E-03    9.01      16.2  T
   6    -50.7279219 -0.162112E-08  0.624E-04    9.01      31.4  T
speedup  0.93
cpu  time for SCC    0.01 s
wall time for SCC    0.01 s
speedup  0.98
cpu  time for grad    0.01 s
wall time for grad    0.01 s
 E :    -50.45286048  G :  0.009771    pred/act E change: -0.163D-03 -0.107D-03
Maxdispl :   0.1668   ||displ|| :   0.3003   Lambda : -0.341D-03
Largest |displ|/coords:  0.1668 (   4)  0.1167 (   7)  0.1091 (   2)
................................................................................
.............................. CYCLE   33 ......................................
................................................................................
   1    -50.7252182 -0.507252E+02  0.202E-01    9.00       0.0  T
   2    -50.7252277 -0.955009E-05  0.151E-01    9.01       1.0  T
   3    -50.7252356 -0.788158E-05  0.164E-02    9.04       1.2  T
   4    -50.7252368 -0.119895E-05  0.678E-03    9.03       2.9  T
   5    -50.7252369 -0.544667E-07  0.233E-03    9.03       8.4  T
   6    -50.7252369 -0.691238E-08  0.103E-03    9.03      19.1  T
speedup  0.91
cpu  time for SCC    0.00 s
wall time for SCC    0.01 s
speedup  0.97
cpu  time for grad    0.01 s
wall time for grad    0.01 s
 E :    -50.45300075  G :  0.011982    pred/act E change: -0.153D-03 -0.140D-03
Maxdispl :   0.0431   ||displ|| :   0.1027   Lambda : -0.254D-03
Largest |displ|/coords:  0.0431 (  11)  0.0345 (   4)  0.0345 (  12)
................................................................................
.............................. CYCLE   34 ......................................
................................................................................
   1    -50.7285020 -0.507285E+02  0.736E-02    9.05       0.0  T
   2    -50.7285066 -0.464365E-05  0.539E-02    9.04       1.0  T
   3    -50.7285088 -0.219325E-05  0.119E-02    9.02       1.6  T
   4    -50.7285094 -0.600822E-06  0.282E-03    9.03       7.0  T
   5    -50.7285094 -0.158019E-07  0.123E-03    9.03      15.9  T
speedup  0.89
cpu  time for SCC    0.00 s
wall time for SCC    0.00 s
speedup  0.97
cpu  time for grad    0.01 s
wall time for grad    0.01 s
 E :    -50.45308931  G :  0.009203    pred/act E change: -0.186D-03 -0.886D-04
Maxdispl :   0.0768   ||displ|| :   0.1429   Lambda : -0.190D-03
Largest |displ|/coords:  0.0768 (   2)  0.0642 (   3)  0.0579 (   7)
................................................................................
.............................. CYCLE   35 ......................................
................................................................................
   1    -50.7269052 -0.507269E+02  0.843E-02    9.01       0.0  T
   2    -50.7269084 -0.313647E-05  0.631E-02    9.01       1.0  T
   3    -50.7269108 -0.238897E-05  0.977E-03    9.02       2.0  T
   4    -50.7269112 -0.423085E-06  0.251E-03    9.02       7.8  T
   5    -50.7269112 -0.835526E-08  0.118E-03    9.02      16.6  T
speedup  1.06
cpu  time for SCC    0.00 s
wall time for SCC    0.00 s
speedup  0.95
cpu  time for grad    0.01 s
wall time for grad    0.01 s
 E :    -50.45313056  G :  0.010013    pred/act E change: -0.128D-03 -0.413D-04
Maxdispl :   0.0689   ||displ|| :   0.1271   Lambda : -0.212D-03
Largest |displ|/coords:  0.0689 (   7)  0.0531 (   4)  0.0420 (   6)
................................................................................
.............................. CYCLE   36 ......................................
................................................................................
   1    -50.7280468 -0.507280E+02  0.763E-02    9.00       0.0  T
   2    -50.7280493 -0.250218E-05  0.570E-02    9.00       1.0  T
   3    -50.7280511 -0.176681E-05  0.897E-03    9.01       2.2  T
   4    -50.7280514 -0.328173E-06  0.260E-03    9.01       7.5  T
   5    -50.7280514 -0.102449E-07  0.110E-03    9.01      17.8  T
speedup  0.89
cpu  time for SCC    0.00 s
wall time for SCC    0.00 s
speedup  0.97
cpu  time for grad    0.01 s
wall time for grad    0.01 s
 E :    -50.45322054  G :  0.006129    pred/act E change: -0.968D-04 -0.900D-04
Maxdispl :   0.1519   ||displ|| :   0.2056   Lambda : -0.141D-03
Largest |displ|/coords:  0.1519 (   4)  0.0681 (   2)  0.0597 (   8)
................................................................................
.............................. CYCLE   37 ......................................
................................................................................
   1    -50.7267546 -0.507268E+02  0.123E-01    9.01       0.0  T
   2    -50.7267573 -0.274040E-05  0.924E-02    9.01       1.0  T
   3    -50.7267598 -0.248584E-05  0.928E-03    9.01       2.1  T
   4    -50.7267601 -0.329578E-06  0.382E-03    9.01       5.1  T
   5    -50.7267601 -0.209640E-07  0.128E-03    9.01      15.4  T
   6    -50.7267601 -0.176141E-08  0.669E-04    9.01      29.3  T
speedup  0.93
cpu  time for SCC    0.00 s
wall time for SCC    0.01 s
speedup  0.98
cpu  time for grad    0.01 s
wall time for grad    0.01 s
 E :    -50.45328020  G :  0.008659    pred/act E change: -0.108D-03 -0.597D-04
Maxdispl :   0.0486   ||displ|| :   0.0874   Lambda : -0.104D-03
Largest |displ|/coords:  0.0486 (   1)  0.0430 (   4)  0.0285 (   6)
................................................................................
.............................. CYCLE   38 ......................................
................................................................................
   1    -50.7279121 -0.507279E+02  0.397E-02    9.01       0.0  T
   2    -50.7279127 -0.643157E-06  0.294E-02    9.01       1.0  T
   3    -50.7279132 -0.426609E-06  0.504E-03    9.01       3.9  T
   4    -50.7279133 -0.788683E-07  0.155E-03    9.01      12.6  T
   5    -50.7279133 -0.357920E-08  0.516E-04    9.01      38.0  T
speedup  0.87
cpu  time for SCC    0.00 s
wall time for SCC    0.00 s
speedup  0.94
cpu  time for grad    0.01 s
wall time for grad    0.01 s
 E :    -50.45335209  G :  0.004278    pred/act E change: -0.737D-04 -0.719D-04
Maxdispl :   0.1726   ||displ|| :   0.2868   Lambda : -0.141D-03
Largest |displ|/coords:  0.1726 (   4)  0.1035 (   7)  0.1025 (   6)
................................................................................
.............................. CYCLE   39 ......................................
................................................................................
   1    -50.7275880 -0.507276E+02  0.136E-01    8.99       0.0  T
   2    -50.7275907 -0.269014E-05  0.102E-01    8.99       1.0  T
   3    -50.7275931 -0.240704E-05  0.108E-02    8.99       1.8  T
   4    -50.7275935 -0.319061E-06  0.378E-03    8.99       5.2  T
   5    -50.7275935 -0.181611E-07  0.125E-03    8.99      15.7  T
   6    -50.7275935 -0.169540E-08  0.717E-04    8.99      27.4  T
speedup  1.11
cpu  time for SCC    0.01 s
wall time for SCC    0.01 s
speedup  0.97
cpu  time for grad    0.01 s
wall time for grad    0.01 s
 E :    -50.45343460  G :  0.005122    pred/act E change: -0.525D-04 -0.825D-04
Maxdispl :   0.2012   ||displ|| :   0.2919   Lambda : -0.102D-03
Largest |displ|/coords:  0.2012 (   4)  0.0948 (   7)  0.0875 (   1)
................................................................................
.............................. CYCLE   40 ......................................
................................................................................
   1    -50.7255623 -0.507256E+02  0.142E-01    8.97       0.0  T
   2    -50.7255653 -0.302215E-05  0.106E-01    8.97       1.0  T
   3    -50.7255674 -0.209174E-05  0.118E-02    8.98       1.7  T
   4    -50.7255679 -0.458799E-06  0.406E-03    8.98       4.8  T
   5    -50.7255679 -0.151179E-07  0.124E-03    8.98      15.8  T
   6    -50.7255679 -0.194098E-08  0.679E-04    8.98      28.9  T
speedup  0.91
cpu  time for SCC    0.00 s
wall time for SCC    0.01 s
speedup  0.97
cpu  time for grad    0.01 s
wall time for grad    0.01 s
 E :    -50.45346764  G :  0.007424    pred/act E change: -0.761D-04 -0.330D-04
Maxdispl :   0.1598   ||displ|| :   0.2487   Lambda : -0.200D-03
Largest |displ|/coords:  0.1598 (   4)  0.1120 (   1)  0.0809 (   6)
................................................................................
.............................. CYCLE   41 ......................................
................................................................................
   1    -50.7300716 -0.507301E+02  0.126E-01    9.02       0.0  T
   2    -50.7300777 -0.614102E-05  0.934E-02    9.01       1.0  T
   3    -50.7300813 -0.359733E-05  0.164E-02    8.99       1.2  T
   4    -50.7300822 -0.890688E-06  0.488E-03    8.99       4.0  T
   5    -50.7300822 -0.340559E-07  0.168E-03    9.00      11.7  T
   6    -50.7300822 -0.334676E-08  0.848E-04    9.00      23.1  T
speedup  0.93
cpu  time for SCC    0.01 s
wall time for SCC    0.01 s
speedup  0.98
cpu  time for grad    0.01 s
wall time for grad    0.01 s
 E :    -50.45343534  G :  0.010383    pred/act E change: -0.555D-04  0.323D-04
Maxdispl :   0.0441   ||displ|| :   0.0879   Lambda : -0.202D-03
Largest |displ|/coords:  0.0441 (   7)  0.0315 (   4)  0.0271 (  11)
................................................................................
.............................. CYCLE   42 ......................................
................................................................................
   1    -50.7283726 -0.507284E+02  0.590E-02    8.99       0.0  T
   2    -50.7283740 -0.144478E-05  0.430E-02    8.99       1.0  T
   3    -50.7283748 -0.782968E-06  0.739E-03    9.00       2.7  T
   4    -50.7283750 -0.170755E-06  0.213E-03    9.00       9.2  T
   5    -50.7283750 -0.500874E-08  0.704E-04    9.00      27.9  T
speedup  0.89
cpu  time for SCC    0.00 s
wall time for SCC    0.00 s
speedup  0.97
cpu  time for grad    0.01 s
wall time for grad    0.01 s
 E :    -50.45354549  G :  0.003077    pred/act E change: -0.106D-03 -0.110D-03
Maxdispl :   0.0451   ||displ|| :   0.0700   Lambda : -0.308D-04
Largest |displ|/coords:  0.0451 (   4)  0.0290 (   5)  0.0211 (   7)
................................................................................
.............................. CYCLE   43 ......................................
................................................................................
   1    -50.7277165 -0.507277E+02  0.355E-02    8.99       0.0  T
   2    -50.7277167 -0.181178E-06  0.266E-02    8.99       1.0  T
   3    -50.7277169 -0.184290E-06  0.255E-03    9.00       7.7  T
   4    -50.7277169 -0.146595E-07  0.980E-04    9.00      20.0  T
   5    -50.7277169 -0.996920E-09  0.302E-04    9.00      65.0  T
speedup  1.11
cpu  time for SCC    0.00 s
wall time for SCC    0.00 s
speedup  1.01
cpu  time for grad    0.01 s
wall time for grad    0.01 s
 E :    -50.45356358  G :  0.002467    pred/act E change: -0.102D-03 -0.181D-04
Maxdispl :   0.0756   ||displ|| :   0.1129   Lambda : -0.316D-04
Largest |displ|/coords:  0.0756 (   4)  0.0453 (   1)  0.0319 (   7)
................................................................................
.............................. CYCLE   44 ......................................
................................................................................
   1    -50.7279123 -0.507279E+02  0.538E-02    9.00       0.0  T
   2    -50.7279127 -0.454122E-06  0.405E-02    9.00       1.0  T
   3    -50.7279132 -0.489217E-06  0.414E-03    9.00       4.7  T
   4    -50.7279132 -0.409742E-07  0.162E-03    9.00      12.1  T
   5    -50.7279132 -0.255157E-08  0.499E-04    9.00      39.3  T
   6    -50.7279132 -0.269523E-09  0.279E-04    9.00      70.4  T
speedup  0.94
cpu  time for SCC    0.00 s
wall time for SCC    0.01 s
speedup  0.95
cpu  time for grad    0.01 s
wall time for grad    0.01 s
 E :    -50.45358358  G :  0.002747    pred/act E change: -0.155D-04 -0.200D-04
Maxdispl :   0.0572   ||displ|| :   0.1048   Lambda : -0.266D-04
Largest |displ|/coords:  0.0572 (   4)  0.0565 (   1)  0.0318 (  11)
................................................................................
.............................. CYCLE   45 ......................................
................................................................................
   1    -50.7287135 -0.507287E+02  0.452E-02    9.01       0.0  T
   2    -50.7287141 -0.569951E-06  0.338E-02    9.01       1.0  T
   3    -50.7287145 -0.433756E-06  0.465E-03    9.00       4.2  T
   4    -50.7287146 -0.748191E-07  0.173E-03    9.01      11.3  T
   5    -50.7287146 -0.407933E-08  0.511E-04    9.01      38.4  T
   6    -50.7287146 -0.332044E-09  0.284E-04    9.01      69.1  T
speedup  1.09
cpu  time for SCC    0.01 s
wall time for SCC    0.01 s
speedup  1.01
cpu  time for grad    0.01 s
wall time for grad    0.01 s
 E :    -50.45359469  G :  0.002741    pred/act E change: -0.160D-04 -0.111D-04
Maxdispl :   0.0941   ||displ|| :   0.1370   Lambda : -0.186D-04
Largest |displ|/coords:  0.0941 (   4)  0.0564 (   1)  0.0357 (   7)
................................................................................
.............................. CYCLE   46 ......................................
................................................................................
   1    -50.7277244 -0.507277E+02  0.676E-02    9.00       0.0  T
   2    -50.7277252 -0.850582E-06  0.509E-02    9.00       1.0  T
   3    -50.7277261 -0.917209E-06  0.556E-03    9.00       3.5  T
   4    -50.7277262 -0.809321E-07  0.221E-03    9.00       8.9  T
   5    -50.7277262 -0.569935E-08  0.669E-04    9.00      29.3  T
   6    -50.7277262 -0.519222E-09  0.378E-04    9.00      51.8  T
speedup  0.94
cpu  time for SCC    0.00 s
wall time for SCC    0.01 s
speedup  0.94
cpu  time for grad    0.01 s
wall time for grad    0.01 s
 E :    -50.45359629  G :  0.003209    pred/act E change: -0.135D-04 -0.160D-05
Maxdispl :   0.0500   ||displ|| :   0.0658   Lambda : -0.197D-04
Largest |displ|/coords:  0.0500 (   4)  0.0240 (   6)  0.0195 (   7)
................................................................................
.............................. CYCLE   47 ......................................
................................................................................
   1    -50.7287642 -0.507288E+02  0.339E-02    9.00       0.0  T
   2    -50.7287645 -0.267248E-06  0.256E-02    9.00       1.0  T
   3    -50.7287647 -0.253363E-06  0.283E-03    9.00       6.9  T
   4    -50.7287647 -0.311114E-07  0.111E-03    9.00      17.7  T
   5    -50.7287647 -0.180508E-08  0.396E-04    9.00      49.5  T
   6    -50.7287647 -0.178446E-09  0.198E-04    9.00      99.1  T
speedup  0.94
cpu  time for SCC    0.00 s
wall time for SCC    0.01 s
speedup  1.02
cpu  time for grad    0.01 s
wall time for grad    0.01 s
 E :    -50.45360502  G :  0.002161    pred/act E change: -0.948D-05 -0.873D-05
Maxdispl :   0.0093   ||displ|| :   0.0179   Lambda : -0.838D-05
Largest |displ|/coords:  0.0093 (   7)  0.0052 (   6)  0.0051 (   4)
................................................................................
.............................. CYCLE   48 ......................................
................................................................................
   1    -50.7284218 -0.507284E+02  0.124E-02    9.00       0.0  T
   2    -50.7284218 -0.564602E-07  0.918E-03    9.00       2.1  T
   3    -50.7284219 -0.427155E-07  0.132E-03    9.00      14.8  T
   4    -50.7284219 -0.634125E-08  0.479E-04    9.00      41.0  T
   5    -50.7284219 -0.314991E-09  0.151E-04    9.00     130.2  T
speedup  0.89
cpu  time for SCC    0.00 s
wall time for SCC    0.00 s
speedup  0.93
cpu  time for grad    0.01 s
wall time for grad    0.01 s
 E :    -50.45360987  G :  0.001887    pred/act E change: -0.988D-05 -0.485D-05
Maxdispl :   0.0183   ||displ|| :   0.0383   Lambda : -0.740D-05
Largest |displ|/coords:  0.0183 (   1)  0.0170 (   7)  0.0161 (   4)
................................................................................
.............................. CYCLE   49 ......................................
................................................................................
   1    -50.7282299 -0.507282E+02  0.195E-02    9.00       0.0  T
   2    -50.7282300 -0.664951E-07  0.146E-02    9.00       1.3  T
   3    -50.7282301 -0.599831E-07  0.179E-03    9.00      10.9  T
   4    -50.7282301 -0.764894E-08  0.598E-04    9.00      32.8  T
   5    -50.7282301 -0.415987E-09  0.171E-04    9.00     114.6  T
speedup  1.11
cpu  time for SCC    0.01 s
wall time for SCC    0.00 s
speedup  1.01
cpu  time for grad    0.01 s
wall time for grad    0.01 s
 E :    -50.45361577  G :  0.001663    pred/act E change: -0.419D-05 -0.590D-05
Maxdispl :   0.0608   ||displ|| :   0.1304   Lambda : -0.198D-04
Largest |displ|/coords:  0.0608 (   1)  0.0514 (   4)  0.0506 (   7)
................................................................................
.............................. CYCLE   50 ......................................
................................................................................
   1    -50.7278068 -0.507278E+02  0.700E-02    9.00       0.0  T
   2    -50.7278076 -0.772591E-06  0.525E-02    9.01       1.0  T
   3    -50.7278084 -0.826837E-06  0.594E-03    9.01       3.3  T
   4    -50.7278085 -0.685101E-07  0.215E-03    9.01       9.1  T
   5    -50.7278085 -0.524172E-08  0.640E-04    9.01      30.7  T
   6    -50.7278085 -0.458726E-09  0.384E-04    9.01      51.0  T
speedup  0.94
cpu  time for SCC    0.00 s
wall time for SCC    0.01 s
speedup  0.95
cpu  time for grad    0.01 s
wall time for grad    0.01 s
 E :    -50.45362475  G :  0.002737    pred/act E change: -0.371D-05 -0.898D-05
Maxdispl :   0.0182   ||displ|| :   0.0365   Lambda : -0.120D-04
Largest |displ|/coords:  0.0182 (   2)  0.0107 (   6)  0.0101 (   1)
................................................................................
.............................. CYCLE   51 ......................................
................................................................................
   1    -50.7278831 -0.507279E+02  0.215E-02    9.02       0.0  T
   2    -50.7278832 -0.898545E-07  0.161E-02    9.02       1.2  T
   3    -50.7278833 -0.860031E-07  0.218E-03    9.02       9.0  T
   4    -50.7278833 -0.905171E-08  0.673E-04    9.02      29.2  T
   5    -50.7278833 -0.615209E-09  0.194E-04    9.02     100.9  T
speedup  0.89
cpu  time for SCC    0.00 s
wall time for SCC    0.00 s
speedup  1.01
cpu  time for grad    0.01 s
wall time for grad    0.01 s
 E :    -50.45363249  G :  0.002022    pred/act E change: -0.101D-04 -0.773D-05
Maxdispl :   0.0354   ||displ|| :   0.0580   Lambda : -0.132D-04
Largest |displ|/coords:  0.0354 (   2)  0.0194 (   5)  0.0163 (  14)
................................................................................
.............................. CYCLE   52 ......................................
................................................................................
   1    -50.7280245 -0.507280E+02  0.333E-02    9.02       0.0  T
   2    -50.7280247 -0.169625E-06  0.251E-02    9.02       1.0  T
   3    -50.7280248 -0.193386E-06  0.269E-03    9.02       7.3  T
   4    -50.7280249 -0.129243E-07  0.931E-04    9.02      21.1  T
   5    -50.7280249 -0.100859E-08  0.282E-04    9.02      69.6  T
speedup  0.89
cpu  time for SCC    0.00 s
wall time for SCC    0.00 s
speedup  1.01
cpu  time for grad    0.01 s
wall time for grad    0.01 s
 E :    -50.45364376  G :  0.002119    pred/act E change: -0.603D-05 -0.113D-04
Maxdispl :   0.1395   ||displ|| :   0.2302   Lambda : -0.481D-04
Largest |displ|/coords:  0.1395 (   2)  0.0761 (   5)  0.0666 (  14)

generating ANC from model Hessian ...
 Shifting diagonal of input Hessian by   4.841539086362015E-003
 Lowest  eigenvalues of input Hessian
   -0.000000   -0.000000    0.000000    0.000000    0.000000    0.000000
    0.005000    0.005201    0.005403    0.005939    0.006343    0.006895
    0.006990    0.007520    0.008580    0.009261    0.010252    0.011211
 Highest eigenvalues
    1.384593    1.389371    1.390607    2.833519    3.325849    3.591877
 
cpu  time for ANC gen    0.02 s
wall time for ANC gen    0.02 s
................................................................................
.............................. CYCLE   53 ......................................
................................................................................
   1    -50.7280344 -0.507280E+02  0.131E-01    9.04       0.0  T
   2    -50.7280368 -0.245257E-05  0.988E-02    9.04       1.0  T
   3    -50.7280397 -0.284834E-05  0.998E-03    9.04       2.0  T
   4    -50.7280398 -0.172250E-06  0.361E-03    9.04       5.4  T
   5    -50.7280399 -0.130853E-07  0.105E-03    9.04      18.7  T
   6    -50.7280399 -0.113656E-08  0.601E-04    9.04      32.6  T
   7    -50.7280399 -0.509289E-09  0.137E-04    9.04     143.1  T
speedup  1.13
cpu  time for SCC    0.01 s
wall time for SCC    0.01 s
speedup  1.03
cpu  time for grad    0.01 s
wall time for grad    0.01 s
 E :    -50.45367007  G :  0.004323    pred/act E change:  0.000D+00 -0.263D-04
Maxdispl :   0.0171   ||displ|| :   0.0334   Lambda : -0.290D-04
Largest |displ|/coords:  0.0171 (   5)  0.0157 (   2)  0.0102 (   4)
................................................................................
.............................. CYCLE   54 ......................................
................................................................................
   1    -50.7281746 -0.507282E+02  0.248E-02    9.04       0.0  T
   2    -50.7281748 -0.184644E-06  0.187E-02    9.04       1.1  T
   3    -50.7281750 -0.193155E-06  0.238E-03    9.04       8.2  T
   4    -50.7281750 -0.183037E-07  0.820E-04    9.04      23.9  T
speedup  1.11
cpu  time for SCC    0.00 s
wall time for SCC    0.00 s
speedup  1.05
cpu  time for grad    0.01 s
wall time for grad    0.01 s
 E :    -50.45368901  G :  0.001538    pred/act E change:  0.000D+00 -0.189D-04
Maxdispl :   0.0201   ||displ|| :   0.0380   Lambda : -0.137D-04
Largest |displ|/coords:  0.0201 (   2)  0.0148 (  10)  0.0138 (   7)
................................................................................
.............................. CYCLE   55 ......................................
................................................................................
   1    -50.7282549 -0.507283E+02  0.214E-02    9.03       0.0  T
   2    -50.7282550 -0.114075E-06  0.161E-02    9.03       1.2  T
   3    -50.7282551 -0.106022E-06  0.184E-03    9.03      10.6  T
   4    -50.7282551 -0.128370E-07  0.655E-04    9.03      29.9  T
   5    -50.7282551 -0.577948E-09  0.236E-04    9.03      82.9  T
speedup  1.11
cpu  time for SCC    0.00 s
wall time for SCC    0.00 s
speedup  1.01
cpu  time for grad    0.01 s
wall time for grad    0.01 s
 E :    -50.45369739  G :  0.001155    pred/act E change: -0.145D-04 -0.838D-05
Maxdispl :   0.0229   ||displ|| :   0.0445   Lambda : -0.836D-05
Largest |displ|/coords:  0.0229 (   2)  0.0201 (   7)  0.0142 (   4)
................................................................................
.............................. CYCLE   56 ......................................
................................................................................
   1    -50.7282229 -0.507282E+02  0.266E-02    9.03       0.0  T
   2    -50.7282230 -0.119191E-06  0.201E-02    9.03       1.0  T
   3    -50.7282231 -0.141800E-06  0.179E-03    9.03      11.0  T
   4    -50.7282232 -0.848106E-08  0.729E-04    9.03      26.9  T
   5    -50.7282232 -0.596032E-09  0.246E-04    9.03      79.7  T
speedup  0.93
cpu  time for SCC    0.00 s
wall time for SCC    0.00 s
speedup  1.02
cpu  time for grad    0.01 s
wall time for grad    0.01 s
 E :    -50.45370378  G :  0.001502    pred/act E change: -0.684D-05 -0.639D-05
Maxdispl :   0.0622   ||displ|| :   0.1033   Lambda : -0.153D-04
Largest |displ|/coords:  0.0622 (   2)  0.0361 (   7)  0.0312 (  15)
................................................................................
.............................. CYCLE   57 ......................................
................................................................................
   1    -50.7279892 -0.507280E+02  0.574E-02    9.03       0.0  T
   2    -50.7279897 -0.457702E-06  0.432E-02    9.03       1.0  T
   3    -50.7279902 -0.556497E-06  0.369E-03    9.02       5.3  T
   4    -50.7279903 -0.270933E-07  0.126E-03    9.02      15.6  T
   5    -50.7279903 -0.204644E-08  0.490E-04    9.02      40.0  T
   6    -50.7279903 -0.358021E-09  0.266E-04    9.02      73.6  T
speedup  1.13
cpu  time for SCC    0.01 s
wall time for SCC    0.01 s
speedup  1.01
cpu  time for grad    0.01 s
wall time for grad    0.01 s
 E :    -50.45371241  G :  0.001472    pred/act E change: -0.419D-05 -0.864D-05
Maxdispl :   0.0275   ||displ|| :   0.0605   Lambda : -0.877D-05
Largest |displ|/coords:  0.0275 (   2)  0.0265 (   7)  0.0208 (  15)
................................................................................
.............................. CYCLE   58 ......................................
................................................................................
   1    -50.7280035 -0.507280E+02  0.338E-02    9.03       0.0  T
   2    -50.7280037 -0.174485E-06  0.254E-02    9.03       1.0  T
   3    -50.7280039 -0.197036E-06  0.255E-03    9.02       7.7  T
   4    -50.7280039 -0.129365E-07  0.951E-04    9.02      20.6  T
   5    -50.7280039 -0.974268E-09  0.269E-04    9.02      72.8  T
speedup  0.93
cpu  time for SCC    0.00 s
wall time for SCC    0.00 s
speedup  1.02
cpu  time for grad    0.01 s
wall time for grad    0.01 s
 E :    -50.45371713  G :  0.001170    pred/act E change: -0.775D-05 -0.471D-05
Maxdispl :   0.0215   ||displ|| :   0.0373   Lambda : -0.597D-05
Largest |displ|/coords:  0.0215 (   2)  0.0118 (   3)  0.0116 (  11)
................................................................................
.............................. CYCLE   59 ......................................
................................................................................
   1    -50.7282054 -0.507282E+02  0.218E-02    9.03       0.0  T
   2    -50.7282055 -0.815808E-07  0.164E-02    9.03       1.2  T
   3    -50.7282056 -0.905204E-07  0.189E-03    9.03      10.4  T
   4    -50.7282056 -0.613965E-08  0.587E-04    9.03      33.4  T
   5    -50.7282056 -0.386251E-09  0.166E-04    9.03     118.1  T
speedup  1.14
cpu  time for SCC    0.00 s
wall time for SCC    0.00 s
speedup  1.02
cpu  time for grad    0.01 s
wall time for grad    0.01 s
 E :    -50.45372184  G :  0.000916    pred/act E change: -0.440D-05 -0.472D-05
Maxdispl :   0.0518   ||displ|| :   0.0961   Lambda : -0.108D-04
Largest |displ|/coords:  0.0518 (   2)  0.0286 (   3)  0.0276 (  11)
................................................................................
.............................. CYCLE   60 ......................................
................................................................................
   1    -50.7283579 -0.507284E+02  0.553E-02    9.03       0.0  T
   2    -50.7283584 -0.480172E-06  0.415E-02    9.03       1.0  T
   3    -50.7283589 -0.560343E-06  0.468E-03    9.03       4.2  T
   4    -50.7283590 -0.286507E-07  0.162E-03    9.03      12.1  T
   5    -50.7283590 -0.280037E-08  0.424E-04    9.03      46.3  T
   6    -50.7283590 -0.181082E-09  0.271E-04    9.03      72.5  T
speedup  0.94
cpu  time for SCC    0.00 s
wall time for SCC    0.01 s
speedup  0.96
cpu  time for grad    0.01 s
wall time for grad    0.01 s
 E :    -50.45372948  G :  0.001057    pred/act E change: -0.299D-05 -0.764D-05
Maxdispl :   0.0508   ||displ|| :   0.1001   Lambda : -0.862D-05
Largest |displ|/coords:  0.0508 (   2)  0.0295 (   3)  0.0281 (   6)
................................................................................
.............................. CYCLE   61 ......................................
................................................................................
   1    -50.7283340 -0.507283E+02  0.573E-02    9.04       0.0  T
   2    -50.7283346 -0.540359E-06  0.430E-02    9.04       1.0  T
   3    -50.7283352 -0.607598E-06  0.505E-03    9.04       3.9  T
   4    -50.7283352 -0.391291E-07  0.182E-03    9.04      10.8  T
   5    -50.7283352 -0.328617E-08  0.444E-04    9.04      44.1  T
   6    -50.7283352 -0.194746E-09  0.289E-04    9.04      68.0  T
speedup  0.94
cpu  time for SCC    0.00 s
wall time for SCC    0.01 s
speedup  0.96
cpu  time for grad    0.01 s
wall time for grad    0.01 s
 E :    -50.45373622  G :  0.001220    pred/act E change: -0.547D-05 -0.674D-05
Maxdispl :   0.0669   ||displ|| :   0.1443   Lambda : -0.132D-04
Largest |displ|/coords:  0.0669 (   2)  0.0485 (  13)  0.0425 (   3)
................................................................................
.............................. CYCLE   62 ......................................
................................................................................
   1    -50.7282230 -0.507282E+02  0.843E-02    9.04       0.0  T
   2    -50.7282243 -0.127730E-05  0.632E-02    9.04       1.0  T
   3    -50.7282256 -0.135102E-05  0.774E-03    9.05       2.5  T
   4    -50.7282257 -0.109350E-06  0.285E-03    9.05       6.9  T
   5    -50.7282257 -0.769978E-08  0.680E-04    9.05      28.8  T
   6    -50.7282257 -0.497302E-09  0.438E-04    9.05      44.8  T
speedup  0.93
cpu  time for SCC    0.00 s
wall time for SCC    0.01 s
speedup  1.01
cpu  time for grad    0.01 s
wall time for grad    0.01 s
 E :    -50.45374572  G :  0.001582    pred/act E change: -0.435D-05 -0.950D-05
Maxdispl :   0.0412   ||displ|| :   0.1055   Lambda : -0.124D-04
Largest |displ|/coords:  0.0412 (  13)  0.0395 (   2)  0.0319 (   3)
................................................................................
.............................. CYCLE   63 ......................................
................................................................................
   1    -50.7283032 -0.507283E+02  0.619E-02    9.05       0.0  T
   2    -50.7283040 -0.793147E-06  0.464E-02    9.05       1.0  T
   3    -50.7283048 -0.769634E-06  0.612E-03    9.06       3.2  T
   4    -50.7283049 -0.832770E-07  0.219E-03    9.06       9.0  T
   5    -50.7283049 -0.472163E-08  0.524E-04    9.06      37.4  T
   6    -50.7283049 -0.328114E-09  0.335E-04    9.06      58.5  T
speedup  0.94
cpu  time for SCC    0.00 s
wall time for SCC    0.01 s
speedup  0.95
cpu  time for grad    0.01 s
wall time for grad    0.01 s
 E :    -50.45375502  G :  0.001779    pred/act E change: -0.672D-05 -0.930D-05
Maxdispl :   0.0483   ||displ|| :   0.1284   Lambda : -0.144D-04
Largest |displ|/coords:  0.0483 (  13)  0.0468 (   2)  0.0396 (  15)
................................................................................
.............................. CYCLE   64 ......................................
................................................................................
   1    -50.7278856 -0.507279E+02  0.749E-02    9.06       0.0  T
   2    -50.7278869 -0.129765E-05  0.563E-02    9.06       1.0  T
   3    -50.7278881 -0.117410E-05  0.745E-03    9.06       2.6  T
   4    -50.7278882 -0.154386E-06  0.270E-03    9.06       7.3  T
   5    -50.7278882 -0.767960E-08  0.673E-04    9.06      29.1  T
   6    -50.7278882 -0.658865E-09  0.422E-04    9.06      46.5  T
speedup  0.91
cpu  time for SCC    0.00 s
wall time for SCC    0.01 s
speedup  1.01
cpu  time for grad    0.01 s
wall time for grad    0.01 s
 E :    -50.45376428  G :  0.001770    pred/act E change: -0.628D-05 -0.926D-05
Maxdispl :   0.0326   ||displ|| :   0.0763   Lambda : -0.167D-04
Largest |displ|/coords:  0.0326 (   2)  0.0279 (   1)  0.0276 (   7)
................................................................................
.............................. CYCLE   65 ......................................
................................................................................
   1    -50.7291231 -0.507291E+02  0.362E-02    9.10       0.0  T
   2    -50.7291234 -0.316059E-06  0.269E-02    9.10       1.0  T
   3    -50.7291236 -0.232119E-06  0.394E-03    9.10       5.0  T
   4    -50.7291237 -0.366776E-07  0.134E-03    9.10      14.7  T
   5    -50.7291237 -0.224440E-08  0.359E-04    9.10      54.6  T
   6    -50.7291237 -0.147146E-09  0.220E-04    9.10      89.1  T
speedup  1.13
cpu  time for SCC    0.01 s
wall time for SCC    0.01 s
speedup  1.02
cpu  time for grad    0.01 s
wall time for grad    0.01 s
 E :    -50.45376522  G :  0.002234    pred/act E change: -0.733D-05 -0.937D-06
Maxdispl :   0.0365   ||displ|| :   0.0737   Lambda : -0.141D-04
Largest |displ|/coords:  0.0365 (   2)  0.0264 (  15)  0.0227 (  10)
................................................................................
.............................. CYCLE   66 ......................................
[...]
Maxdispl :   0.0239   ||displ|| :   0.0428   Lambda : -0.156D-05
Largest |displ|/coords:  0.0239 (   1)  0.0233 (   3)  0.0140 (  13)
................................................................................
.............................. CYCLE   72 ......................................
................................................................................
   1    -50.7286103 -0.507286E+02  0.191E-02    9.09       0.0  T
   2    -50.7286104 -0.831634E-07  0.143E-02    9.09       1.4  T
   3    -50.7286105 -0.803047E-07  0.208E-03    9.09       9.4  T
   4    -50.7286105 -0.772189E-08  0.751E-04    9.09      26.1  T
   5    -50.7286105 -0.660727E-09  0.168E-04    9.09     116.6  T
speedup  1.14
cpu  time for SCC    0.01 s
wall time for SCC    0.00 s
speedup  1.02
cpu  time for grad    0.01 s
wall time for grad    0.01 s
 E :    -50.45378710  G :  0.000479    pred/act E change: -0.111D-05 -0.101D-05
Maxdispl :   0.0128   ||displ|| :   0.0212   Lambda : -0.119D-05
Largest |displ|/coords:  0.0128 (   1)  0.0127 (   3)  0.0044 (   8)
................................................................................
.............................. CYCLE   73 ......................................
................................................................................
   1    -50.7286183 -0.507286E+02  0.636E-03    9.08       0.0  T
   2    -50.7286183 -0.100936E-07  0.476E-03    9.08       4.1  T
   3    -50.7286183 -0.860649E-08  0.619E-04    9.08      31.7  T
   4    -50.7286183 -0.116256E-08  0.199E-04    9.08      98.6  T
speedup  0.83
cpu  time for SCC    0.00 s
wall time for SCC    0.00 s
speedup  1.00
cpu  time for grad    0.01 s
wall time for grad    0.01 s
 E :    -50.45378791  G :  0.000455    pred/act E change: -0.782D-06 -0.812D-06
Maxdispl :   0.0151   ||displ|| :   0.0238   Lambda : -0.985D-06
Largest |displ|/coords:  0.0151 (   3)  0.0147 (   1)  0.0051 (   8)
................................................................................
.............................. CYCLE   74 ......................................
................................................................................
   1    -50.7285708 -0.507286E+02  0.716E-03    9.08       0.0  T
   2    -50.7285708 -0.788798E-08  0.537E-03    9.08       3.7  T
   3    -50.7285708 -0.803073E-08  0.454E-04    9.08      43.2  T
   4    -50.7285708 -0.656527E-09  0.192E-04    9.08     102.0  T
speedup  1.11
cpu  time for SCC    0.00 s
wall time for SCC    0.00 s
speedup  1.00
cpu  time for grad    0.01 s
wall time for grad    0.01 s
 E :    -50.45378859  G :  0.000379    pred/act E change: -0.596D-06 -0.678D-06
Maxdispl :   0.0169   ||displ|| :   0.0261   Lambda : -0.822D-06
Largest |displ|/coords:  0.0169 (   3)  0.0160 (   1)  0.0064 (   7)
................................................................................
.............................. CYCLE   75 ......................................
................................................................................
   1    -50.7285602 -0.507286E+02  0.920E-03    9.08       0.0  T
   2    -50.7285602 -0.164803E-07  0.683E-03    9.08       2.9  T
   3    -50.7285602 -0.130252E-07  0.709E-04    9.08      27.7  T
   4    -50.7285602 -0.174749E-08  0.248E-04    9.08      79.2  T
speedup  1.11
cpu  time for SCC    0.00 s
wall time for SCC    0.00 s
speedup  1.00
cpu  time for grad    0.01 s
wall time for grad    0.01 s
 E :    -50.45378919  G :  0.000340    pred/act E change: -0.493D-06 -0.607D-06
Maxdispl :   0.0251   ||displ|| :   0.0374   Lambda : -0.918D-06
Largest |displ|/coords:  0.0251 (   3)  0.0228 (   1)  0.0094 (   7)
................................................................................
.............................. CYCLE   76 ......................................
................................................................................
   1    -50.7285448 -0.507285E+02  0.135E-02    9.08       0.0  T
   2    -50.7285449 -0.456276E-07  0.996E-03    9.08       2.0  T
   3    -50.7285449 -0.325646E-07  0.109E-03    9.08      18.0  T
   4    -50.7285449 -0.507929E-08  0.378E-04    9.08      51.9  T
   5    -50.7285449 -0.157378E-09  0.137E-04    9.08     143.5  T
speedup  0.91
cpu  time for SCC    0.00 s
wall time for SCC    0.00 s
speedup  0.94
cpu  time for grad    0.01 s
wall time for grad    0.01 s
 E :    -50.45378985  G :  0.000336    pred/act E change: -0.411D-06 -0.661D-06
Maxdispl :   0.0223   ||displ|| :   0.0340   Lambda : -0.742D-06
Largest |displ|/coords:  0.0223 (   3)  0.0194 (   1)  0.0098 (   7)
................................................................................
.............................. CYCLE   77 ......................................
................................................................................
   1    -50.7285505 -0.507286E+02  0.145E-02    9.08       0.0  T
   2    -50.7285506 -0.495020E-07  0.107E-02    9.08       1.8  T
   3    -50.7285506 -0.370730E-07  0.107E-03    9.08      18.3  T
   4    -50.7285506 -0.514513E-08  0.374E-04    9.08      52.4  T
   5    -50.7285506 -0.138485E-09  0.144E-04    9.08     136.3  T
speedup  0.89
cpu  time for SCC    0.00 s
wall time for SCC    0.00 s
speedup  0.99
cpu  time for grad    0.01 s
wall time for grad    0.01 s
 E :    -50.45379037  G :  0.000327    pred/act E change: -0.460D-06 -0.519D-06
Maxdispl :   0.0155   ||displ|| :   0.0236   Lambda : -0.499D-06
Largest |displ|/coords:  0.0155 (   3)  0.0115 (   1)  0.0070 (   7)
................................................................................
.............................. CYCLE   78 ......................................
................................................................................
   1    -50.7285580 -0.507286E+02  0.111E-02    9.08       0.0  T
   2    -50.7285581 -0.275873E-07  0.819E-03    9.08       2.4  T
   3    -50.7285581 -0.218699E-07  0.764E-04    9.08      25.7  T
   4    -50.7285581 -0.264296E-08  0.311E-04    9.08      63.1  T
speedup  0.86
cpu  time for SCC    0.00 s
wall time for SCC    0.00 s
speedup  1.01
cpu  time for grad    0.01 s
wall time for grad    0.01 s
 E :    -50.45379072  G :  0.000252    pred/act E change: -0.371D-06 -0.351D-06
Maxdispl :   0.0065   ||displ|| :   0.0129   Lambda : -0.317D-06
Largest |displ|/coords:  0.0065 (   3)  0.0047 (   6)  0.0042 (   7)
................................................................................
.............................. CYCLE   79 ......................................
................................................................................
   1    -50.7285768 -0.507286E+02  0.737E-03    9.08       0.0  T
   2    -50.7285768 -0.774823E-08  0.545E-03    9.08       3.6  T
   3    -50.7285768 -0.760853E-08  0.428E-04    9.08      45.8  T
   4    -50.7285768 -0.450875E-09  0.171E-04    9.08     114.9  T
speedup  1.11
cpu  time for SCC    0.00 s
wall time for SCC    0.00 s
speedup  1.00
cpu  time for grad    0.01 s
wall time for grad    0.01 s
 E :    -50.45379095  G :  0.000177    pred/act E change: -0.250D-06 -0.226D-06
Maxdispl :   0.0078   ||displ|| :   0.0120   Lambda : -0.199D-06
Largest |displ|/coords:  0.0078 (   3)  0.0046 (   6)  0.0045 (   2)
................................................................................
.............................. CYCLE   80 ......................................
................................................................................
   1    -50.7285745 -0.507286E+02  0.608E-03    9.08       0.0  T
   2    -50.7285745 -0.707185E-08  0.451E-03    9.08       4.4  T
   3    -50.7285745 -0.692867E-08  0.446E-04    9.08      43.9  T
   4    -50.7285745 -0.530989E-09  0.209E-04    9.08      93.9  T
speedup  1.08
cpu  time for SCC    0.00 s
wall time for SCC    0.00 s
speedup  1.00
cpu  time for grad    0.01 s
wall time for grad    0.01 s
 E :    -50.45379109  G :  0.000156    pred/act E change: -0.158D-06 -0.136D-06
Maxdispl :   0.0026   ||displ|| :   0.0061   Lambda : -0.978D-07
Largest |displ|/coords:  0.0026 (   8)  0.0024 (   1)  0.0023 (   2)
................................................................................
.............................. CYCLE   81 ......................................
................................................................................
   1    -50.7285876 -0.507286E+02  0.321E-03    9.08       0.0  T
   2    -50.7285876 -0.241256E-08  0.242E-03    9.08       8.1  T
   3    -50.7285876 -0.187950E-08  0.275E-04    9.08      71.2  T
   4    -50.7285876 -0.341885E-09  0.116E-04    9.08     169.1  T
speedup  0.83
cpu  time for SCC    0.00 s
wall time for SCC    0.00 s
speedup  1.00
cpu  time for grad    0.01 s
wall time for grad    0.01 s
 E :    -50.45379116  G :  0.000134    pred/act E change: -0.994D-07 -0.724D-07
Maxdispl :   0.0024   ||displ|| :   0.0041   Lambda : -0.631D-07
Largest |displ|/coords:  0.0024 (   2)  0.0017 (   6)  0.0015 (   3)

   *** GEOMETRY OPTIMIZATION CONVERGED AFTER 81 ITERATIONS ***

------------------------------------------------------------------------
 total energy gain (kcal):     -0.0760
------------------------------------------------------------------------
================
 final structure:
================
$coord
        1.70417385184585       -0.71985339195900        1.92263743317338      S 
        3.46433508091261       -1.22708576081368       -0.12569755003073      O 
        0.75621452414603        1.92487087633838        1.72114268979101      O 
       -0.36762588710192       -2.49364500473915        2.01096323939305      O 
        3.12981740867221       -0.84057067704274        4.46942433404158      O 
        4.57363200731616        0.35237443052251        4.18164824358070      H 
       -5.60098629160068        3.16116740263373        0.52406387354834      O 
       -5.09489769106752        3.68355519905689        2.18493312279344      H 
       -2.40396183037253       -1.43423220233515       -4.30870552731689      O 
       -2.33752526422195       -1.45866539714582       -6.11874518543927      H 
       -5.09601247842394       -1.75372248452839        0.36348269152366      O 
       -5.73591726113985        1.28424057958824        0.58775069286382      H 
       -4.77795403778773       -2.06369919537262       -1.40508085447727      H 
       -3.49348558041589       -2.10899491917789        1.21398205485059      H 
        0.85829764994906       -4.65702340589064       -2.58098843138931      O 
        0.04829206718327       -5.32603444558255       -1.09426508569494      H 
       -1.13923698741329       -2.71957984494652       -3.71503912079949      H 
        2.11876508287732       -3.48084847390508       -1.89029295548666      H 
       -1.59217061431998        2.89369835791959       -2.11180323401673      O 
       -3.29373869959396        3.25722556554265       -1.24525150999098      H 
       -0.35858791052387        2.46226948402887       -0.37694837853924      H 
       -1.83689892273366        1.24942877297627       -3.04091020822799      H 
        6.44166472003973        2.25887531594767        2.60289089828148      N 
        6.05403222838452        1.30350100833058        0.98134619040375      H 
        8.33467933096888        2.46116456267844        2.77844987881760      H 
        5.64509546663491        3.99158364788353        2.47101269834877      H 
$end
 
 Bond Distances (Angstroems)
 ---------------------------
S1-O2=1.4541         S1-O3=1.4905         S1-O4=1.4440         S1-O5=1.5458         O2-S1=1.4541         O3-S1=1.4905         
O4-S1=1.4440         O5-S1=1.5458         O5-H6=1.0027         H6-O5=1.0027         O7-H8=0.9595         O7-H12=0.9964        
H8-O7=0.9595         O9-H10=0.9586        O9-H17=1.0046        H10-O9=0.9586        O11-H13=0.9649       O11-H14=0.9783       
H12-O7=0.9964        H13-O11=0.9649       H14-O11=0.9783       O15-H16=0.9633       O15-H18=0.9828       H16-O15=0.9633       
H17-O9=1.0046        H18-O15=0.9828       O19-H20=1.0286       O19-H21=1.1494       O19-H22=1.0078       H20-O19=1.0286       
H21-O19=1.1494       H22-O19=1.0078       N23-H24=1.0168       N23-H25=1.0117       N23-H26=1.0116       H24-N23=1.0168       
H25-N23=1.0117       H26-N23=1.0116       
 N  H  Rav=1.0134 sigma=0.0025  Rmin=1.0116  Rmax=1.0168     3
 O  H  Rav=0.9997 sigma=0.0499  Rmin=0.9586  Rmax=1.1494    12
 S  O  Rav=1.4836 sigma=0.0398  Rmin=1.4440  Rmax=1.5458     4
 
 selected bond angles (degree)
 --------------------
O3-S1-O2=109.61                O4-S1-O2=112.98                O4-S1-O3=110.92                O5-S1-O2=109.25                
O5-S1-O3=105.39                O5-S1-O4=108.39                H6-O5-S1=102.32                H12-O7-H8=106.03               
H17-O9-H10=106.20              
 
 selected dihedral angles (degree)
 ---------------------------------
H6-O5-S1-O2= 52.97            H6-O5-S1-O3=295.28            H6-O5-S1-O4=176.47            
 
 CMA Distance (Angstroems)
 ---------------------------
R(CMA):  2.2710

========================================================================
 FINAL SINGLEPOINT CALCULATION ON OPTIMIZED GEOMETRY
========================================================================

 Ncao       : 65
 Nao        : 64
 Nshell     : 38
 Nel        : 80
 T(el)      :   300.0
 intcut     :    25.0
 scfconv/Eh :  0.100E-05
   qconv/e  :  0.100E-03
 intneglect :  0.100E-07
 broydamp   :      0.250
 iter      E             dE          RMSdq      gap      omega  full diag
   1    -50.7285876 -0.507286E+02  0.401E-05    9.08       0.0  T
   2    -50.7285876 -0.192557E-11  0.248E-05    9.08     791.9  T
   3    -50.7285876 -0.100187E-11  0.544E-06    9.08    3608.2  T
speedup  1.11
cpu  time for SCC    0.00 s
wall time for SCC    0.00 s

   *** convergence criteria satisfied after 3 iterations ***

          eigenvalues
 #    :          28         29         30         31         32         33         34         35
 occ. :        2.000      2.000      2.000      2.000      2.000      2.000      2.000      2.000
 eps  :       -13.675    -13.170    -12.724    -12.551    -12.456    -12.416    -12.291    -12.111
 #    :          36         37         38         39         40         41         42         43
 occ. :        2.000      2.000      2.000      2.000      2.000      0.000      0.000      0.000
 eps  :       -12.065    -12.038    -11.910    -11.818    -11.339     -2.262     -0.531     -0.179
 #    :          44         45         46         47         48         49         50         51
 occ. :        0.000      0.000      0.000      0.000      0.000      0.000      0.000      0.000
 eps  :         0.520      0.877      1.219      1.592      2.794      3.644      4.542      5.096


   #   Z            q   n(s)   n(p)   n(d)      C6AA      α(0)
   1  16 S      1.683  1.585  1.784  0.948    89.166    15.893
   2   8 O     -0.754  1.775  4.980  0.000    30.233     7.372
   3   8 O     -0.730  1.775  4.956  0.000    29.244     7.263
   4   8 O     -0.721  1.753  4.968  0.000    29.276     7.254
   5   8 O     -0.601  1.753  4.848  0.000    25.179     6.774
   6   1 H      0.362  0.638  0.000  0.000     0.552     1.163
   7   8 O     -0.603  1.753  4.850  0.000    25.264     6.784
   8   1 H      0.296  0.704  0.000  0.000     0.734     1.345
   9   8 O     -0.631  1.749  4.882  0.000    25.943     6.874
  10   1 H      0.293  0.707  0.000  0.000     0.742     1.353
  11   8 O     -0.618  1.751  4.867  0.000    25.620     6.831
  12   1 H      0.344  0.656  0.000  0.000     0.602     1.219
  13   1 H      0.311  0.689  0.000  0.000     0.690     1.304
  14   1 H      0.326  0.674  0.000  0.000     0.648     1.265
  15   8 O     -0.605  1.745  4.860  0.000    25.301     6.789
  16   1 H      0.306  0.694  0.000  0.000     0.704     1.318
  17   1 H      0.343  0.657  0.000  0.000     0.605     1.223
  18   1 H      0.325  0.675  0.000  0.000     0.650     1.267
  19   8 O     -0.538  1.746  4.792  0.000    23.662     6.570
  20   1 H      0.379  0.621  0.000  0.000     0.526     1.140
  21   1 H      0.392  0.608  0.000  0.000     0.489     1.092
  22   1 H      0.368  0.632  0.000  0.000     0.548     1.163
  23   7 N     -0.454  1.361  4.093  0.000    31.928     8.392
  24   1 H      0.189  0.811  0.000  0.000     1.165     1.691
  25   1 H      0.169  0.831  0.000  0.000     1.280     1.773
  26   1 H      0.170  0.830  0.000  0.000     1.272     1.767

 Mol. C6AA /au·bohr⁶  :       5470.372891
 Mol. C8AA /au·bohr⁸  :     118249.435307
 Mol. α(0) /au        :        106.877941

 
 Wiberg/Mayer (AO) data. WBOs > 0.1 written file <wbo>
 largest (>0.05) Wiberg bond orders for each atom
           total WBO             WBO to atom ...
     1  S   4.844    O    4 1.367    O    2 1.298    O    3 1.153    O    5 0.982
     2  O   1.711    S    1 1.298    O    4 0.111    O    3 0.100    O    5 0.083    H   18 0.061
     3  O   1.800    S    1 1.153    H   21 0.300    O    4 0.103    O    2 0.100    O   19 0.073    O    5 0.065
     4  O   1.737    S    1 1.367    O    2 0.111    O    3 0.103    O    5 0.069
     5  O   1.988    S    1 0.982    H    6 0.726    O    2 0.083    O    4 0.069    O    3 0.065
     6  H   0.869    O    5 0.726    N   23 0.126
     7  O   1.938    H    8 0.910    H   12 0.793    H   20 0.139    O   19 0.053
     8  H   0.913    O    7 0.910
     9  O   1.896    H   10 0.907    H   17 0.770    H   22 0.104
    10  H   0.914    O    9 0.907
    11  O   1.891    H   13 0.884    H   14 0.841    H   12 0.087
    12  H   0.881    O    7 0.793    O   11 0.087
    13  H   0.903    O   11 0.884
    14  H   0.894    O   11 0.841
    15  O   1.919    H   16 0.896    H   18 0.829    H   17 0.110
    16  H   0.906    O   15 0.896
    17  H   0.882    O    9 0.770    O   15 0.110
    18  H   0.894    O   15 0.829    O    2 0.061
    19  O   2.196    H   22 0.756    H   20 0.715    H   21 0.533    O    3 0.073    O    7 0.053
    20  H   0.857    O   19 0.715    O    7 0.139
    21  H   0.847    O   19 0.533    O    3 0.300
    22  H   0.864    O   19 0.756    O    9 0.104
    23  N   3.068    H   26 0.969    H   25 0.967    H   24 0.944    H    6 0.126
    24  H   0.964    N   23 0.944
    25  H   0.971    N   23 0.967
    26  H   0.971    N   23 0.969
 MOs/occ written to file <molden.input>
 
molecular dipole:
                 x           y           z       tot (Debye)
 q only:        0.169       1.136      -0.728
   full:        0.875       1.041      -0.544       3.723
molecular quadrupole (traceless):
                xx          xy          yy          xz          yz          zz
 q only:        2.003       5.022      -3.450       5.826       4.301       1.447
  q+dip:        1.922       8.123      -3.934       4.762       5.615       2.012
   full:        1.891       8.153      -4.217       5.299       5.853       2.325

SCC energy    :     -50.7285876
rep           :       0.2745695
ES            :       0.2422789
AES           :      -0.0634680
AXC           :      -0.0080702
disp          :      -0.0191140
XB            :       0.0000000
fix           :       0.0000000
total E       :     -50.4537912
atomizationE  :       4.9840953     3127.57
(atE without considering molecular charge,
 total energy contains solvation terms)
H-L gap (eV)  :          9.0770
optimized geometry written to: xtbopt.xyz


------------------------------------------------------------------------
 * finished run on 2019/09/16 at 12:24:41.407     
------------------------------------------------------------------------
 total:
 * wall-time:     0 d,  0 h,  0 min,  2.173 sec
 *  cpu-time:     0 d,  0 h,  0 min,  1.839 sec
 * ratio c/w:     0.846 speedup
 SCF:
 * wall-time:     0 d,  0 h,  0 min,  0.192 sec
 *  cpu-time:     0 d,  0 h,  0 min,  0.136 sec
 * ratio c/w:     0.710 speedup
 ANC optimizer:
 * wall-time:     0 d,  0 h,  0 min,  1.957 sec
 *  cpu-time:     0 d,  0 h,  0 min,  1.682 sec
 * ratio c/w:     0.859 speedup

