      -----------------------------------------------------------      
     |                   =====================                   |     
     |                           x T B                           |     
     |                   =====================                   |     
     |                         S. Grimme                         |     
     |          Mulliken Center for Theoretical Chemistry        |     
     |                    University of Bonn                     |     
     |                 Version 6.0.1 (SAW181210)                 |     
      -----------------------------------------------------------      

   This program is distributed in the hope that it will be useful,
   but WITHOUT ANY WARRANTY; without even the implied warranty of
   MERCHANTABILITY or FITNESS FOR A PARTICULAR PURPOSE.
   
   FOR NON-COMMERCIAL, ACADEMIA USE ONLY.
   
   Cite this work as:
   S. Grimme, C. Bannwarth, P. Shushkov, J. Comput. Theory Chem., 2017,
   13, 1989-2009.
   C. Bannwarth, S. Ehlert and S. Grimme., ChemRxiv, 2018, preprint.
   http://doi.org/10.26434/chemrxiv.7246238.v1
   
   for sTDA-xTB:
   S. Grimme and C. Bannwarth, J. Chem. Phys., 2016, 145, 054103.
   
   in the mass-spec context:
   V. Asgeirsson, C. Bauer and S. Grimme, Chem. Sci., 2017, 8, 4879.
   
   if GBSA is used:
   P. Shushkov, F. März and S. Grimme, unpublished.
   
   for ANC optimizer:
   S. Grimme, unpublished.
   Rational Function algorithm used in ANCopt:
   F. Eckert, P. Pulay, H.-J. Werner, J. Comput. Chem., 1997, 18, 1473.
   
   with help from (in alphabetical order)
   C. Bannwarth, F. Bohle, G. Brandenburg, E. Caldeweyher, M. Checinski,
   S. Dohm, S. Ehlert, S. Ehrlich, F. März, H. Neugebauer, J. Pisarek,
   P. Pracht, P. Shushkov, and S. Spicher.
   
 * started run on 2019/09/16 at 12:43:18.108     
========================================================================
 # omp threads = 1
========================================================================
number of atoms            : 26
number of electrons        : 80
charge                     : 0
spin                       : .0
first test random number   : .2862

########################################################################
# WARNING! Please study the warnings concerning your input carefully
#  - XTBPATH is not set, using XTBHOME instead
#  - the use of '-opt' is discouraged, please use '--opt' next time
#  - the use of '-chrg' is discouraged, please use '--chrg' next time
#  - the use of '-uhf' is discouraged, please use '--uhf' next time
########################################################################

           ------------------------------------------------- 
          |                 G F N 2 - x T B                 |
          | Geometry, Frequencies, Noncovalent interactions |
          |            JCTC 2018 parametrisation            |
           ------------------------------------------------- 
      method parameters     
 k(s)        :  1.8500
 k(p)        :  2.2300
 k(d)        :  2.2300
 k(f)        :  2.0000
 kEN (H0ij)  : -2.0000
 D4 a1       :  0.5200
 D4 a2       :  5.0000
 D4 s6       :  1.0000
 D4 s8       :  2.7000
 D4 s9       :  5.0000
 alphaj      :  2.0000


            Z     q(EN)     CN     RAES       Cart. coordinates
     1  S   6.0    0.65    4.30    4.24     2.91669    -2.36936     1.00786
     2  O   6.0   -0.34    1.26    1.80     0.93567    -2.96935    -0.90098
     3  O   6.0   -0.33    1.24    1.80     1.97065    -0.36465     2.74402
     4  O   6.0   -0.27    1.11    1.80     3.52364    -4.68501     2.49027
     5  O   6.0   -0.25    2.11    1.84     5.20505    -1.47092    -0.28393
     6  H   1.0    0.17    1.33    1.51     4.81487     0.02109    -1.23932
     7  O   6.0   -0.40    1.63    1.81    -2.86522     3.08726    -0.55944
     8  H   1.0    0.17    0.94    1.42    -4.32960     4.19264    -0.90225
     9  O   6.0   -0.39    1.61    1.81     3.68188     2.44375    -2.61475
    10  H   1.0    0.18    0.94    1.42     5.09188     3.08169    -3.65815
    11  O   6.0   -0.29    2.02    1.83    -3.36142    -5.21934     0.58517
    12  H   1.0    0.15    0.97    1.43    -3.31977    -7.02800     0.78922
    13  H   1.0    0.17    1.04    1.43    -1.74440    -4.77762    -0.12528
    14  O   6.0   -0.23    2.94    2.64    -0.43274     0.85639    -3.72634
    15  H   1.0    0.16    1.17    1.46     1.26214     1.64147    -3.69675
    16  H   1.0    0.15    1.02    1.43    -0.37730    -0.94797    -3.24548
    17  H   1.0    0.16    1.17    1.46    -1.66556     1.81534    -2.70064
    18  O   6.0   -0.23    2.94    2.64     1.33578     4.17461     0.86239
    19  H   1.0    0.15    1.01    1.43     1.71768     3.01247     2.27427
    20  H   1.0    0.16    1.17    1.46     2.47096     3.90170    -0.59599
    21  H   1.0    0.16    1.17    1.46    -0.46504     4.10678     0.36847
    22  N   5.0   -0.14    3.96    2.75    -3.27317    -0.50059     2.62553
    23  H   1.0    0.11    1.05    1.44    -1.44841    -0.59402     3.29333
    24  H   1.0    0.12    1.13    1.45    -3.40913     0.92355     1.30727
    25  H   1.0    0.11    1.05    1.44    -3.74902    -2.19639     1.79952
    26  H   1.0    0.08    0.99    1.43    -4.48613    -0.13550     4.10197

  Z AO/shell   Hii/eV     exponent
  1     Wed Apr 25 08:07:45 CEST 2018   EN: 2.200 GM2: 0.406  GM3: 0.0800  RAES: 1.40
     1s    -10.707211    1.230000
  7     Wed Apr 25 08:07:45 CEST 2018   EN: 3.040 GM2: 0.461  GM3:-0.0640  RAES: 1.90
     2s    -16.686243    2.339881
     2p    -12.523956    2.014332
  8     Wed Apr 25 08:07:45 CEST 2018   EN: 3.440 GM2: 0.452  GM3:-0.0517  RAES: 1.80
     2s    -20.229985    2.439742
     2p    -15.503117    2.137023
 16     Tue Apr 24 11:44:34 CEST 2018   EN: 2.580 GM2: 0.340  GM3:-0.0502  RAES: 3.10
     3s    -20.029654    1.981333
     3p    -11.377694    2.025643
     3d     -0.420282    1.702555
 no old-style atom pair restraining (fixing) potential

molecular fragmentation (1/2 indicates fragments):
11111122222222222222222222
# atoms in fragment 1/2:     6    20
 fragment masses (1/2) :       97.07      108.11
CMA distance (Bohr)    :   5.091
constraining FC (au)   :  0.0500
           ------------------------------------------------- 
          |        Self-Consistent Charge Iterations        |
           ------------------------------------------------- 

 Ncao       : 65
 Nao        : 64
 Nshell     : 38
 Nel        : 80
 T(el)      :   300.0
 intcut     :    25.0
 scfconv/Eh :  0.100E-05
   qconv/e  :  0.100E-03
 intneglect :  0.100E-07
 broydamp   :      0.250
 iter      E             dE          RMSdq      gap      omega  full diag
   1    -50.5665718 -0.505666E+02  0.703E+00   10.44       0.0  T
   2    -50.6125510 -0.459792E-01  0.507E+00    9.85       1.0  T
   3    -50.6496068 -0.370558E-01  0.126E+00    8.09       1.0  T
   4    -50.6546173 -0.501049E-02  0.577E-01    8.29       1.0  T
   5    -50.6552998 -0.682459E-03  0.323E-01    8.16       1.0  T
   6    -50.6557883 -0.488500E-03  0.146E-01    8.17       1.0  T
   7    -50.6559154 -0.127155E-03  0.510E-02    8.23       1.0  T
   8    -50.6559272 -0.117663E-04  0.312E-02    8.22       1.0  T
   9    -50.6559321 -0.488664E-05  0.152E-02    8.22       1.3  T
  10    -50.6559336 -0.148422E-05  0.272E-03    8.22       7.2  T
  11    -50.6559336 -0.327326E-07  0.116E-03    8.22      16.9  T
  12    -50.6559336 -0.486843E-08  0.384E-04    8.22      51.0  T
  13    -50.6559336 -0.573536E-09  0.154E-04    8.22     127.3  T
speedup  0.95
cpu  time for SCC    0.02 s
wall time for SCC    0.02 s

   *** convergence criteria satisfied after 13 iterations ***

          eigenvalues
 #    :          28         29         30         31         32         33         34         35
 occ. :        2.000      2.000      2.000      2.000      2.000      2.000      2.000      2.000
 eps  :       -12.414    -12.213    -12.084    -11.397    -11.269    -11.207    -11.162    -10.918
 #    :          36         37         38         39         40         41         42         43
 occ. :        2.000      2.000      2.000      2.000      2.000      0.000      0.000      0.000
 eps  :       -10.842    -10.534    -10.445    -10.068     -9.941     -1.720     -0.514      0.087
 #    :          44         45         46         47         48         49         50         51
 occ. :        0.000      0.000      0.000      0.000      0.000      0.000      0.000      0.000
 eps  :         1.150      1.357      1.749      2.292      2.625      2.751      4.372      4.525


   #   Z            q   n(s)   n(p)   n(d)      C6AA      α(0)
   1  16 S      1.590  1.591  1.843  0.975    91.306    16.082
   2   8 O     -0.790  1.770  5.020  0.000    31.275     7.498
   3   8 O     -0.787  1.767  5.021  0.000    31.194     7.488
   4   8 O     -0.727  1.784  4.942  0.000    29.446     7.275
   5   8 O     -0.587  1.732  4.854  0.000    24.837     6.728
   6   1 H      0.381  0.619  0.000  0.000     0.513     1.120
   7   8 O     -0.846  1.823  5.023  0.000    33.001     7.703
   8   1 H      0.207  0.793  0.000  0.000     1.082     1.634
   9   8 O     -0.863  1.829  5.035  0.000    33.554     7.767
  10   1 H      0.206  0.794  0.000  0.000     1.088     1.639
  11   8 O     -0.619  1.730  4.889  0.000    25.643     6.835
  12   1 H      0.290  0.710  0.000  0.000     0.752     1.362
  13   1 H      0.330  0.670  0.000  0.000     0.637     1.253
  14   8 O     -0.473  1.663  4.810  0.000    22.258     6.372
  15   1 H      0.397  0.603  0.000  0.000     0.486     1.093
  16   1 H      0.384  0.616  0.000  0.000     0.515     1.127
  17   1 H      0.394  0.606  0.000  0.000     0.492     1.100
  18   8 O     -0.470  1.662  4.808  0.000    22.189     6.362
  19   1 H      0.383  0.617  0.000  0.000     0.517     1.130
  20   1 H      0.399  0.601  0.000  0.000     0.483     1.090
  21   1 H      0.396  0.604  0.000  0.000     0.488     1.095
  22   7 N     -0.315  1.260  4.055  0.000    28.088     7.871
  23   1 H      0.288  0.712  0.000  0.000     0.751     1.357
  24   1 H      0.308  0.692  0.000  0.000     0.689     1.300
  25   1 H      0.294  0.706  0.000  0.000     0.731     1.339
  26   1 H      0.228  0.772  0.000  0.000     0.972     1.545

 Mol. C6AA /au·bohr⁶  :       5529.265540
 Mol. C8AA /au·bohr⁸  :     120015.581437
 Mol. α(0) /au        :        107.165796

 
 Wiberg/Mayer (AO) data. WBOs > 0.1 written file <wbo>
 largest (>0.05) Wiberg bond orders for each atom
           total WBO             WBO to atom ...
     1  S   4.921    O    4 1.389    O    2 1.226    O    3 1.225    O    5 1.046
     2  O   1.664    S    1 1.226    O    4 0.107    O    3 0.104    O    5 0.075    H   16 0.057    H   13 0.050
     3  O   1.667    S    1 1.225    O    4 0.107    O    2 0.104    O    5 0.076    H   23 0.054    H   19 0.051
     4  O   1.692    S    1 1.389    O    3 0.107    O    2 0.107    O    5 0.065
     5  O   2.023    S    1 1.046    H    6 0.714    O    3 0.076    O    2 0.075    O    4 0.065
     6  H   0.855    O    5 0.714    O    9 0.121
     7  O   1.624    H    8 0.946    H   17 0.173    H   21 0.170    H   24 0.144    N   22 0.065    O   14 0.058    O   18 0.056
     8  H   0.957    O    7 0.946
     9  O   1.588    H   10 0.945    H   20 0.175    H   15 0.174    H    6 0.121    O   14 0.057    O   18 0.057
    10  H   0.957    O    9 0.945
    11  O   1.846    H   12 0.905    H   13 0.838    H   25 0.053
    12  H   0.916    O   11 0.905
    13  H   0.891    O   11 0.838    O    2 0.050
    14  O   2.270    H   16 0.786    H   17 0.668    H   15 0.663    O    7 0.058    O    9 0.057
    15  H   0.842    O   14 0.663    O    9 0.174
    16  H   0.852    O   14 0.786    O    2 0.057
    17  H   0.845    O   14 0.668    O    7 0.173
    18  O   2.272    H   19 0.792    H   21 0.669    H   20 0.661    O    9 0.057    O    7 0.056
    19  H   0.853    O   18 0.792    O    3 0.051
    20  H   0.841    O   18 0.661    O    9 0.175
    21  H   0.843    O   18 0.669    O    7 0.170
    22  N   3.543    H   26 0.943    H   23 0.857    H   25 0.853    H   24 0.757    O    7 0.065
    23  H   0.917    N   22 0.857    O    3 0.054
    24  H   0.905    N   22 0.757    O    7 0.144
    25  H   0.913    N   22 0.853    O   11 0.053
    26  H   0.948    N   22 0.943
 MOs/occ written to file <molden.input>
 
molecular dipole:
                 x           y           z       tot (Debye)
 q only:       -3.319       2.103       0.003
   full:       -2.808       2.082      -0.241       8.907
molecular quadrupole (traceless):
                xx          xy          yy          xz          yz          zz
 q only:       -2.387      14.796      -4.470     -12.812       8.015       6.856
  q+dip:        0.534      13.570      -4.630     -15.232       7.627       4.096
   full:        0.905      13.695      -4.665     -15.754       7.266       3.760

SCC energy    :     -50.6559336
rep           :       0.2816365
ES            :       0.3387912
AES           :      -0.0799319
AXC           :      -0.0092466
disp          :      -0.0205262
XB            :       0.0000000
fix           :       0.0000000
total E       :     -50.3739629
atomizationE  :       4.9042670     3077.47
(atE without considering molecular charge,
 total energy contains solvation terms)
H-L gap (eV)  :          8.2211
           ------------------------------------------------- 
          |                 ===============                 |
          |                   A N C O P T                   |
          |                 ===============                 |
          |          Approximate Normal Coordinate          |
          |           Rational Function Optimizer           |
           ------------------------------------------------- 
dumping coords to <xtbopt.coord> and <xtbopt.log>
 optlevel               2
 Maxcycle             520
 Maxmicro              25
 Econv         1.000000000000000E-007
 Gconv         2.000000000000000E-004
 Maxdispl       1.00000000000000     
 Hlow          5.000000000000000E-003
 S6             20.0000000000000     
 Nvar               72

generating ANC from model Hessian ...
 Shifting diagonal of input Hessian by   4.732147094945445E-003
 Lowest  eigenvalues of input Hessian
   -0.000000   -0.000000   -0.000000   -0.000000    0.000000    0.000000
    0.005000    0.005631    0.006110    0.006853    0.007739    0.008832
    0.008905    0.009914    0.010787    0.011058    0.012094    0.013559
 Highest eigenvalues
    1.563756    1.589351    1.592381    3.138529    3.215946    3.315789
 
cpu  time for ANC gen    0.03 s
wall time for ANC gen    0.03 s
................................................................................
.............................. CYCLE    1 ......................................
................................................................................
   1    -50.6559336 -0.506559E+02  0.714E-05    8.22       0.0  T
   2    -50.6559336 -0.110489E-10  0.540E-05    8.22     363.2  T
   3    -50.6559336 -0.106368E-10  0.252E-05    8.22     779.2  T
speedup  1.29
cpu  time for SCC    0.00 s
wall time for SCC    0.00 s
speedup  1.07
cpu  time for grad    0.01 s
wall time for grad    0.01 s
 E :    -50.37396281  G :  0.217571    pred/act E change:  0.000D+00  0.551D-07
Maxdispl :   0.1389   ||displ|| :   0.3432   Lambda : -0.439D-01
Largest |displ|/coords:  0.1389 (  55)  0.1074 (  18)  0.1060 (  42)
................................................................................
.............................. CYCLE    2 ......................................
................................................................................
   1    -50.6659381 -0.506659E+02  0.395E-01    8.14       0.0  T
   2    -50.6662966 -0.358432E-03  0.292E-01    8.24       1.0  T
   3    -50.6664399 -0.143334E-03  0.120E-01    8.38       1.0  T
   4    -50.6664564 -0.164906E-04  0.263E-02    8.38       1.0  T
   5    -50.6664590 -0.262638E-05  0.852E-03    8.37       2.3  T
   6    -50.6664591 -0.109053E-06  0.386E-03    8.37       5.1  T
   7    -50.6664592 -0.439418E-07  0.146E-03    8.37      13.4  T
speedup  1.03
cpu  time for SCC    0.01 s
wall time for SCC    0.01 s
speedup  0.99
cpu  time for grad    0.01 s
wall time for grad    0.02 s
 E :    -50.40853702  G :  0.126188    pred/act E change:  0.000D+00 -0.346D-01
Maxdispl :   0.1673   ||displ|| :   0.3888   Lambda : -0.220D-01
Largest |displ|/coords:  0.1673 (  27)  0.1223 (  16)  0.1175 (  21)
................................................................................
.............................. CYCLE    3 ......................................
................................................................................
   1    -50.6688074 -0.506688E+02  0.352E-01    8.39       0.0  T
   2    -50.6692539 -0.446449E-03  0.257E-01    8.49       1.0  T
   3    -50.6694261 -0.172253E-03  0.115E-01    8.61       1.0  T
   4    -50.6694391 -0.130053E-04  0.245E-02    8.62       1.0  T
   5    -50.6694416 -0.244188E-05  0.780E-03    8.61       2.5  T
   6    -50.6694417 -0.104959E-06  0.404E-03    8.61       4.9  T
   7    -50.6694417 -0.484514E-07  0.160E-03    8.61      12.3  T
speedup  1.01
cpu  time for SCC    0.01 s
wall time for SCC    0.01 s
speedup  0.98
cpu  time for grad    0.01 s
wall time for grad    0.02 s
 E :    -50.42555414  G :  0.071117    pred/act E change: -0.245D-01 -0.170D-01
Maxdispl :   0.1619   ||displ|| :   0.3875   Lambda : -0.923D-02
Largest |displ|/coords:  0.1619 (  27)  0.1402 (  16)  0.1087 (  17)
................................................................................
.............................. CYCLE    4 ......................................
................................................................................
   1    -50.6689561 -0.506690E+02  0.287E-01    8.67       0.0  T
   2    -50.6693081 -0.352025E-03  0.207E-01    8.74       1.0  T
   3    -50.6694405 -0.132361E-03  0.942E-02    8.83       1.0  T
   4    -50.6694497 -0.920996E-05  0.199E-02    8.83       1.0  T
   5    -50.6694510 -0.128202E-05  0.633E-03    8.83       3.1  T
   6    -50.6694511 -0.753356E-07  0.343E-03    8.83       5.7  T
   7    -50.6694511 -0.396511E-07  0.140E-03    8.83      14.0  T
speedup  1.03
cpu  time for SCC    0.01 s
wall time for SCC    0.01 s
speedup  0.98
cpu  time for grad    0.01 s
wall time for grad    0.02 s
 E :    -50.43211668  G :  0.039210    pred/act E change: -0.127D-01 -0.656D-02
Maxdispl :   0.1390   ||displ|| :   0.3061   Lambda : -0.366D-02
Largest |displ|/coords:  0.1390 (  16)  0.0997 (  18)  0.0975 (  27)
................................................................................
.............................. CYCLE    5 ......................................
................................................................................
   1    -50.6651456 -0.506651E+02  0.287E-01    8.87       0.0  T
   2    -50.6653534 -0.207832E-03  0.212E-01    8.91       1.0  T
   3    -50.6654267 -0.732773E-04  0.755E-02    8.97       1.0  T
   4    -50.6654413 -0.146341E-04  0.166E-02    8.96       1.2  T
   5    -50.6654422 -0.895996E-06  0.448E-03    8.96       4.4  T
   6    -50.6654423 -0.298664E-07  0.239E-03    8.96       8.2  T
speedup  0.85
cpu  time for SCC    0.00 s
wall time for SCC    0.01 s
speedup  0.96
cpu  time for grad    0.01 s
wall time for grad    0.01 s
 E :    -50.43397940  G :  0.025254    pred/act E change: -0.531D-02 -0.186D-02
Maxdispl :   0.1448   ||displ|| :   0.2846   Lambda : -0.173D-02
Largest |displ|/coords:  0.1448 (   2)  0.1112 (   4)  0.0921 (   3)
................................................................................
.............................. CYCLE    6 ......................................
................................................................................
   1    -50.6693954 -0.506694E+02  0.301E-01    8.94       0.0  T
   2    -50.6694483 -0.529014E-04  0.228E-01    8.96       1.0  T
   3    -50.6694719 -0.236402E-04  0.437E-02    8.98       1.0  T
   4    -50.6694804 -0.846501E-05  0.135E-02    8.96       1.5  T
   5    -50.6694809 -0.519278E-06  0.321E-03    8.96       6.1  T
   6    -50.6694809 -0.644515E-08  0.180E-03    8.96      10.9  T
speedup  1.03
cpu  time for SCC    0.01 s
wall time for SCC    0.01 s
speedup  0.97
cpu  time for grad    0.01 s
wall time for grad    0.01 s
 E :    -50.43416603  G :  0.022854    pred/act E change: -0.200D-02 -0.187D-03
Maxdispl :   0.0643   ||displ|| :   0.1561   Lambda : -0.135D-02
Largest |displ|/coords:  0.0643 (  13)  0.0557 (   3)  0.0465 (   8)
................................................................................
.............................. CYCLE    7 ......................................
................................................................................
   1    -50.6725891 -0.506726E+02  0.185E-01    8.99       0.0  T
   2    -50.6726061 -0.170546E-04  0.140E-01    8.98       1.0  T
   3    -50.6726161 -0.997967E-05  0.248E-02    8.96       1.0  T
   4    -50.6726188 -0.270001E-05  0.608E-03    8.97       3.2  T
   5    -50.6726189 -0.942693E-07  0.203E-03    8.97       9.6  T
   6    -50.6726189 -0.331545E-08  0.103E-03    8.97      19.0  T
speedup  1.03
cpu  time for SCC    0.01 s
wall time for SCC    0.01 s
speedup  0.98
cpu  time for grad    0.01 s
wall time for grad    0.01 s
 E :    -50.43501099  G :  0.014219    pred/act E change: -0.937D-03 -0.845D-03
Maxdispl :   0.0651   ||displ|| :   0.1625   Lambda : -0.550D-03
Largest |displ|/coords:  0.0651 (   1)  0.0599 (   9)  0.0568 (  22)
................................................................................
.............................. CYCLE    8 ......................................
................................................................................
   1    -50.6713237 -0.506713E+02  0.141E-01    8.95       0.0  T
   2    -50.6713342 -0.105083E-04  0.106E-01    8.95       1.0  T
   3    -50.6713406 -0.637717E-05  0.214E-02    8.94       1.0  T
   4    -50.6713420 -0.148456E-05  0.513E-03    8.95       3.8  T
   5    -50.6713421 -0.544832E-07  0.181E-03    8.95      10.8  T
   6    -50.6713421 -0.328792E-08  0.978E-04    8.95      20.1  T
speedup  0.88
cpu  time for SCC    0.01 s
wall time for SCC    0.01 s
speedup  0.99
cpu  time for grad    0.01 s
wall time for grad    0.01 s
 E :    -50.43533957  G :  0.016868    pred/act E change: -0.690D-03 -0.329D-03
Maxdispl :   0.0914   ||displ|| :   0.1996   Lambda : -0.621D-03
Largest |displ|/coords:  0.0914 (   3)  0.0705 (   7)  0.0680 (   2)
................................................................................
.............................. CYCLE    9 ......................................
................................................................................
   1    -50.6749973 -0.506750E+02  0.135E-01    8.94       0.0  T
   2    -50.6750154 -0.180632E-04  0.993E-02    8.94       1.0  T
   3    -50.6750259 -0.104953E-04  0.261E-02    8.94       1.0  T
   4    -50.6750281 -0.224596E-05  0.661E-03    8.95       3.0  T
   5    -50.6750282 -0.700362E-07  0.262E-03    8.95       7.5  T
   6    -50.6750282 -0.101765E-07  0.119E-03    8.95      16.4  T
speedup  1.03
cpu  time for SCC    0.01 s
wall time for SCC    0.01 s
speedup  1.05
cpu  time for grad    0.01 s
wall time for grad    0.01 s
 E :    -50.43556683  G :  0.013115    pred/act E change: -0.282D-03 -0.227D-03
Maxdispl :   0.1985   ||displ|| :   0.2997   Lambda : -0.877D-03
Largest |displ|/coords:  0.1985 (   1)  0.1413 (   4)  0.0683 (   2)
................................................................................
.............................. CYCLE   10 ......................................
................................................................................
   1    -50.6760611 -0.506761E+02  0.230E-01    8.93       0.0  T
   2    -50.6760917 -0.305478E-04  0.171E-01    8.93       1.0  T
   3    -50.6761077 -0.160382E-04  0.313E-02    8.94       1.0  T
   4    -50.6761127 -0.494470E-05  0.783E-03    8.94       2.5  T
   5    -50.6761127 -0.821118E-07  0.374E-03    8.94       5.2  T
   6    -50.6761128 -0.199342E-07  0.154E-03    8.94      12.7  T
   7    -50.6761128 -0.511026E-08  0.602E-04    8.94      32.6  T
speedup  1.03
cpu  time for SCC    0.01 s
wall time for SCC    0.01 s
speedup  0.98
cpu  time for grad    0.01 s
wall time for grad    0.02 s
 E :    -50.43602830  G :  0.018409    pred/act E change: -0.323D-03 -0.461D-03
Maxdispl :   0.0789   ||displ|| :   0.1377   Lambda : -0.590D-03
Largest |displ|/coords:  0.0789 (   1)  0.0384 (   6)  0.0375 (  23)
................................................................................
.............................. CYCLE   11 ......................................
................................................................................
   1    -50.6760240 -0.506760E+02  0.108E-01    8.94       0.0  T
   2    -50.6760387 -0.146644E-04  0.796E-02    8.94       1.0  T
   3    -50.6760450 -0.626478E-05  0.202E-02    8.95       1.0  T
   4    -50.6760469 -0.190659E-05  0.440E-03    8.95       4.5  T
   5    -50.6760469 -0.392921E-07  0.180E-03    8.95      10.9  T
   6    -50.6760469 -0.351481E-08  0.910E-04    8.95      21.6  T
speedup  0.85
cpu  time for SCC    0.00 s
wall time for SCC    0.01 s
speedup  0.90
cpu  time for grad    0.01 s
wall time for grad    0.01 s
 E :    -50.43636708  G :  0.010491    pred/act E change: -0.478D-03 -0.339D-03
Maxdispl :   0.0924   ||displ|| :   0.1719   Lambda : -0.414D-03
Largest |displ|/coords:  0.0924 (   1)  0.0768 (  16)  0.0434 (  20)
................................................................................
.............................. CYCLE   12 ......................................
................................................................................
   1    -50.6763632 -0.506764E+02  0.126E-01    8.97       0.0  T
   2    -50.6763923 -0.290903E-04  0.930E-02    8.97       1.0  T
   3    -50.6764048 -0.125115E-04  0.274E-02    8.98       1.0  T
   4    -50.6764084 -0.360292E-05  0.558E-03    8.98       3.5  T
   5    -50.6764084 -0.383259E-07  0.248E-03    8.98       7.9  T
   6    -50.6764085 -0.519707E-08  0.117E-03    8.98      16.7  T
speedup  1.03
cpu  time for SCC    0.01 s
wall time for SCC    0.01 s
speedup  0.97
cpu  time for grad    0.01 s
wall time for grad    0.01 s
 E :    -50.43663922  G :  0.013209    pred/act E change: -0.301D-03 -0.272D-03
Maxdispl :   0.1600   ||displ|| :   0.2744   Lambda : -0.674D-03
Largest |displ|/coords:  0.1600 (   1)  0.0910 (  16)  0.0699 (  20)
................................................................................
.............................. CYCLE   13 ......................................
................................................................................
   1    -50.6791631 -0.506792E+02  0.189E-01    9.03       0.0  T
   2    -50.6792417 -0.786679E-04  0.139E-01    9.03       1.0  T
   3    -50.6792761 -0.343404E-04  0.444E-02    9.03       1.0  T
   4    -50.6792845 -0.838916E-05  0.920E-03    9.03       2.1  T
   5    -50.6792846 -0.134210E-06  0.407E-03    9.03       4.8  T
   6    -50.6792846 -0.137714E-07  0.199E-03    9.03       9.9  T
   7    -50.6792846 -0.583267E-08  0.437E-04    9.03      44.9  T
speedup  1.00
cpu  time for SCC    0.01 s
wall time for SCC    0.01 s
speedup  0.97
cpu  time for grad    0.01 s
wall time for grad    0.02 s
 E :    -50.43707471  G :  0.018524    pred/act E change: -0.213D-03 -0.435D-03
Maxdispl :   0.2423   ||displ|| :   0.3760   Lambda : -0.890D-03
Largest |displ|/coords:  0.2423 (   1)  0.1052 (  20)  0.0882 (  26)
................................................................................
.............................. CYCLE   14 ......................................
................................................................................
   1    -50.6813168 -0.506813E+02  0.248E-01    9.08       0.0  T
   2    -50.6814277 -0.110851E-03  0.183E-01    9.07       1.0  T
   3    -50.6814799 -0.522400E-04  0.540E-02    9.07       1.0  T
   4    -50.6814935 -0.135590E-04  0.120E-02    9.07       1.6  T
   5    -50.6814937 -0.221446E-06  0.528E-03    9.07       3.7  T
   6    -50.6814937 -0.211402E-07  0.255E-03    9.07       7.7  T
   7    -50.6814937 -0.103572E-07  0.535E-04    9.07      36.7  T
speedup  0.90
cpu  time for SCC    0.01 s
wall time for SCC    0.01 s
speedup  0.99
cpu  time for grad    0.01 s
wall time for grad    0.02 s
 E :    -50.43784085  G :  0.029053    pred/act E change: -0.362D-03 -0.766D-03
Maxdispl :   0.3632   ||displ|| :   0.6693   Lambda : -0.254D-02
Largest |displ|/coords:  0.3632 (   1)  0.2095 (  20)  0.1796 (  26)
................................................................................
.............................. CYCLE   15 ......................................
................................................................................
   1    -50.6857838 -0.506858E+02  0.449E-01    9.11       0.0  T
   2    -50.6860859 -0.302097E-03  0.333E-01    9.09       1.0  T
   3    -50.6862629 -0.176916E-03  0.940E-02    9.07       1.0  T
   4    -50.6863010 -0.381500E-04  0.249E-02    9.08       1.0  T
   5    -50.6863020 -0.996467E-06  0.992E-03    9.08       2.0  T
   6    -50.6863021 -0.770475E-07  0.482E-03    9.08       4.1  T
   7    -50.6863021 -0.397140E-07  0.108E-03    9.08      18.2  T
speedup  1.08
cpu  time for SCC    0.01 s
wall time for SCC    0.01 s
speedup  1.01
cpu  time for grad    0.01 s
wall time for grad    0.01 s
 E :    -50.44006328  G :  0.052376    pred/act E change: -0.508D-03 -0.222D-02
Maxdispl :   0.2810   ||displ|| :   0.4656   Lambda : -0.262D-02
Largest |displ|/coords:  0.2810 (   1)  0.1297 (  26)  0.1156 (  20)
................................................................................
.............................. CYCLE   16 ......................................
................................................................................
   1    -50.6935359 -0.506935E+02  0.293E-01    9.05       0.0  T
   2    -50.6936347 -0.988311E-04  0.220E-01    9.04       1.0  T
   3    -50.6937050 -0.702759E-04  0.538E-02    9.03       1.0  T
   4    -50.6937188 -0.137695E-04  0.165E-02    9.03       1.2  T
   5    -50.6937192 -0.440907E-06  0.650E-03    9.03       3.0  T
   6    -50.6937192 -0.464691E-07  0.296E-03    9.03       6.6  T
   7    -50.6937193 -0.178224E-07  0.698E-04    9.03      28.1  T
speedup  0.59
cpu  time for SCC    0.00 s
wall time for SCC    0.01 s
speedup  0.79
cpu  time for grad    0.01 s
wall time for grad    0.02 s
 E :    -50.44231645  G :  0.064625    pred/act E change: -0.184D-02 -0.225D-02
Maxdispl :   1.0000   ||displ|| :   5.9959   Lambda : -0.283D-01
Largest |displ|/coords:  1.0000 (   1)  1.0000 (   2)  1.0000 (   6)
 exit because of too large step

generating ANC from model Hessian ...
 Shifting diagonal of input Hessian by   4.140029711717823E-003
 Lowest  eigenvalues of input Hessian
   -0.000000   -0.000000   -0.000000   -0.000000    0.000000    0.000000
    0.005000    0.005313    0.006139    0.006589    0.007624    0.007769
    0.008830    0.009469    0.010195    0.010598    0.014317    0.014961
 Highest eigenvalues
    1.373161    1.389972    1.416286    2.726752    3.261571    3.701224
 
cpu  time for ANC gen    0.03 s
wall time for ANC gen    0.03 s
................................................................................
.............................. CYCLE   17 ......................................
................................................................................
   1    -50.6937193 -0.506937E+02  0.223E-04    9.03       0.0  T
   2    -50.6937193 -0.622933E-10  0.154E-04    9.03     127.4  T
   3    -50.6937193 -0.380211E-10  0.590E-05    9.03     332.2  T
speedup  0.97
cpu  time for SCC    0.00 s
wall time for SCC    0.00 s
speedup  0.99
cpu  time for grad    0.01 s
wall time for grad    0.01 s
 E :    -50.44231643  G :  0.064655    pred/act E change:  0.000D+00  0.239D-07
Maxdispl :   0.1434   ||displ|| :   0.3453   Lambda : -0.798D-02
Largest |displ|/coords:  0.1434 (   9)  0.1295 (   3)  0.1171 (   8)
................................................................................
.............................. CYCLE   18 ......................................
................................................................................
   1    -50.7020225 -0.507020E+02  0.251E-01    9.06       0.0  T
   2    -50.7020523 -0.297583E-04  0.186E-01    9.06       1.0  T
   3    -50.7020720 -0.196998E-04  0.336E-02    9.06       1.0  T
   4    -50.7020755 -0.352675E-05  0.901E-03    9.06       2.2  T
   5    -50.7020757 -0.141034E-06  0.348E-03    9.06       5.6  T
   6    -50.7020757 -0.138872E-07  0.181E-03    9.06      10.8  T
speedup  1.03
cpu  time for SCC    0.01 s
wall time for SCC    0.01 s
speedup  0.99
cpu  time for grad    0.01 s
wall time for grad    0.01 s
 E :    -50.44821481  G :  0.048804    pred/act E change:  0.000D+00 -0.590D-02
Maxdispl :   0.0915   ||displ|| :   0.3755   Lambda : -0.922D-02
Largest |displ|/coords:  0.0915 (  56)  0.0905 (  24)  0.0873 (  12)
................................................................................
.............................. CYCLE   19 ......................................
................................................................................
   1    -50.7193609 -0.507194E+02  0.316E-01    9.06       0.0  T
   2    -50.7194712 -0.110367E-03  0.231E-01    9.07       1.0  T
   3    -50.7195394 -0.681582E-04  0.583E-02    9.07       1.0  T
   4    -50.7195513 -0.118870E-04  0.160E-02    9.07       1.2  T
   5    -50.7195517 -0.384545E-06  0.606E-03    9.07       3.2  T
   6    -50.7195517 -0.536464E-07  0.309E-03    9.07       6.3  T
   7    -50.7195517 -0.128041E-07  0.939E-04    9.07      20.9  T
speedup  0.90
cpu  time for SCC    0.01 s
wall time for SCC    0.01 s
speedup  0.99
cpu  time for grad    0.01 s
wall time for grad    0.02 s
 E :    -50.45424543  G :  0.046418    pred/act E change: -0.446D-02 -0.603D-02
Maxdispl :   0.0992   ||displ|| :   0.3802   Lambda : -0.556D-02
Largest |displ|/coords:  0.0992 (   9)  0.0969 (   3)  0.0966 (  24)
................................................................................
.............................. CYCLE   20 ......................................
................................................................................
   1    -50.7297013 -0.507297E+02  0.294E-01    9.04       0.0  T
   2    -50.7298151 -0.113813E-03  0.216E-01    9.04       1.0  T
   3    -50.7298755 -0.603916E-04  0.569E-02    9.04       1.0  T
   4    -50.7298891 -0.136350E-04  0.130E-02    9.04       1.5  T
   5    -50.7298894 -0.232997E-06  0.596E-03    9.04       3.3  T
   6    -50.7298894 -0.389830E-07  0.254E-03    9.04       7.7  T
speedup  1.05
cpu  time for SCC    0.01 s
wall time for SCC    0.01 s
speedup  1.00
cpu  time for grad    0.01 s
wall time for grad    0.01 s
 E :    -50.45837598  G :  0.050889    pred/act E change: -0.526D-02 -0.413D-02
Maxdispl :   0.0888   ||displ|| :   0.2379   Lambda : -0.366D-02
Largest |displ|/coords:  0.0888 (   3)  0.0732 (  24)  0.0685 (  25)
................................................................................
.............................. CYCLE   21 ......................................
................................................................................
   1    -50.7338429 -0.507338E+02  0.151E-01    9.05       0.0  T
   2    -50.7338773 -0.343669E-04  0.113E-01    9.05       1.0  T
   3    -50.7338982 -0.208635E-04  0.301E-02    9.05       1.0  T
   4    -50.7339027 -0.450207E-05  0.754E-03    9.05       2.6  T
   5    -50.7339028 -0.895653E-07  0.330E-03    9.05       5.9  T
   6    -50.7339028 -0.102383E-07  0.145E-03    9.05      13.5  T
speedup  1.03
cpu  time for SCC    0.01 s
wall time for SCC    0.01 s
speedup  0.99
cpu  time for grad    0.01 s
wall time for grad    0.01 s
 E :    -50.46146073  G :  0.035107    pred/act E change: -0.318D-02 -0.308D-02
Maxdispl :   0.1612   ||displ|| :   0.4758   Lambda : -0.654D-02
Largest |displ|/coords:  0.1612 (   5)  0.1607 (  25)  0.1292 (   3)
................................................................................
.............................. CYCLE   22 ......................................
................................................................................
   1    -50.7493466 -0.507493E+02  0.310E-01    9.12       0.0  T
   2    -50.7494750 -0.128370E-03  0.233E-01    9.12       1.0  T
   3    -50.7495655 -0.905333E-04  0.601E-02    9.12       1.0  T
   4    -50.7495813 -0.157982E-04  0.152E-02    9.12       1.3  T
   5    -50.7495816 -0.278659E-06  0.732E-03    9.12       2.7  T
   6    -50.7495816 -0.366558E-07  0.276E-03    9.12       7.1  T
   7    -50.7495816 -0.189055E-07  0.602E-04    9.12      32.6  T
speedup  1.06
cpu  time for SCC    0.01 s
wall time for SCC    0.01 s
speedup  1.03
cpu  time for grad    0.02 s
wall time for grad    0.02 s
 E :    -50.46434838  G :  0.032566    pred/act E change: -0.194D-02 -0.289D-02
Maxdispl :   0.1474   ||displ|| :   0.2247   Lambda : -0.213D-02
Largest |displ|/coords:  0.1474 (   3)  0.0685 (   1)  0.0654 (  10)
................................................................................
.............................. CYCLE   23 ......................................
................................................................................
   1    -50.7453340 -0.507453E+02  0.157E-01    9.15       0.0  T
   2    -50.7453481 -0.140039E-04  0.118E-01    9.15       1.0  T
   3    -50.7453577 -0.965919E-05  0.231E-02    9.14       1.0  T
   4    -50.7453595 -0.174585E-05  0.641E-03    9.14       3.1  T
   5    -50.7453595 -0.773024E-07  0.236E-03    9.14       8.3  T
   6    -50.7453595 -0.704859E-08  0.127E-03    9.14      15.4  T
speedup  0.86
cpu  time for SCC    0.00 s
wall time for SCC    0.01 s
speedup  0.99
cpu  time for grad    0.01 s
wall time for grad    0.01 s
 E :    -50.46550140  G :  0.017998    pred/act E change: -0.401D-02 -0.115D-02
Maxdispl :   0.1560   ||displ|| :   0.2689   Lambda : -0.116D-02
Largest |displ|/coords:  0.1560 (   5)  0.1060 (   8)  0.0935 (   3)
................................................................................
.............................. CYCLE   24 ......................................
................................................................................
   1    -50.7463785 -0.507464E+02  0.162E-01    9.17       0.0  T
   2    -50.7463852 -0.667644E-05  0.122E-01    9.16       1.0  T
   3    -50.7463911 -0.585108E-05  0.145E-02    9.16       1.4  T
   4    -50.7463918 -0.766809E-06  0.466E-03    9.16       4.2  T
   5    -50.7463919 -0.312285E-07  0.191E-03    9.16      10.3  T
   6    -50.7463919 -0.568581E-08  0.104E-03    9.16      18.8  T
speedup  1.05
cpu  time for SCC    0.01 s
wall time for SCC    0.01 s
speedup  1.00
cpu  time for grad    0.01 s
wall time for grad    0.01 s
 E :    -50.46607555  G :  0.016037    pred/act E change: -0.112D-02 -0.574D-03
Maxdispl :   0.1969   ||displ|| :   0.3336   Lambda : -0.983D-03
Largest |displ|/coords:  0.1969 (   3)  0.1282 (   1)  0.1089 (   5)
................................................................................
.............................. CYCLE   25 ......................................
................................................................................
   1    -50.7482813 -0.507483E+02  0.179E-01    9.19       0.0  T
   2    -50.7482920 -0.107389E-04  0.134E-01    9.18       1.0  T
   3    -50.7483009 -0.890776E-05  0.179E-02    9.18       1.1  T
   4    -50.7483024 -0.149894E-05  0.616E-03    9.18       3.2  T
   5    -50.7483025 -0.610737E-07  0.273E-03    9.18       7.2  T
   6    -50.7483025 -0.944380E-08  0.131E-03    9.18      14.9  T
speedup  1.05
cpu  time for SCC    0.01 s
wall time for SCC    0.01 s
speedup  0.99
cpu  time for grad    0.01 s
wall time for grad    0.01 s
 E :    -50.46658245  G :  0.014540    pred/act E change: -0.623D-03 -0.507D-03
Maxdispl :   0.0967   ||displ|| :   0.1878   Lambda : -0.434D-03
Largest |displ|/coords:  0.0967 (   3)  0.0550 (   5)  0.0549 (   8)
................................................................................
.............................. CYCLE   26 ......................................
................................................................................
   1    -50.7517970 -0.507518E+02  0.934E-02    9.20       0.0  T
   2    -50.7518001 -0.309829E-05  0.705E-02    9.20       1.0  T
   3    -50.7518025 -0.244407E-05  0.104E-02    9.19       1.9  T
   4    -50.7518029 -0.383679E-06  0.434E-03    9.19       4.5  T
   5    -50.7518029 -0.262239E-07  0.109E-03    9.19      18.0  T
   6    -50.7518029 -0.108755E-08  0.627E-04    9.19      31.3  T
speedup  1.05
cpu  time for SCC    0.01 s
wall time for SCC    0.01 s
speedup  1.00
cpu  time for grad    0.01 s
wall time for grad    0.01 s
 E :    -50.46678309  G :  0.008765    pred/act E change: -0.546D-03 -0.201D-03
Maxdispl :   0.1452   ||displ|| :   0.2165   Lambda : -0.308D-03
Largest |displ|/coords:  0.1452 (   3)  0.0981 (   5)  0.0624 (   4)
................................................................................
.............................. CYCLE   27 ......................................
................................................................................
   1    -50.7479026 -0.507479E+02  0.134E-01    9.20       0.0  T
   2    -50.7479077 -0.511958E-05  0.101E-01    9.19       1.0  T
   3    -50.7479107 -0.294775E-05  0.140E-02    9.19       1.4  T
   4    -50.7479114 -0.778503E-06  0.477E-03    9.19       4.1  T
   5    -50.7479115 -0.561551E-07  0.141E-03    9.19      13.9  T
   6    -50.7479115 -0.147998E-08  0.856E-04    9.19      22.9  T
speedup  1.05
cpu  time for SCC    0.01 s
wall time for SCC    0.01 s
speedup  1.00
cpu  time for grad    0.01 s
wall time for grad    0.01 s
 E :    -50.46689472  G :  0.015964    pred/act E change: -0.225D-03 -0.112D-03
Maxdispl :   0.0787   ||displ|| :   0.1270   Lambda : -0.365D-03
Largest |displ|/coords:  0.0787 (   3)  0.0332 (   4)  0.0323 (  11)
................................................................................
.............................. CYCLE   28 ......................................
................................................................................
   1    -50.7488500 -0.507489E+02  0.732E-02    9.19       0.0  T
   2    -50.7488542 -0.415889E-05  0.539E-02    9.19       1.0  T
   3    -50.7488569 -0.276810E-05  0.136E-02    9.19       1.4  T
   4    -50.7488574 -0.418322E-06  0.373E-03    9.19       5.3  T
   5    -50.7488574 -0.323154E-07  0.136E-03    9.19      14.4  T
   6    -50.7488574 -0.230700E-08  0.694E-04    9.19      28.3  T
speedup  1.00
cpu  time for SCC    0.01 s
wall time for SCC    0.01 s
speedup  1.04
cpu  time for grad    0.01 s
wall time for grad    0.01 s
 E :    -50.46704259  G :  0.011503    pred/act E change: -0.161D-03 -0.148D-03
Maxdispl :   0.1004   ||displ|| :   0.1715   Lambda : -0.413D-03
Largest |displ|/coords:  0.1004 (   3)  0.0599 (   4)  0.0505 (   9)
................................................................................
.............................. CYCLE   29 ......................................
................................................................................
   1    -50.7504426 -0.507504E+02  0.115E-01    9.19       0.0  T
   2    -50.7504484 -0.582408E-05  0.851E-02    9.19       1.0  T
   3    -50.7504522 -0.380495E-05  0.166E-02    9.19       1.2  T
   4    -50.7504529 -0.706495E-06  0.506E-03    9.19       3.9  T
   5    -50.7504530 -0.535315E-07  0.154E-03    9.19      12.8  T
   6    -50.7504530 -0.240966E-08  0.877E-04    9.19      22.4  T
speedup  1.03
cpu  time for SCC    0.01 s
wall time for SCC    0.01 s
speedup  1.06
cpu  time for grad    0.01 s
wall time for grad    0.01 s
 E :    -50.46716868  G :  0.013503    pred/act E change: -0.185D-03 -0.126D-03
Maxdispl :   0.0625   ||displ|| :   0.1185   Lambda : -0.249D-03
Largest |displ|/coords:  0.0625 (   3)  0.0551 (   4)  0.0429 (   5)
................................................................................
.............................. CYCLE   30 ......................................
................................................................................
   1    -50.7498677 -0.507499E+02  0.853E-02    9.21       0.0  T
   2    -50.7498702 -0.245269E-05  0.641E-02    9.21       1.0  T
   3    -50.7498719 -0.171667E-05  0.900E-03    9.21       2.2  T
   4    -50.7498723 -0.381534E-06  0.246E-03    9.21       8.0  T
   5    -50.7498723 -0.110344E-07  0.997E-04    9.21      19.7  T
speedup  1.02
cpu  time for SCC    0.01 s
wall time for SCC    0.00 s
speedup  0.98
cpu  time for grad    0.01 s
wall time for grad    0.01 s
 E :    -50.46733568  G :  0.009128    pred/act E change: -0.213D-03 -0.167D-03
Maxdispl :   0.1423   ||displ|| :   0.1963   Lambda : -0.247D-03
Largest |displ|/coords:  0.1423 (   3)  0.0647 (   5)  0.0626 (   4)
................................................................................
.............................. CYCLE   31 ......................................
................................................................................
   1    -50.7490980 -0.507491E+02  0.122E-01    9.24       0.0  T
   2    -50.7491003 -0.230971E-05  0.920E-02    9.24       1.0  T
   3    -50.7491020 -0.168824E-05  0.970E-03    9.24       2.0  T
   4    -50.7491023 -0.355513E-06  0.325E-03    9.24       6.0  T
   5    -50.7491024 -0.135535E-07  0.112E-03    9.24      17.6  T
   6    -50.7491024 -0.142983E-08  0.617E-04    9.24      31.8  T
speedup  1.02
cpu  time for SCC    0.01 s
wall time for SCC    0.01 s
speedup  0.98
cpu  time for grad    0.01 s
wall time for grad    0.01 s
 E :    -50.46748844  G :  0.008870    pred/act E change: -0.126D-03 -0.153D-03
Maxdispl :   0.1363   ||displ|| :   0.2143   Lambda : -0.186D-03
Largest |displ|/coords:  0.1363 (   3)  0.0884 (   4)  0.0602 (   5)
................................................................................
.............................. CYCLE   32 ......................................
................................................................................
   1    -50.7492603 -0.507493E+02  0.138E-01    9.27       0.0  T
   2    -50.7492626 -0.236906E-05  0.103E-01    9.27       1.0  T
   3    -50.7492651 -0.244774E-05  0.108E-02    9.27       1.8  T
   4    -50.7492653 -0.220906E-06  0.307E-03    9.27       6.4  T
   5    -50.7492653 -0.153282E-07  0.130E-03    9.27      15.1  T
   6    -50.7492653 -0.240859E-08  0.628E-04    9.27      31.2  T
speedup  0.89
cpu  time for SCC    0.00 s
wall time for SCC    0.01 s
speedup  1.00
cpu  time for grad    0.01 s
wall time for grad    0.01 s
 E :    -50.46762251  G :  0.008756    pred/act E change: -0.128D-03 -0.134D-03
Maxdispl :   0.1491   ||displ|| :   0.2213   Lambda : -0.210D-03
Largest |displ|/coords:  0.1491 (   3)  0.0678 (   4)  0.0478 (  16)
................................................................................
.............................. CYCLE   33 ......................................
................................................................................
   1    -50.7508268 -0.507508E+02  0.144E-01    9.29       0.0  T
   2    -50.7508299 -0.305599E-05  0.108E-01    9.29       1.0  T
   3    -50.7508329 -0.298276E-05  0.127E-02    9.29       1.5  T
   4    -50.7508331 -0.272739E-06  0.457E-03    9.29       4.3  T
   5    -50.7508332 -0.274287E-07  0.132E-03    9.29      14.8  T
   6    -50.7508332 -0.190654E-08  0.862E-04    9.29      22.8  T
speedup  1.03
cpu  time for SCC    0.01 s
wall time for SCC    0.01 s
speedup  1.04
cpu  time for grad    0.01 s
wall time for grad    0.01 s
 E :    -50.46775270  G :  0.005002    pred/act E change: -0.975D-04 -0.130D-03
Maxdispl :   0.1437   ||displ|| :   0.2133   Lambda : -0.111D-03
Largest |displ|/coords:  0.1437 (   3)  0.0796 (   5)  0.0546 (   4)
................................................................................
.............................. CYCLE   34 ......................................
................................................................................
   1    -50.7491871 -0.507492E+02  0.140E-01    9.28       0.0  T
   2    -50.7491892 -0.207535E-05  0.105E-01    9.28       1.0  T
   3    -50.7491915 -0.229745E-05  0.948E-03    9.28       2.1  T
   4    -50.7491917 -0.162309E-06  0.225E-03    9.28       8.7  T
   5    -50.7491917 -0.596737E-08  0.136E-03    9.28      14.4  T
speedup  1.02
cpu  time for SCC    0.00 s
wall time for SCC    0.00 s
speedup  0.98
cpu  time for grad    0.01 s
wall time for grad    0.01 s
 E :    -50.46779787  G :  0.006795    pred/act E change: -0.110D-03 -0.452D-04
Maxdispl :   0.0222   ||displ|| :   0.0622   Lambda : -0.102D-03
Largest |displ|/coords:  0.0222 (  13)  0.0219 (   5)  0.0173 (  18)
................................................................................
.............................. CYCLE   35 ......................................
................................................................................
   1    -50.7515649 -0.507516E+02  0.449E-02    9.27       0.0  T
   2    -50.7515658 -0.881270E-06  0.333E-02    9.27       1.0  T
   3    -50.7515665 -0.715622E-06  0.710E-03    9.27       2.8  T
   4    -50.7515666 -0.919351E-07  0.232E-03    9.27       8.4  T
   5    -50.7515666 -0.663400E-08  0.600E-04    9.27      32.7  T
speedup  1.04
cpu  time for SCC    0.00 s
wall time for SCC    0.00 s
speedup  0.98
cpu  time for grad    0.01 s
wall time for grad    0.01 s
 E :    -50.46783475  G :  0.005269    pred/act E change: -0.581D-04 -0.369D-04
Maxdispl :   0.0887   ||displ|| :   0.1392   Lambda : -0.901D-04
Largest |displ|/coords:  0.0887 (   3)  0.0355 (   7)  0.0330 (  13)
................................................................................
.............................. CYCLE   36 ......................................
................................................................................
   1    -50.7501134 -0.507501E+02  0.995E-02    9.26       0.0  T
   2    -50.7501164 -0.301025E-05  0.750E-02    9.26       1.0  T
   3    -50.7501192 -0.276081E-05  0.987E-03    9.26       2.0  T
   4    -50.7501195 -0.361431E-06  0.317E-03    9.26       6.2  T
   5    -50.7501196 -0.132808E-07  0.122E-03    9.26      16.1  T
   6    -50.7501196 -0.196411E-08  0.617E-04    9.26      31.8  T
speedup  1.05
cpu  time for SCC    0.01 s
wall time for SCC    0.01 s
speedup  1.00
cpu  time for grad    0.01 s
wall time for grad    0.01 s
 E :    -50.46783368  G :  0.008233    pred/act E change: -0.511D-04  0.107D-05
Maxdispl :   0.0475   ||displ|| :   0.0807   Lambda : -0.922D-04
Largest |displ|/coords:  0.0475 (   3)  0.0260 (   5)  0.0211 (   8)
................................................................................
.............................. CYCLE   37 ......................................
................................................................................
   1    -50.7509662 -0.507510E+02  0.499E-02    9.26       0.0  T
   2    -50.7509679 -0.161104E-05  0.372E-02    9.26       1.0  T
   3    -50.7509690 -0.117007E-05  0.753E-03    9.26       2.6  T
   4    -50.7509692 -0.189852E-06  0.211E-03    9.26       9.3  T
   5    -50.7509692 -0.793209E-08  0.761E-04    9.26      25.8  T
speedup  1.02
cpu  time for SCC    0.01 s
wall time for SCC    0.00 s
speedup  0.98
cpu  time for grad    0.01 s
wall time for grad    0.01 s
 E :    -50.46787150  G :  0.003998    pred/act E change: -0.459D-04 -0.378D-04
Maxdispl :   0.0241   ||displ|| :   0.0493   Lambda : -0.562D-04
Largest |displ|/coords:  0.0241 (   5)  0.0239 (   7)  0.0163 (   1)
................................................................................
.............................. CYCLE   38 ......................................
................................................................................
   1    -50.7511467 -0.507511E+02  0.394E-02    9.27       0.0  T
   2    -50.7511472 -0.511434E-06  0.295E-02    9.27       1.0  T
   3    -50.7511476 -0.424675E-06  0.415E-03    9.27       4.7  T
   4    -50.7511477 -0.595516E-07  0.121E-03    9.27      16.2  T
   5    -50.7511477 -0.168059E-08  0.501E-04    9.27      39.1  T
   6    -50.7511477 -0.314692E-09  0.232E-04    9.27      84.4  T
speedup  1.02
cpu  time for SCC    0.01 s
wall time for SCC    0.01 s
speedup  0.95
cpu  time for grad    0.01 s
wall time for grad    0.01 s
 E :    -50.46786261  G :  0.005230    pred/act E change: -0.464D-04  0.890D-05
Maxdispl :   0.0209   ||displ|| :   0.0411   Lambda : -0.603D-04
Largest |displ|/coords:  0.0209 (   1)  0.0159 (   7)  0.0143 (  10)
................................................................................
.............................. CYCLE   39 ......................................
................................................................................
   1    -50.7509937 -0.507510E+02  0.321E-02    9.27       0.0  T
   2    -50.7509941 -0.326860E-06  0.244E-02    9.26       1.0  T
   3    -50.7509944 -0.366213E-06  0.304E-03    9.26       6.4  T
   4    -50.7509945 -0.291172E-07  0.120E-03    9.26      16.4  T
   5    -50.7509945 -0.154690E-08  0.385E-04    9.26      51.0  T
speedup  0.98
cpu  time for SCC    0.00 s
wall time for SCC    0.01 s
speedup  0.97
cpu  time for grad    0.01 s
wall time for grad    0.01 s
 E :    -50.46789776  G :  0.001806    pred/act E change: -0.282D-04 -0.352D-04
Maxdispl :   0.0158   ||displ|| :   0.0328   Lambda : -0.144D-04
Largest |displ|/coords:  0.0158 (   1)  0.0128 (  18)  0.0092 (   2)
................................................................................
.............................. CYCLE   40 ......................................
................................................................................
   1    -50.7511038 -0.507511E+02  0.266E-02    9.26       0.0  T
   2    -50.7511040 -0.127030E-06  0.202E-02    9.26       1.0  T
   3    -50.7511041 -0.141562E-06  0.199E-03    9.27       9.8  T
   4    -50.7511041 -0.117626E-07  0.891E-04    9.26      22.0  T
   5    -50.7511041 -0.847024E-09  0.224E-04    9.26      87.7  T
speedup  1.02
cpu  time for SCC    0.00 s
wall time for SCC    0.00 s
speedup  1.01
cpu  time for grad    0.01 s
wall time for grad    0.01 s
 E :    -50.46790879  G :  0.001810    pred/act E change: -0.302D-04 -0.110D-04
Maxdispl :   0.0384   ||displ|| :   0.0747   Lambda : -0.261D-04
Largest |displ|/coords:  0.0384 (   1)  0.0297 (  18)  0.0269 (   2)
................................................................................
.............................. CYCLE   41 ......................................
................................................................................
   1    -50.7511718 -0.507512E+02  0.577E-02    9.26       0.0  T
   2    -50.7511723 -0.494797E-06  0.435E-02    9.26       1.0  T
   3    -50.7511728 -0.543148E-06  0.442E-03    9.26       4.4  T
   4    -50.7511729 -0.437272E-07  0.198E-03    9.26       9.9  T
   5    -50.7511729 -0.357591E-08  0.487E-04    9.26      40.3  T
   6    -50.7511729 -0.261963E-09  0.320E-04    9.26      61.4  T
speedup  1.03
cpu  time for SCC    0.01 s
wall time for SCC    0.01 s
speedup  1.03
cpu  time for grad    0.01 s
wall time for grad    0.01 s
 E :    -50.46792433  G :  0.002505    pred/act E change: -0.722D-05 -0.155D-04
Maxdispl :   0.0225   ||displ|| :   0.0475   Lambda : -0.144D-04
Largest |displ|/coords:  0.0225 (   1)  0.0175 (   2)  0.0170 (  18)
................................................................................
.............................. CYCLE   42 ......................................
................................................................................
   1    -50.7514339 -0.507514E+02  0.347E-02    9.27       0.0  T
   2    -50.7514342 -0.292181E-06  0.260E-02    9.27       1.0  T
   3    -50.7514345 -0.277220E-06  0.383E-03    9.27       5.1  T
   4    -50.7514345 -0.290141E-07  0.125E-03    9.27      15.7  T
   5    -50.7514345 -0.195857E-08  0.367E-04    9.27      53.4  T
   6    -50.7514345 -0.202554E-09  0.228E-04    9.27      86.1  T
speedup  0.86
cpu  time for SCC    0.00 s
wall time for SCC    0.01 s
speedup  0.95
cpu  time for grad    0.01 s
wall time for grad    0.01 s
 E :    -50.46792982  G :  0.001840    pred/act E change: -0.131D-04 -0.549D-05
Maxdispl :   0.0155   ||displ|| :   0.0265   Lambda : -0.875D-05
Largest |displ|/coords:  0.0155 (   2)  0.0100 (   4)  0.0075 (   1)
................................................................................
.............................. CYCLE   43 ......................................
................................................................................
   1    -50.7515532 -0.507516E+02  0.149E-02    9.27       0.0  T
   2    -50.7515533 -0.740879E-07  0.109E-02    9.27       1.8  T
   3    -50.7515533 -0.555881E-07  0.194E-03    9.27      10.1  T
   4    -50.7515533 -0.756505E-08  0.691E-04    9.27      28.4  T
   5    -50.7515533 -0.617760E-09  0.164E-04    9.27     119.3  T
speedup  1.02
cpu  time for SCC    0.01 s
wall time for SCC    0.00 s
speedup  1.01
cpu  time for grad    0.01 s
wall time for grad    0.01 s
 E :    -50.46793498  G :  0.001251    pred/act E change: -0.721D-05 -0.517D-05
Maxdispl :   0.0109   ||displ|| :   0.0214   Lambda : -0.490D-05
Largest |displ|/coords:  0.0109 (   3)  0.0095 (   2)  0.0091 (   6)

generating ANC from model Hessian ...
 Shifting diagonal of input Hessian by   4.481420772194511E-003
 Lowest  eigenvalues of input Hessian
   -0.000000   -0.000000   -0.000000    0.000000    0.000000    0.000000
    0.005000    0.005660    0.005820    0.006867    0.007158    0.007533
    0.008228    0.009103    0.009512    0.010361    0.010812    0.011633
 Highest eigenvalues
    1.387182    1.391029    1.449659    2.787678    3.262636    3.656018
 
cpu  time for ANC gen    0.02 s
wall time for ANC gen    0.03 s
................................................................................
.............................. CYCLE   44 ......................................
................................................................................
   1    -50.7512287 -0.507512E+02  0.125E-02    9.27       0.0  T
   2    -50.7512287 -0.424639E-07  0.936E-03    9.27       2.1  T
   3    -50.7512287 -0.274464E-07  0.137E-03    9.27      14.3  T
   4    -50.7512287 -0.627196E-08  0.564E-04    9.27      34.7  T
   5    -50.7512287 -0.365205E-09  0.139E-04    9.27     141.6  T
speedup  0.83
cpu  time for SCC    0.00 s
wall time for SCC    0.00 s
speedup  0.95
cpu  time for grad    0.01 s
wall time for grad    0.01 s
 E :    -50.46793858  G :  0.001215    pred/act E change:  0.000D+00 -0.360D-05
Maxdispl :   0.0148   ||displ|| :   0.0247   Lambda : -0.878D-05
Largest |displ|/coords:  0.0148 (   6)  0.0087 (   1)  0.0079 (   8)
................................................................................
.............................. CYCLE   45 ......................................
................................................................................
   1    -50.7512597 -0.507513E+02  0.202E-02    9.27       0.0  T
   2    -50.7512598 -0.560212E-07  0.153E-02    9.27       1.3  T
   3    -50.7512598 -0.637868E-07  0.123E-03    9.27      15.9  T
   4    -50.7512598 -0.432497E-08  0.511E-04    9.27      38.4  T
   5    -50.7512598 -0.334246E-09  0.161E-04    9.27     121.5  T
speedup  1.02
cpu  time for SCC    0.01 s
wall time for SCC    0.00 s
speedup  1.01
cpu  time for grad    0.01 s
wall time for grad    0.01 s
 E :    -50.46794378  G :  0.000661    pred/act E change:  0.000D+00 -0.520D-05
Maxdispl :   0.0209   ||displ|| :   0.0364   Lambda : -0.866D-05
Largest |displ|/coords:  0.0209 (   8)  0.0145 (  11)  0.0107 (  14)
................................................................................
.............................. CYCLE   46 ......................................
................................................................................
   1    -50.7512327 -0.507512E+02  0.286E-02    9.26       0.0  T
   2    -50.7512328 -0.934279E-07  0.216E-02    9.26       1.0  T
   3    -50.7512329 -0.110518E-06  0.162E-03    9.26      12.1  T
   4    -50.7512329 -0.726494E-08  0.770E-04    9.26      25.5  T
   5    -50.7512329 -0.689056E-09  0.224E-04    9.26      87.4  T
speedup  1.02
cpu  time for SCC    0.00 s
wall time for SCC    0.00 s
speedup  1.02
cpu  time for grad    0.01 s
wall time for grad    0.01 s
 E :    -50.46794827  G :  0.000817    pred/act E change: -0.439D-05 -0.449D-05
Maxdispl :   0.0099   ||displ|| :   0.0253   Lambda : -0.361D-05
Largest |displ|/coords:  0.0099 (   2)  0.0099 (   1)  0.0098 (   8)
................................................................................
.............................. CYCLE   47 ......................................
................................................................................
   1    -50.7511657 -0.507512E+02  0.165E-02    9.26       0.0  T
   2    -50.7511657 -0.416527E-07  0.125E-02    9.26       1.6  T
   3    -50.7511658 -0.467285E-07  0.109E-03    9.26      17.9  T
   4    -50.7511658 -0.351866E-08  0.476E-04    9.26      41.2  T
   5    -50.7511658 -0.222322E-09  0.134E-04    9.26     146.7  T
speedup  1.02
cpu  time for SCC    0.00 s
wall time for SCC    0.00 s
speedup  0.95
cpu  time for grad    0.01 s
wall time for grad    0.01 s
 E :    -50.46795047  G :  0.000740    pred/act E change: -0.433D-05 -0.220D-05
Maxdispl :   0.0207   ||displ|| :   0.0404   Lambda : -0.451D-05
Largest |displ|/coords:  0.0207 (   2)  0.0194 (   8)  0.0155 (   6)
................................................................................
.............................. CYCLE   48 ......................................
................................................................................
   1    -50.7510500 -0.507511E+02  0.258E-02    9.26       0.0  T
   2    -50.7510501 -0.814206E-07  0.194E-02    9.26       1.0  T
   3    -50.7510502 -0.919157E-07  0.164E-03    9.26      11.9  T
   4    -50.7510502 -0.773018E-08  0.640E-04    9.26      30.7  T
   5    -50.7510502 -0.575106E-09  0.253E-04    9.26      77.5  T
speedup  1.04
cpu  time for SCC    0.00 s
wall time for SCC    0.00 s
speedup  1.03
cpu  time for grad    0.01 s
wall time for grad    0.01 s
 E :    -50.46795278  G :  0.000707    pred/act E change: -0.180D-05 -0.232D-05
Maxdispl :   0.0154   ||displ|| :   0.0268   Lambda : -0.279D-05
Largest |displ|/coords:  0.0154 (   2)  0.0096 (  14)  0.0076 (   1)
................................................................................
.............................. CYCLE   49 ......................................
................................................................................
   1    -50.7510338 -0.507510E+02  0.149E-02    9.26       0.0  T
   2    -50.7510339 -0.544197E-07  0.113E-02    9.26       1.7  T
   3    -50.7510339 -0.555596E-07  0.129E-03    9.26      15.2  T
   4    -50.7510339 -0.642882E-08  0.531E-04    9.26      36.9  T
   5    -50.7510339 -0.351982E-09  0.169E-04    9.26     116.3  T
speedup  1.00
cpu  time for SCC    0.00 s
wall time for SCC    0.01 s
speedup  1.01
cpu  time for grad    0.01 s
wall time for grad    0.01 s
 E :    -50.46795427  G :  0.000689    pred/act E change: -0.226D-05 -0.149D-05
Maxdispl :   0.0093   ||displ|| :   0.0144   Lambda : -0.144D-05
Largest |displ|/coords:  0.0093 (   2)  0.0035 (   7)  0.0035 (  11)
................................................................................
.............................. CYCLE   50 ......................................
................................................................................
   1    -50.7511082 -0.507511E+02  0.914E-03    9.26       0.0  T
   2    -50.7511082 -0.135180E-07  0.690E-03    9.26       2.8  T
   3    -50.7511083 -0.167414E-07  0.639E-04    9.26      30.7  T
   4    -50.7511083 -0.902020E-09  0.195E-04    9.26     100.7  T
speedup  1.00
cpu  time for SCC    0.00 s
wall time for SCC    0.00 s
speedup  0.94
cpu  time for grad    0.01 s
wall time for grad    0.01 s
 E :    -50.46795532  G :  0.000487    pred/act E change: -0.139D-05 -0.105D-05
Maxdispl :   0.0146   ||displ|| :   0.0250   Lambda : -0.185D-05
Largest |displ|/coords:  0.0146 (   2)  0.0079 (  14)  0.0070 (  15)
................................................................................
.............................. CYCLE   51 ......................................
................................................................................
   1    -50.7512030 -0.507512E+02  0.172E-02    9.26       0.0  T
   2    -50.7512031 -0.430347E-07  0.130E-02    9.26       1.5  T
   3    -50.7512031 -0.616914E-07  0.113E-03    9.26      17.4  T
   4    -50.7512031 -0.154241E-08  0.345E-04    9.26      56.9  T
   5    -50.7512031 -0.222187E-09  0.158E-04    9.26     124.1  T
speedup  1.04
cpu  time for SCC    0.00 s
wall time for SCC    0.00 s
speedup  1.02
cpu  time for grad    0.01 s
wall time for grad    0.01 s
 E :    -50.46795660  G :  0.000448    pred/act E change: -0.720D-06 -0.128D-05
Maxdispl :   0.0155   ||displ|| :   0.0277   Lambda : -0.135D-05
Largest |displ|/coords:  0.0155 (   2)  0.0094 (  14)  0.0092 (  15)
................................................................................
.............................. CYCLE   52 ......................................
................................................................................
   1    -50.7512171 -0.507512E+02  0.201E-02    9.26       0.0  T
   2    -50.7512171 -0.607950E-07  0.152E-02    9.26       1.3  T
   3    -50.7512172 -0.837451E-07  0.131E-03    9.26      15.0  T
   4    -50.7512172 -0.291993E-08  0.571E-04    9.26      34.4  T
   5    -50.7512172 -0.425224E-09  0.181E-04    9.26     108.6  T
speedup  1.02
cpu  time for SCC    0.00 s
wall time for SCC    0.00 s
speedup  1.02
cpu  time for grad    0.01 s
wall time for grad    0.01 s
 E :    -50.46795761  G :  0.000472    pred/act E change: -0.924D-06 -0.100D-05
Maxdispl :   0.0145   ||displ|| :   0.0316   Lambda : -0.142D-05
Largest |displ|/coords:  0.0145 (   2)  0.0118 (  15)  0.0111 (  14)
................................................................................
.............................. CYCLE   53 ......................................
................................................................................
   1    -50.7512191 -0.507512E+02  0.235E-02    9.27       0.0  T
   2    -50.7512192 -0.898125E-07  0.178E-02    9.27       1.1  T
   3    -50.7512193 -0.117579E-06  0.160E-03    9.27      12.3  T
   4    -50.7512194 -0.576375E-08  0.754E-04    9.27      26.0  T
   5    -50.7512194 -0.674113E-09  0.225E-04    9.27      87.2  T
speedup  1.04
cpu  time for SCC    0.00 s
wall time for SCC    0.00 s
speedup  0.95
cpu  time for grad    0.01 s
wall time for grad    0.01 s
 E :    -50.46795863  G :  0.000459    pred/act E change: -0.675D-06 -0.103D-05
Maxdispl :   0.0117   ||displ|| :   0.0294   Lambda : -0.122D-05
Largest |displ|/coords:  0.0117 (  15)  0.0104 (  14)  0.0097 (   3)
................................................................................
.............................. CYCLE   54 ......................................
................................................................................
   1    -50.7512000 -0.507512E+02  0.220E-02    9.27       0.0  T
   2    -50.7512001 -0.855751E-07  0.166E-02    9.27       1.2  T
   3    -50.7512002 -0.104909E-06  0.159E-03    9.27      12.4  T
   4    -50.7512002 -0.701515E-08  0.779E-04    9.27      25.2  T
   5    -50.7512002 -0.736087E-09  0.218E-04    9.27      89.8  T
speedup  1.02
cpu  time for SCC    0.00 s
wall time for SCC    0.00 s
speedup  1.01
cpu  time for grad    0.01 s
wall time for grad    0.01 s
 E :    -50.46795956  G :  0.000480    pred/act E change: -0.710D-06 -0.928D-06
Maxdispl :   0.0148   ||displ|| :   0.0381   Lambda : -0.159D-05
Largest |displ|/coords:  0.0148 (  15)  0.0132 (  14)  0.0127 (   3)
................................................................................
.............................. CYCLE   55 ......................................
................................................................................
   1    -50.7511565 -0.507512E+02  0.287E-02    9.27       0.0  T
   2    -50.7511566 -0.144102E-06  0.217E-02    9.27       1.0  T
   3    -50.7511568 -0.174044E-06  0.207E-03    9.27       9.5  T
   4    -50.7511568 -0.124362E-07  0.102E-03    9.27      19.1  T
   5    -50.7511568 -0.127149E-08  0.290E-04    9.27      67.6  T
   6    -50.7511568 -0.148411E-09  0.164E-04    9.27     119.9  T
speedup  1.03
cpu  time for SCC    0.01 s
wall time for SCC    0.01 s
speedup  0.95
cpu  time for grad    0.01 s
wall time for grad    0.01 s
 E :    -50.46796076  G :  0.000622    pred/act E change: -0.611D-06 -0.120D-05
Maxdispl :   0.0190   ||displ|| :   0.0491   Lambda : -0.206D-05
Largest |displ|/coords:  0.0190 (  15)  0.0169 (  27)  0.0166 (  14)
................................................................................
.............................. CYCLE   56 ......................................
................................................................................
   1    -50.7510758 -0.507511E+02  0.376E-02    9.27       0.0  T
   2    -50.7510760 -0.247962E-06  0.284E-02    9.27       1.0  T
   3    -50.7510763 -0.298522E-06  0.274E-03    9.27       7.1  T
   4    -50.7510764 -0.217008E-07  0.133E-03    9.27      14.8  T
   5    -50.7510764 -0.212011E-08  0.387E-04    9.27      50.7  T
   6    -50.7510764 -0.273737E-09  0.216E-04    9.27      90.7  T
speedup  1.03
cpu  time for SCC    0.01 s
wall time for SCC    0.01 s
speedup  1.02
cpu  time for grad    0.01 s
wall time for grad    0.01 s
 E :    -50.46796235  G :  0.000903    pred/act E change: -0.794D-06 -0.159D-05
Maxdispl :   0.0260   ||displ|| :   0.0708   Lambda : -0.334D-05
Largest |displ|/coords:  0.0260 (  15)  0.0253 (  27)  0.0236 (  13)
................................................................................
.............................. CYCLE   57 ......................................
................................................................................
   1    -50.7509401 -0.507509E+02  0.546E-02    9.27       0.0  T
   2    -50.7509406 -0.480300E-06  0.412E-02    9.27       1.0  T
   3    -50.7509412 -0.593685E-06  0.396E-03    9.27       5.0  T
   4    -50.7509413 -0.385957E-07  0.175E-03    9.27      11.2  T
   5    -50.7509413 -0.379782E-08  0.561E-04    9.27      34.9  T
   6    -50.7509413 -0.561776E-09  0.311E-04    9.27      63.0  T
speedup  1.03
cpu  time for SCC    0.01 s
wall time for SCC    0.01 s
speedup  1.03
cpu  time for grad    0.01 s
wall time for grad    0.01 s
 E :    -50.46796486  G :  0.001344    pred/act E change: -0.103D-05 -0.250D-05
Maxdispl :   0.0290   ||displ|| :   0.0801   Lambda : -0.492D-05
Largest |displ|/coords:  0.0290 (  27)  0.0279 (   2)  0.0275 (  15)
................................................................................
.............................. CYCLE   58 ......................................
................................................................................
   1    -50.7508537 -0.507509E+02  0.607E-02    9.27       0.0  T
   2    -50.7508543 -0.571893E-06  0.457E-02    9.27       1.0  T
   3    -50.7508550 -0.710888E-06  0.463E-03    9.27       4.2  T
   4    -50.7508551 -0.437115E-07  0.172E-03    9.27      11.4  T
   5    -50.7508551 -0.420295E-08  0.643E-04    9.27      30.5  T
   6    -50.7508551 -0.663938E-09  0.338E-04    9.27      58.0  T
speedup  1.03
cpu  time for SCC    0.01 s
wall time for SCC    0.01 s
speedup  0.95
cpu  time for grad    0.01 s
wall time for grad    0.01 s
 E :    -50.46796866  G :  0.001606    pred/act E change: -0.168D-05 -0.380D-05
Maxdispl :   0.0631   ||displ|| :   0.1558   Lambda : -0.930D-05
Largest |displ|/coords:  0.0631 (  27)  0.0574 (  15)  0.0523 (  14)
................................................................................
.............................. CYCLE   59 ......................................
................................................................................
   1    -50.7499143 -0.507499E+02  0.123E-01    9.28       0.0  T
   2    -50.7499167 -0.245200E-05  0.922E-02    9.28       1.0  T
   3    -50.7499198 -0.308825E-05  0.945E-03    9.28       2.1  T
   4    -50.7499200 -0.187000E-06  0.317E-03    9.28       6.2  T
   5    -50.7499200 -0.158494E-07  0.142E-03    9.28      13.8  T
   6    -50.7499200 -0.404149E-08  0.682E-04    9.28      28.8  T
   7    -50.7499200 -0.678682E-09  0.104E-04    9.28     188.6  T
speedup  1.04
cpu  time for SCC    0.01 s
wall time for SCC    0.01 s
speedup  1.03
cpu  time for grad    0.02 s
wall time for grad    0.02 s
 E :    -50.46796527  G :  0.005282    pred/act E change: -0.247D-05  0.339D-05
Maxdispl :   0.0855   ||displ|| :   0.1100   Lambda : -0.469D-04
Largest |displ|/coords:  0.0855 (   2)  0.0373 (   1)  0.0260 (   3)
................................................................................
.............................. CYCLE   60 ......................................
................................................................................
   1    -50.7509895 -0.507510E+02  0.627E-02    9.28       0.0  T
   2    -50.7509901 -0.684433E-06  0.466E-02    9.28       1.0  T
   3    -50.7509908 -0.631919E-06  0.716E-03    9.28       2.7  T
   4    -50.7509908 -0.632820E-07  0.243E-03    9.28       8.1  T
   5    -50.7509908 -0.553622E-08  0.517E-04    9.28      37.9  T
speedup  1.00
cpu  time for SCC    0.00 s
wall time for SCC    0.01 s
speedup  0.98
cpu  time for grad    0.01 s
wall time for grad    0.01 s
 E :    -50.46797891  G :  0.002354    pred/act E change: -0.476D-05 -0.136D-04
Maxdispl :   0.0215   ||displ|| :   0.0525   Lambda : -0.191D-04
Largest |displ|/coords:  0.0215 (  15)  0.0202 (  14)  0.0198 (  27)
................................................................................
.............................. CYCLE   61 ......................................
................................................................................
   1    -50.7507481 -0.507507E+02  0.411E-02    9.29       0.0  T
   2    -50.7507484 -0.298552E-06  0.310E-02    9.29       1.0  T
   3    -50.7507487 -0.379717E-06  0.308E-03    9.29       6.4  T
   4    -50.7507488 -0.219244E-07  0.126E-03    9.29      15.6  T
   5    -50.7507488 -0.186413E-08  0.454E-04    9.29      43.2  T
   6    -50.7507488 -0.381405E-09  0.241E-04    9.29      81.2  T
speedup  1.05
cpu  time for SCC    0.01 s
wall time for SCC    0.01 s
speedup  1.03
cpu  time for grad    0.01 s
wall time for grad    0.01 s
 E :    -50.46799391  G :  0.002493    pred/act E change: -0.237D-04 -0.150D-04
Maxdispl :   0.0627   ||displ|| :   0.1489   Lambda : -0.388D-04
Largest |displ|/coords:  0.0627 (  27)  0.0590 (  14)  0.0587 (  15)
................................................................................
.............................. CYCLE   62 ......................................
................................................................................
   1    -50.7499749 -0.507500E+02  0.116E-01    9.29       0.0  T
   2    -50.7499771 -0.221258E-05  0.877E-02    9.29       1.0  T
   3    -50.7499799 -0.283587E-05  0.867E-03    9.29       2.3  T
   4    -50.7499801 -0.158513E-06  0.342E-03    9.29       5.7  T
   5    -50.7499801 -0.134519E-07  0.128E-03    9.29      15.3  T
   6    -50.7499801 -0.281291E-08  0.666E-04    9.29      29.4  T
   7    -50.7499801 -0.781682E-09  0.930E-05    9.29     210.8  T
speedup  1.06
cpu  time for SCC    0.01 s
wall time for SCC    0.01 s
speedup  1.03
cpu  time for grad    0.02 s
wall time for grad    0.02 s
 E :    -50.46800593  G :  0.007482    pred/act E change: -0.955D-05 -0.120D-04
Maxdispl :   0.1892   ||displ|| :   0.2642   Lambda : -0.824D-04
Largest |displ|/coords:  0.1892 (   2)  0.0870 (  13)  0.0657 (  12)
................................................................................
.............................. CYCLE   63 ......................................
................................................................................
   1    -50.7514552 -0.507515E+02  0.171E-01    9.28       0.0  T
   2    -50.7514598 -0.463245E-05  0.128E-01    9.28       1.0  T
   3    -50.7514642 -0.442624E-05  0.153E-02    9.28       1.3  T
   4    -50.7514647 -0.464212E-06  0.480E-03    9.28       4.1  T
   5    -50.7514647 -0.264480E-07  0.149E-03    9.28      13.2  T
   6    -50.7514647 -0.212150E-08  0.802E-04    9.28      24.4  T
speedup  1.03
cpu  time for SCC    0.01 s
wall time for SCC    0.01 s
speedup  0.99
cpu  time for grad    0.01 s
wall time for grad    0.01 s
 E :    -50.46798958  G :  0.004218    pred/act E change: -0.198D-04  0.164D-04
Maxdispl :   0.1330   ||displ|| :   0.1746   Lambda : -0.855D-04
Largest |displ|/coords:  0.1330 (   2)  0.0526 (  13)  0.0417 (  21)
................................................................................
.............................. CYCLE   64 ......................................
................................................................................
   1    -50.7511620 -0.507512E+02  0.110E-01    9.29       0.0  T
   2    -50.7511641 -0.203268E-05  0.822E-02    9.29       1.0  T
   3    -50.7511659 -0.182144E-05  0.107E-02    9.29       1.8  T
   4    -50.7511661 -0.217638E-06  0.330E-03    9.29       5.9  T
   5    -50.7511661 -0.132128E-07  0.895E-04    9.29      21.9  T
   6    -50.7511661 -0.840728E-09  0.526E-04    9.29      37.3  T
speedup  1.03
cpu  time for SCC    0.01 s
wall time for SCC    0.01 s
speedup  1.06
cpu  time for grad    0.01 s
wall time for grad    0.01 s
 E :    -50.46804149  G :  0.002774    pred/act E change: -0.441D-04 -0.519D-04
Maxdispl :   0.0604   ||displ|| :   0.1446   Lambda : -0.384D-04
Largest |displ|/coords:  0.0604 (  27)  0.0552 (   2)  0.0477 (  15)
................................................................................
.............................. CYCLE   65 ......................................
................................................................................
   1    -50.7501668 -0.507502E+02  0.103E-01    9.30       0.0  T
   2    -50.7501684 -0.158499E-05  0.771E-02    9.30       1.0  T
   3    -50.7501704 -0.198465E-05  0.849E-03    9.29       2.3  T
   4    -50.7501705 -0.114412E-06  0.249E-03    9.29       7.9  T
   5    -50.7501705 -0.951385E-08  0.118E-03    9.29      16.6  T
   6    -50.7501705 -0.207466E-08  0.528E-04    9.29      37.2  T
   7    -50.7501705 -0.392390E-09  0.923E-05    9.29     212.5  T
speedup  1.04
cpu  time for SCC    0.01 s
wall time for SCC    0.01 s
speedup  1.01
cpu  time for grad    0.02 s
wall time for grad    0.02 s
 E :    -50.46806496  G :  0.006311    pred/act E change: -0.440D-04 -0.235D-04
Maxdispl :   0.0328   ||displ|| :   0.0818   Lambda : -0.400D-04
Largest |displ|/coords:  0.0328 (  27)  0.0306 (   2)  0.0305 (  14)
................................................................................
.............................. CYCLE   66 ......................................
................................................................................
   1    -50.7500964 -0.507501E+02  0.540E-02    9.30       0.0  T
   2    -50.7500968 -0.413332E-06  0.406E-02    9.30       1.0  T
[...]
................................................................................
.............................. CYCLE   78 ......................................
................................................................................
   1    -50.7517055 -0.507517E+02  0.164E-02    9.31       0.0  T
   2    -50.7517056 -0.109319E-06  0.124E-02    9.31       1.6  T
   3    -50.7517057 -0.788588E-07  0.207E-03    9.31       9.5  T
   4    -50.7517057 -0.147666E-07  0.526E-04    9.31      37.3  T
   5    -50.7517057 -0.509218E-09  0.161E-04    9.31     122.1  T
speedup  1.02
cpu  time for SCC    0.00 s
wall time for SCC    0.00 s
speedup  1.01
cpu  time for grad    0.01 s
wall time for grad    0.01 s
 E :    -50.46845849  G :  0.001209    pred/act E change: -0.690D-05 -0.642D-05
Maxdispl :   0.0276   ||displ|| :   0.0419   Lambda : -0.579D-05
Largest |displ|/coords:  0.0276 (   1)  0.0187 (   2)  0.0128 (  13)
................................................................................
.............................. CYCLE   79 ......................................
................................................................................
   1    -50.7515975 -0.507516E+02  0.223E-02    9.31       0.0  T
   2    -50.7515976 -0.100686E-06  0.167E-02    9.31       1.2  T
   3    -50.7515977 -0.104162E-06  0.230E-03    9.31       8.5  T
   4    -50.7515977 -0.956722E-08  0.580E-04    9.31      33.8  T
   5    -50.7515977 -0.613973E-09  0.194E-04    9.31     101.0  T
speedup  0.82
cpu  time for SCC    0.00 s
wall time for SCC    0.00 s
speedup  0.95
cpu  time for grad    0.01 s
wall time for grad    0.01 s
 E :    -50.46846242  G :  0.000782    pred/act E change: -0.535D-05 -0.393D-05
Maxdispl :   0.0202   ||displ|| :   0.0377   Lambda : -0.390D-05
Largest |displ|/coords:  0.0202 (   1)  0.0130 (   2)  0.0109 (   6)
................................................................................
.............................. CYCLE   80 ......................................
................................................................................
   1    -50.7515373 -0.507515E+02  0.206E-02    9.31       0.0  T
   2    -50.7515374 -0.703292E-07  0.155E-02    9.31       1.3  T
   3    -50.7515374 -0.721835E-07  0.185E-03    9.31      10.6  T
   4    -50.7515374 -0.659618E-08  0.459E-04    9.31      42.7  T
   5    -50.7515374 -0.398259E-09  0.166E-04    9.31     117.8  T
speedup  1.04
cpu  time for SCC    0.00 s
wall time for SCC    0.00 s
speedup  1.02
cpu  time for grad    0.01 s
wall time for grad    0.01 s
 E :    -50.46846482  G :  0.000706    pred/act E change: -0.290D-05 -0.240D-05
Maxdispl :   0.0092   ||displ|| :   0.0197   Lambda : -0.163D-05
Largest |displ|/coords:  0.0092 (   7)  0.0067 (   6)  0.0062 (   2)
................................................................................
.............................. CYCLE   81 ......................................
................................................................................
   1    -50.7515210 -0.507515E+02  0.118E-02    9.31       0.0  T
   2    -50.7515210 -0.243896E-07  0.886E-03    9.31       2.2  T
   3    -50.7515210 -0.260779E-07  0.104E-03    9.31      18.8  T
   4    -50.7515210 -0.229234E-08  0.298E-04    9.31      65.7  T
   5    -50.7515210 -0.136666E-09  0.100E-04    9.31     195.8  T
speedup  0.98
cpu  time for SCC    0.00 s
wall time for SCC    0.01 s
speedup  0.93
cpu  time for grad    0.01 s
wall time for grad    0.01 s
 E :    -50.46846573  G :  0.000538    pred/act E change: -0.195D-05 -0.908D-06
Maxdispl :   0.0087   ||displ|| :   0.0140   Lambda : -0.121D-05
Largest |displ|/coords:  0.0087 (   3)  0.0059 (   6)  0.0032 (  16)
................................................................................
.............................. CYCLE   82 ......................................
................................................................................
   1    -50.7515279 -0.507515E+02  0.657E-03    9.31       0.0  T
   2    -50.7515279 -0.115991E-07  0.494E-03    9.31       4.0  T
   3    -50.7515279 -0.823168E-08  0.671E-04    9.31      29.2  T
   4    -50.7515279 -0.162507E-08  0.238E-04    9.31      82.4  T
speedup  1.03
cpu  time for SCC    0.00 s
wall time for SCC    0.00 s
speedup  1.02
cpu  time for grad    0.01 s
wall time for grad    0.01 s
 E :    -50.46846650  G :  0.000266    pred/act E change: -0.815D-06 -0.769D-06
Maxdispl :   0.0064   ||displ|| :   0.0110   Lambda : -0.679D-06
Largest |displ|/coords:  0.0064 (   1)  0.0062 (   3)  0.0025 (   2)
................................................................................
.............................. CYCLE   83 ......................................
................................................................................
   1    -50.7515981 -0.507516E+02  0.580E-03    9.31       0.0  T
   2    -50.7515981 -0.478131E-08  0.434E-03    9.31       4.5  T
   3    -50.7515981 -0.461259E-08  0.523E-04    9.31      37.5  T
   4    -50.7515981 -0.376787E-09  0.144E-04    9.31     136.0  T
speedup  1.03
cpu  time for SCC    0.00 s
wall time for SCC    0.00 s
speedup  1.02
cpu  time for grad    0.01 s
wall time for grad    0.01 s
 E :    -50.46846696  G :  0.000190    pred/act E change: -0.608D-06 -0.464D-06
Maxdispl :   0.0060   ||displ|| :   0.0096   Lambda : -0.400D-06
Largest |displ|/coords:  0.0060 (   3)  0.0029 (   4)  0.0028 (   7)
................................................................................
.............................. CYCLE   84 ......................................
................................................................................
   1    -50.7516074 -0.507516E+02  0.483E-03    9.31       0.0  T
   2    -50.7516074 -0.376782E-08  0.359E-03    9.31       5.5  T
   3    -50.7516074 -0.325556E-08  0.555E-04    9.31      35.4  T
   4    -50.7516074 -0.354589E-09  0.163E-04    9.31     120.4  T
speedup  1.03
cpu  time for SCC    0.00 s
wall time for SCC    0.00 s
speedup  0.94
cpu  time for grad    0.01 s
wall time for grad    0.01 s
 E :    -50.46846723  G :  0.000249    pred/act E change: -0.339D-06 -0.274D-06
Maxdispl :   0.0038   ||displ|| :   0.0077   Lambda : -0.229D-06
Largest |displ|/coords:  0.0038 (   1)  0.0035 (   3)  0.0026 (   2)
................................................................................
.............................. CYCLE   85 ......................................
................................................................................
   1    -50.7516087 -0.507516E+02  0.436E-03    9.31       0.0  T
   2    -50.7516088 -0.302327E-08  0.324E-03    9.31       6.0  T
   3    -50.7516088 -0.186738E-08  0.488E-04    9.31      40.2  T
   4    -50.7516088 -0.432543E-09  0.147E-04    9.31     133.5  T
speedup  1.03
cpu  time for SCC    0.00 s
wall time for SCC    0.00 s
speedup  1.02
cpu  time for grad    0.01 s
wall time for grad    0.01 s
 E :    -50.46846741  G :  0.000239    pred/act E change: -0.200D-06 -0.171D-06
Maxdispl :   0.0057   ||displ|| :   0.0095   Lambda : -0.227D-06
Largest |displ|/coords:  0.0057 (   2)  0.0031 (   1)  0.0029 (   3)
................................................................................
.............................. CYCLE   86 ......................................
................................................................................
   1    -50.7515714 -0.507516E+02  0.464E-03    9.31       0.0  T
   2    -50.7515715 -0.460185E-08  0.347E-03    9.31       5.6  T
   3    -50.7515715 -0.242670E-08  0.526E-04    9.31      37.3  T
   4    -50.7515715 -0.754255E-09  0.183E-04    9.31     107.1  T
speedup  0.77
cpu  time for SCC    0.00 s
wall time for SCC    0.00 s
speedup  0.94
cpu  time for grad    0.01 s
wall time for grad    0.01 s
 E :    -50.46846756  G :  0.000148    pred/act E change: -0.115D-06 -0.156D-06
Maxdispl :   0.0038   ||displ|| :   0.0072   Lambda : -0.135D-06
Largest |displ|/coords:  0.0038 (   2)  0.0031 (   1)  0.0024 (  12)
................................................................................
.............................. CYCLE   87 ......................................
................................................................................
   1    -50.7515478 -0.507515E+02  0.379E-03    9.31       0.0  T
   2    -50.7515478 -0.295443E-08  0.285E-03    9.31       6.9  T
   3    -50.7515478 -0.159707E-08  0.367E-04    9.31      53.5  T
   4    -50.7515478 -0.515762E-09  0.138E-04    9.31     142.5  T
speedup  1.03
cpu  time for SCC    0.00 s
wall time for SCC    0.00 s
speedup  1.02
cpu  time for grad    0.01 s
wall time for grad    0.01 s
 E :    -50.46846766  G :  0.000105    pred/act E change: -0.114D-06 -0.984D-07
Maxdispl :   0.0031   ||displ|| :   0.0061   Lambda : -0.942D-07
Largest |displ|/coords:  0.0031 (   2)  0.0022 (  12)  0.0019 (   1)

   *** GEOMETRY OPTIMIZATION CONVERGED AFTER 87 ITERATIONS ***

------------------------------------------------------------------------
 total energy gain (kcal):     -0.0444
------------------------------------------------------------------------
================
 final structure:
================
$coord
        2.17855886647777       -2.47840347711369        0.97080017042679      S 
        0.37075678129457       -2.25766675397784       -1.09800090301983      O 
        1.67527856158338       -0.45751342325838        2.84674375466922      O 
        2.15441023148153       -4.94572135376908        2.10881183305761      O 
        4.85847089871445       -1.94101746518861       -0.12643694213491      O 
        4.70057516428447       -0.36667678726838       -1.11532296376058      H 
       -3.47247804006195        3.06158867364712       -0.88253274415864      O 
       -4.90105862795709        3.86123895360602       -1.65482519890326      H 
        4.35084669284769        2.49151327184881       -2.45501554282026      O 
        5.97371474776144        3.29694751822632       -2.43765392909229      H 
       -2.76054562603301       -5.51856675248646        1.35795672762554      O 
       -0.96700121843138       -5.62468390652547        1.84888359206888      H 
       -2.70716731630317       -5.55522276309439       -0.45885440895129      H 
       -0.52550017793607        1.28807826604417       -4.38843701744318      O 
        1.10913570240895        2.08957728322709       -4.47060259628711      H 
       -0.21078735710603       -0.25175537070681       -3.39346607939557      H 
       -2.39861877361516        2.42372917842539       -2.31109268019964      H 
        1.43024642164967        4.22043512694087        1.12562300679214      O 
        1.63008053973281        2.61098881393983        2.02830404111405      H 
        3.31017173674378        3.35772528229280       -1.14086220319359      H 
       -0.30921572272976        4.25205242290120        0.56585724873504      H 
       -3.17090997582056       -0.69341760328087        2.63735828979566      N 
       -1.17912713627093       -0.49203507050506        2.98269969039632      H 
       -3.60143101415293        0.58560948808828        1.20288551981878      H 
       -3.33603446218801       -2.60417302226504        2.03967491570602      H 
       -4.20237085858628       -0.35263049195263        4.21750440027196      H 
$end
 
 Bond Distances (Angstroems)
 ---------------------------
S1-O2=1.4585         S1-O3=1.4833         S1-O4=1.4379         S1-O5=1.5586         O2-S1=1.4585         O3-S1=1.4833         
O4-S1=1.4379         O5-S1=1.5586         O5-H6=0.9874         H6-O5=0.9874         O7-H8=0.9579         O7-H17=1.0042        
H8-O7=0.9579         O9-H10=0.9588        O9-H20=0.9985        H10-O9=0.9588        O11-H12=0.9856       O11-H13=0.9620       
H12-O11=0.9856       H13-O11=0.9620       O14-H15=0.9644       O14-H16=0.9843       H15-O14=0.9644       H16-O14=0.9843       
H17-O7=1.0042        O18-H19=0.9822       O18-H21=0.9671       H19-O18=0.9822       H20-O9=0.9985        H21-O18=0.9671       
N22-H23=1.0750       N22-H24=1.0422       N22-H25=1.0630       N22-H26=1.0147       H23-N22=1.0750       H24-N22=1.0422       
H25-N22=1.0630       H26-N22=1.0147       
 N  H  Rav=1.0487 sigma=0.0229  Rmin=1.0147  Rmax=1.0750     4
 O  H  Rav=0.9775 sigma=0.0155  Rmin=0.9579  Rmax=1.0042    11
 S  O  Rav=1.4846 sigma=0.0456  Rmin=1.4379  Rmax=1.5586     4
 
 selected bond angles (degree)
 --------------------
O3-S1-O2=109.08                O4-S1-O2=112.41                O4-S1-O3=111.89                O5-S1-O2=107.61                
O5-S1-O3=106.33                O5-S1-O4=109.26                H6-O5-S1=105.93                H17-O7-H8=105.90               
H20-O9-H10=106.45              
 
 selected dihedral angles (degree)
 ---------------------------------
H6-O5-S1-O2= 48.78            H6-O5-S1-O3=292.02            H6-O5-S1-O4=171.10            
 
 CMA Distance (Angstroems)
 ---------------------------
R(CMA):  2.4086

========================================================================
 FINAL SINGLEPOINT CALCULATION ON OPTIMIZED GEOMETRY
========================================================================

 Ncao       : 65
 Nao        : 64
 Nshell     : 38
 Nel        : 80
 T(el)      :   300.0
 intcut     :    25.0
 scfconv/Eh :  0.100E-05
   qconv/e  :  0.100E-03
 intneglect :  0.100E-07
 broydamp   :      0.250
 iter      E             dE          RMSdq      gap      omega  full diag
   1    -50.7515478 -0.507515E+02  0.483E-05    9.31       0.0  T
   2    -50.7515478 -0.192557E-11  0.298E-05    9.31     657.3  T
   3    -50.7515478 -0.675016E-12  0.518E-06    9.31    3786.3  T
speedup  1.03
cpu  time for SCC    0.00 s
wall time for SCC    0.00 s

   *** convergence criteria satisfied after 3 iterations ***

          eigenvalues
 #    :          28         29         30         31         32         33         34         35
 occ. :        2.000      2.000      2.000      2.000      2.000      2.000      2.000      2.000
 eps  :       -13.576    -12.928    -12.658    -12.546    -12.346    -12.206    -12.131    -11.994
 #    :          36         37         38         39         40         41         42         43
 occ. :        2.000      2.000      2.000      2.000      2.000      0.000      0.000      0.000
 eps  :       -11.964    -11.907    -11.789    -11.682    -11.449     -2.143     -0.917      0.092
 #    :          44         45         46         47         48         49         50         51
 occ. :        0.000      0.000      0.000      0.000      0.000      0.000      0.000      0.000
 eps  :         0.554      1.122      1.387      1.983      2.724      3.484      4.459      5.354


   #   Z            q   n(s)   n(p)   n(d)      C6AA      α(0)
   1  16 S      1.675  1.587  1.786  0.952    89.344    15.909
   2   8 O     -0.771  1.766  5.006  0.000    30.731     7.433
   3   8 O     -0.765  1.779  4.986  0.000    30.524     7.408
   4   8 O     -0.712  1.767  4.944  0.000    29.025     7.223
   5   8 O     -0.609  1.758  4.852  0.000    25.376     6.800
   6   1 H      0.375  0.625  0.000  0.000     0.528     1.139
   7   8 O     -0.636  1.749  4.886  0.000    26.067     6.891
   8   1 H      0.283  0.717  0.000  0.000     0.774     1.382
   9   8 O     -0.632  1.758  4.874  0.000    25.960     6.876
  10   1 H      0.291  0.709  0.000  0.000     0.749     1.359
  11   8 O     -0.596  1.739  4.856  0.000    25.084     6.760
  12   1 H      0.328  0.672  0.000  0.000     0.643     1.259
  13   1 H      0.305  0.695  0.000  0.000     0.706     1.319
  14   8 O     -0.622  1.754  4.867  0.000    25.709     6.843
  15   1 H      0.310  0.690  0.000  0.000     0.691     1.306
  16   1 H      0.334  0.666  0.000  0.000     0.628     1.244
  17   1 H      0.345  0.655  0.000  0.000     0.600     1.217
  18   8 O     -0.629  1.759  4.870  0.000    25.884     6.867
  19   1 H      0.324  0.676  0.000  0.000     0.653     1.270
  20   1 H      0.341  0.659  0.000  0.000     0.609     1.227
  21   1 H      0.314  0.686  0.000  0.000     0.680     1.295
  22   7 N     -0.354  1.276  4.078  0.000    29.103     8.012
  23   1 H      0.293  0.707  0.000  0.000     0.733     1.341
  24   1 H      0.285  0.715  0.000  0.000     0.758     1.364
  25   1 H      0.290  0.710  0.000  0.000     0.745     1.353
  26   1 H      0.230  0.770  0.000  0.000     0.963     1.538

 Mol. C6AA /au·bohr⁶  :       5455.869052
 Mol. C8AA /au·bohr⁸  :     118135.020190
 Mol. α(0) /au        :        106.634212

 
 Wiberg/Mayer (AO) data. WBOs > 0.1 written file <wbo>
 largest (>0.05) Wiberg bond orders for each atom
           total WBO             WBO to atom ...
     1  S   4.854    O    4 1.380    O    2 1.291    O    3 1.182    O    5 0.958
     2  O   1.679    S    1 1.291    O    4 0.106    O    3 0.103    O    5 0.082    H   16 0.062
     3  O   1.740    S    1 1.182    H   23 0.136    O    2 0.103    O    4 0.102    O    5 0.073    H   19 0.060    N   22 0.058
     4  O   1.759    S    1 1.380    O    2 0.106    O    3 0.102    O    5 0.068    H   12 0.059
     5  O   1.975    S    1 0.958    H    6 0.755    O    2 0.082    O    3 0.073    O    4 0.068
     6  H   0.859    O    5 0.755    O    9 0.087
     7  O   1.873    H    8 0.912    H   17 0.773    H   24 0.072
     8  H   0.920    O    7 0.912
     9  O   1.884    H   10 0.910    H   20 0.785    H    6 0.087
    10  H   0.915    O    9 0.910
    11  O   1.934    H   13 0.901    H   12 0.827    H   25 0.115    N   22 0.057
    12  H   0.892    O   11 0.827    O    4 0.059
    13  H   0.907    O   11 0.901
    14  O   1.902    H   15 0.884    H   16 0.821    H   17 0.104
    15  H   0.904    O   14 0.884
    16  H   0.888    O   14 0.821    O    2 0.062
    17  H   0.881    O    7 0.773    O   14 0.104
    18  O   1.893    H   21 0.874    H   19 0.831    H   20 0.096
    19  H   0.895    O   18 0.831    O    3 0.060
    20  H   0.883    O    9 0.785    O   18 0.096
    21  H   0.901    O   18 0.874
    22  N   3.517    H   26 0.944    H   24 0.843    H   25 0.796    H   23 0.768    O    3 0.058    O   11 0.057
    23  H   0.914    N   22 0.768    O    3 0.136
    24  H   0.919    N   22 0.843    O    7 0.072
    25  H   0.916    N   22 0.796    O   11 0.115
    26  H   0.947    N   22 0.944
 MOs/occ written to file <molden.input>
 
molecular dipole:
                 x           y           z       tot (Debye)
 q only:       -2.088       1.491       0.040
   full:       -1.570       1.563      -0.132       5.643
molecular quadrupole (traceless):
                xx          xy          yy          xz          yz          zz
 q only:       11.506       6.329     -10.471     -10.796       2.137      -1.035
  q+dip:       14.074       4.030     -11.595      -9.985       2.674      -2.480
   full:       14.666       4.072     -11.932     -10.226       2.395      -2.734

SCC energy    :     -50.7515478
rep           :       0.2827479
ES            :       0.2674161
AES           :      -0.0753079
AXC           :      -0.0089825
disp          :      -0.0204691
XB            :       0.0000000
fix           :       0.0000000
total E       :     -50.4684677
atomizationE  :       4.9987718     3136.78
(atE without considering molecular charge,
 total energy contains solvation terms)
H-L gap (eV)  :          9.3060
optimized geometry written to: xtbopt.xyz


------------------------------------------------------------------------
 * finished run on 2019/09/16 at 12:43:21.623     
------------------------------------------------------------------------
 total:
 * wall-time:     0 d,  0 h,  0 min,  3.511 sec
 *  cpu-time:     0 d,  0 h,  0 min,  3.461 sec
 * ratio c/w:     0.986 speedup
 SCF:
 * wall-time:     0 d,  0 h,  0 min,  0.529 sec
 *  cpu-time:     0 d,  0 h,  0 min,  0.525 sec
 * ratio c/w:     0.992 speedup
 ANC optimizer:
 * wall-time:     0 d,  0 h,  0 min,  2.924 sec
 *  cpu-time:     0 d,  0 h,  0 min,  2.883 sec
 * ratio c/w:     0.986 speedup

