      -----------------------------------------------------------      
     |                   =====================                   |     
     |                           x T B                           |     
     |                   =====================                   |     
     |                         S. Grimme                         |     
     |          Mulliken Center for Theoretical Chemistry        |     
     |                    University of Bonn                     |     
     |                 Version 6.0.1 (SAW181210)                 |     
      -----------------------------------------------------------      

   This program is distributed in the hope that it will be useful,
   but WITHOUT ANY WARRANTY; without even the implied warranty of
   MERCHANTABILITY or FITNESS FOR A PARTICULAR PURPOSE.
   
   FOR NON-COMMERCIAL, ACADEMIA USE ONLY.
   
   Cite this work as:
   S. Grimme, C. Bannwarth, P. Shushkov, J. Comput. Theory Chem., 2017,
   13, 1989-2009.
   C. Bannwarth, S. Ehlert and S. Grimme., ChemRxiv, 2018, preprint.
   http://doi.org/10.26434/chemrxiv.7246238.v1
   
   for sTDA-xTB:
   S. Grimme and C. Bannwarth, J. Chem. Phys., 2016, 145, 054103.
   
   in the mass-spec context:
   V. Asgeirsson, C. Bauer and S. Grimme, Chem. Sci., 2017, 8, 4879.
   
   if GBSA is used:
   P. Shushkov, F. März and S. Grimme, unpublished.
   
   for ANC optimizer:
   S. Grimme, unpublished.
   Rational Function algorithm used in ANCopt:
   F. Eckert, P. Pulay, H.-J. Werner, J. Comput. Chem., 1997, 18, 1473.
   
   with help from (in alphabetical order)
   C. Bannwarth, F. Bohle, G. Brandenburg, E. Caldeweyher, M. Checinski,
   S. Dohm, S. Ehlert, S. Ehrlich, F. März, H. Neugebauer, J. Pisarek,
   P. Pracht, P. Shushkov, and S. Spicher.
   
 * started run on 2019/09/16 at 11:23:10.064     
========================================================================
 # omp threads = 1
========================================================================
number of atoms            : 26
number of electrons        : 80
charge                     : 0
spin                       : .0
first test random number   : .4391

########################################################################
# WARNING! Please study the warnings concerning your input carefully
#  - XTBPATH is not set, using XTBHOME instead
#  - the use of '-opt' is discouraged, please use '--opt' next time
#  - the use of '-chrg' is discouraged, please use '--chrg' next time
#  - the use of '-uhf' is discouraged, please use '--uhf' next time
########################################################################

           ------------------------------------------------- 
          |                 G F N 2 - x T B                 |
          | Geometry, Frequencies, Noncovalent interactions |
          |            JCTC 2018 parametrisation            |
           ------------------------------------------------- 
      method parameters     
 k(s)        :  1.8500
 k(p)        :  2.2300
 k(d)        :  2.2300
 k(f)        :  2.0000
 kEN (H0ij)  : -2.0000
 D4 a1       :  0.5200
 D4 a2       :  5.0000
 D4 s6       :  1.0000
 D4 s8       :  2.7000
 D4 s9       :  5.0000
 alphaj      :  2.0000


            Z     q(EN)     CN     RAES       Cart. coordinates
     1  S   6.0    0.58    4.28    4.20     3.59023    -1.08769     3.31315
     2  O   6.0   -0.34    1.20    1.80     1.25017     0.07174     2.44063
     3  O   6.0   -0.27    1.09    1.80     4.74958    -0.47279     5.70385
     4  O   6.0   -0.23    2.04    1.83     3.23178    -4.14596     3.06045
     5  O   6.0   -0.23    2.05    1.83     5.78573    -0.76506     1.22906
     6  H   1.0    0.16    1.19    1.46     5.07248    -1.01364    -0.44898
     7  H   1.0    0.16    1.20    1.46     1.45430    -4.51220     3.36508
     8  O   6.0   -0.29    2.04    1.83    -1.59275    -4.88869     4.15539
     9  H   1.0    0.16    1.05    1.44    -2.68298    -3.76371     3.22779
    10  H   1.0    0.15    0.97    1.43    -2.71063    -6.00165     5.06439
    11  O   6.0   -0.29    2.04    1.83     3.29692    -1.33457    -3.06321
    12  H   1.0    0.16    1.04    1.43     2.51014     0.15559    -3.75242
    13  H   1.0    0.15    0.97    1.43     2.98761    -2.65025    -4.28301
    14  O   6.0   -0.31    2.04    1.83    -0.45755     4.31842    -0.03023
    15  H   1.0    0.15    0.97    1.43    -0.70867     5.61031     1.22778
    16  H   1.0    0.17    1.02    1.43     0.09558     2.84938     0.89202
    17  O   6.0   -0.30    2.02    1.83     1.07695     2.89899    -4.63462
    18  H   1.0    0.14    0.97    1.43     1.34111     4.37339    -5.66951
    19  H   1.0    0.16    1.04    1.43     0.47274     3.53305    -3.03852
    20  O   6.0   -0.29    2.03    1.83    -3.74445    -1.28283     1.48193
    21  H   1.0    0.16    1.02    1.43    -2.08875    -0.55921     1.70478
    22  H   1.0    0.15    1.04    1.43    -4.46444    -0.40789     0.05690
    23  N   5.0   -0.22    3.00    1.92    -4.76140     1.84640    -2.65654
    24  H   1.0    0.11    1.01    1.43    -3.50837     3.07139    -1.85630
    25  H   1.0    0.10    0.99    1.43    -6.26436     2.91941    -3.20501
    26  H   1.0    0.10    0.99    1.43    -3.93100     1.23806    -4.28486

  Z AO/shell   Hii/eV     exponent
  1     Wed Apr 25 08:07:45 CEST 2018   EN: 2.200 GM2: 0.406  GM3: 0.0800  RAES: 1.40
     1s    -10.707211    1.230000
  7     Wed Apr 25 08:07:45 CEST 2018   EN: 3.040 GM2: 0.461  GM3:-0.0640  RAES: 1.90
     2s    -16.686243    2.339881
     2p    -12.523956    2.014332
  8     Wed Apr 25 08:07:45 CEST 2018   EN: 3.440 GM2: 0.452  GM3:-0.0517  RAES: 1.80
     2s    -20.229985    2.439742
     2p    -15.503117    2.137023
 16     Tue Apr 24 11:44:34 CEST 2018   EN: 2.580 GM2: 0.340  GM3:-0.0502  RAES: 3.10
     3s    -20.029654    1.981333
     3p    -11.377694    2.025643
     3d     -0.420282    1.702555
 no old-style atom pair restraining (fixing) potential

molecular fragmentation (1/2 indicates fragments):
11111112222222222222222222
# atoms in fragment 1/2:     7    19
 fragment masses (1/2) :       98.07      107.11
CMA distance (Bohr)    :   6.330
constraining FC (au)   :  0.0500
           ------------------------------------------------- 
          |        Self-Consistent Charge Iterations        |
           ------------------------------------------------- 

 Ncao       : 65
 Nao        : 64
 Nshell     : 38
 Nel        : 80
 T(el)      :   300.0
 intcut     :    25.0
 scfconv/Eh :  0.100E-05
   qconv/e  :  0.100E-03
 intneglect :  0.100E-07
 broydamp   :      0.250
 iter      E             dE          RMSdq      gap      omega  full diag
   1    -50.6229662 -0.506230E+02  0.700E+00    7.95       0.0  T
   2    -50.6747414 -0.517751E-01  0.490E+00    7.22       1.0  T
   3    -50.7124456 -0.377042E-01  0.121E+00    5.97       1.0  T
   4    -50.7167206 -0.427498E-02  0.610E-01    6.17       1.0  T
   5    -50.7178261 -0.110553E-02  0.297E-01    6.15       1.0  T
   6    -50.7182471 -0.421028E-03  0.163E-01    6.13       1.0  T
   7    -50.7184056 -0.158444E-03  0.579E-02    6.09       1.0  T
   8    -50.7184276 -0.220618E-04  0.247E-02    6.11       1.0  T
   9    -50.7184308 -0.313833E-05  0.132E-02    6.12       1.5  T
  10    -50.7184318 -0.100832E-05  0.336E-03    6.12       5.8  T
  11    -50.7184318 -0.357733E-07  0.115E-03    6.12      17.1  T
  12    -50.7184318 -0.506981E-08  0.434E-04    6.12      45.1  T
  13    -50.7184318 -0.100308E-08  0.191E-04    6.12     102.9  T
speedup  0.88
cpu  time for SCC    0.01 s
wall time for SCC    0.01 s

   *** convergence criteria satisfied after 13 iterations ***

          eigenvalues
 #    :          28         29         30         31         32         33         34         35
 occ. :        2.000      2.000      2.000      2.000      2.000      2.000      2.000      2.000
 eps  :       -13.325    -13.192    -12.823    -12.764    -12.676    -12.617    -12.462    -12.384
 #    :          36         37         38         39         40         41         42         43
 occ. :        2.000      2.000      2.000      2.000      2.000      0.000      0.000      0.000
 eps  :       -12.241    -12.188    -11.983    -11.400    -10.875     -4.758     -2.024     -0.839
 #    :          44         45         46         47         48         49         50         51
 occ. :        0.000      0.000      0.000      0.000      0.000      0.000      0.000      0.000
 eps  :        -0.127      0.623      1.084      2.117      2.267      3.303      4.403      4.616


   #   Z            q   n(s)   n(p)   n(d)      C6AA      α(0)
   1  16 S      1.644  1.629  1.802  0.925    90.061    15.972
   2   8 O     -0.688  1.764  4.924  0.000    28.380     7.143
   3   8 O     -0.612  1.769  4.843  0.000    26.405     6.889
   4   8 O     -0.589  1.764  4.825  0.000    24.894     6.736
   5   8 O     -0.573  1.754  4.819  0.000    24.528     6.686
   6   1 H      0.389  0.611  0.000  0.000     0.503     1.113
   7   1 H      0.386  0.614  0.000  0.000     0.509     1.119
   8   8 O     -0.625  1.744  4.881  0.000    25.783     6.853
   9   1 H      0.342  0.658  0.000  0.000     0.606     1.223
  10   1 H      0.291  0.709  0.000  0.000     0.749     1.360
  11   8 O     -0.622  1.743  4.879  0.000    25.725     6.846
  12   1 H      0.338  0.662  0.000  0.000     0.616     1.233
  13   1 H      0.293  0.707  0.000  0.000     0.742     1.353
  14   8 O     -0.606  1.735  4.872  0.000    25.333     6.793
  15   1 H      0.293  0.707  0.000  0.000     0.742     1.353
  16   1 H      0.332  0.668  0.000  0.000     0.632     1.248
  17   8 O     -0.611  1.742  4.870  0.000    25.460     6.810
  18   1 H      0.284  0.716  0.000  0.000     0.772     1.380
  19   1 H      0.333  0.667  0.000  0.000     0.630     1.247
  20   8 O     -0.636  1.742  4.894  0.000    26.060     6.890
  21   1 H      0.307  0.693  0.000  0.000     0.699     1.313
  22   1 H      0.313  0.687  0.000  0.000     0.682     1.297
  23   7 N     -0.455  1.401  4.054  0.000    31.974     8.398
  24   1 H      0.179  0.821  0.000  0.000     1.218     1.729
  25   1 H      0.140  0.860  0.000  0.000     1.474     1.902
  26   1 H      0.153  0.847  0.000  0.000     1.382     1.841

 Mol. C6AA /au·bohr⁶  :       5437.817696
 Mol. C8AA /au·bohr⁸  :     117378.114993
 Mol. α(0) /au        :        106.728309

 
 Wiberg/Mayer (AO) data. WBOs > 0.1 written file <wbo>
 largest (>0.05) Wiberg bond orders for each atom
           total WBO             WBO to atom ...
     1  S   4.771    O    3 1.491    O    2 1.349    O    5 0.971    O    4 0.927
     2  O   1.757    S    1 1.349    O    3 0.137    O    4 0.094    O    5 0.093
     3  O   1.828    S    1 1.491    O    2 0.137    O    4 0.100    O    5 0.085
     4  O   1.979    S    1 0.927    H    7 0.771    O    3 0.100    O    2 0.094    O    5 0.057
     5  O   2.010    S    1 0.971    H    6 0.768    O    2 0.093    O    3 0.085    O    4 0.057
     6  H   0.849    O    5 0.768    O   11 0.062
     7  H   0.851    O    4 0.771    O    8 0.061
     8  O   1.843    H   10 0.905    H    9 0.830    H    7 0.061
     9  H   0.883    O    8 0.830
    10  H   0.915    O    8 0.905
    11  O   1.848    H   13 0.906    H   12 0.832    H    6 0.062
    12  H   0.886    O   11 0.832
    13  H   0.914    O   11 0.906
    14  O   1.866    H   15 0.902    H   16 0.849
    15  H   0.914    O   14 0.902
    16  H   0.890    O   14 0.849
    17  O   1.849    H   18 0.910    H   19 0.842
    18  H   0.920    O   17 0.910
    19  H   0.889    O   17 0.842
    20  O   1.829    H   21 0.874    H   22 0.846
    21  H   0.905    O   20 0.874
    22  H   0.902    O   20 0.846
    23  N   2.976    H   25 0.976    H   26 0.973    H   24 0.943
    24  H   0.968    N   23 0.943
    25  H   0.980    N   23 0.976
    26  H   0.977    N   23 0.973
 MOs/occ written to file <molden.input>
 
molecular dipole:
                 x           y           z       tot (Debye)
 q only:       -1.205       0.762      -1.479
   full:       -1.499       1.331      -1.926       7.065
molecular quadrupole (traceless):
                xx          xy          yy          xz          yz          zz
 q only:      -11.024       2.619      12.354     -12.256      -1.852      -1.330
  q+dip:      -16.234       2.053      15.923     -13.374      -3.327       0.311
   full:      -16.492       2.085      16.202     -13.451      -3.518       0.290

SCC energy    :     -50.7184318
rep           :       0.2982956
ES            :       0.2309962
AES           :      -0.0366024
AXC           :      -0.0039703
disp          :      -0.0163083
XB            :       0.0000000
fix           :       0.0000000
total E       :     -50.4197877
atomizationE  :       4.9500919     3106.23
(atE without considering molecular charge,
 total energy contains solvation terms)
H-L gap (eV)  :          6.1165
           ------------------------------------------------- 
          |                 ===============                 |
          |                   A N C O P T                   |
          |                 ===============                 |
          |          Approximate Normal Coordinate          |
          |           Rational Function Optimizer           |
           ------------------------------------------------- 
dumping coords to <xtbopt.coord> and <xtbopt.log>
 optlevel               2
 Maxcycle             520
 Maxmicro              25
 Econv         1.000000000000000E-007
 Gconv         2.000000000000000E-004
 Maxdispl       1.00000000000000     
 Hlow          5.000000000000000E-003
 S6             20.0000000000000     
 Nvar               72

generating ANC from model Hessian ...
 Shifting diagonal of input Hessian by   5.152570391879953E-003
 Lowest  eigenvalues of input Hessian
    0.005000    0.005093   -0.000000   -0.000000   -0.000000   -0.000000
    0.000000    0.000000    0.005226    0.005571    0.005662    0.005746
    0.005891    0.006066    0.006445    0.007044    0.007469    0.007662
 Highest eigenvalues
    1.423916    1.429498    1.434030    1.956619    2.772723    3.593422
 
cpu  time for ANC gen    0.01 s
wall time for ANC gen    0.01 s
................................................................................
.............................. CYCLE    1 ......................................
................................................................................
   1    -50.7184318 -0.507184E+02  0.601E-05    6.12       0.0  T
   2    -50.7184318 -0.644462E-11  0.473E-05    6.12     414.3  T
   3    -50.7184318 -0.699174E-11  0.231E-05    6.12     849.9  T
speedup  1.07
cpu  time for SCC    0.00 s
wall time for SCC    0.00 s
speedup  1.02
cpu  time for grad    0.01 s
wall time for grad    0.01 s
 E :    -50.41978766  G :  0.089995    pred/act E change:  0.000D+00  0.305D-07
Maxdispl :   0.1217   ||displ|| :   0.2636   Lambda : -0.871D-02
Largest |displ|/coords:  0.1217 (  24)  0.0948 (  35)  0.0696 (  27)
................................................................................
.............................. CYCLE    2 ......................................
................................................................................
   1    -50.7237273 -0.507237E+02  0.367E-01    6.61       0.0  T
   2    -50.7237929 -0.656165E-04  0.276E-01    6.59       1.0  T
   3    -50.7238284 -0.354910E-04  0.468E-02    6.54       1.0  T
   4    -50.7238384 -0.997025E-05  0.254E-02    6.55       1.0  T
   5    -50.7238390 -0.609613E-06  0.367E-03    6.55       5.3  T
   6    -50.7238390 -0.212526E-07  0.236E-03    6.55       8.3  T
speedup  1.13
cpu  time for SCC    0.01 s
wall time for SCC    0.01 s
speedup  0.95
cpu  time for grad    0.01 s
wall time for grad    0.01 s
 E :    -50.42641143  G :  0.060849    pred/act E change:  0.000D+00 -0.662D-02
Maxdispl :   0.0859   ||displ|| :   0.2442   Lambda : -0.479D-02
Largest |displ|/coords:  0.0859 (   6)  0.0818 (  22)  0.0711 (   9)
................................................................................
.............................. CYCLE    3 ......................................
................................................................................
   1    -50.7334929 -0.507335E+02  0.273E-01    7.21       0.0  T
   2    -50.7335381 -0.451751E-04  0.204E-01    7.21       1.0  T
   3    -50.7335540 -0.159106E-04  0.411E-02    7.22       1.0  T
   4    -50.7335607 -0.672724E-05  0.187E-02    7.22       1.0  T
   5    -50.7335610 -0.249521E-06  0.228E-03    7.22       8.6  T
   6    -50.7335610 -0.652993E-08  0.152E-03    7.22      12.9  T
speedup  1.13
cpu  time for SCC    0.01 s
wall time for SCC    0.01 s
speedup  1.03
cpu  time for grad    0.01 s
wall time for grad    0.01 s
 E :    -50.42997361  G :  0.040153    pred/act E change: -0.466D-02 -0.356D-02
Maxdispl :   0.1537   ||displ|| :   0.3681   Lambda : -0.475D-02
Largest |displ|/coords:  0.1537 (  24)  0.1140 (   8)  0.1098 (  14)
................................................................................
.............................. CYCLE    4 ......................................
................................................................................
   1    -50.7390833 -0.507391E+02  0.430E-01    8.05       0.0  T
   2    -50.7392035 -0.120236E-03  0.320E-01    8.04       1.0  T
   3    -50.7392516 -0.480745E-04  0.684E-02    8.03       1.0  T
   4    -50.7392681 -0.164947E-04  0.297E-02    8.04       1.0  T
   5    -50.7392687 -0.675077E-06  0.390E-03    8.03       5.0  T
   6    -50.7392688 -0.215357E-07  0.257E-03    8.03       7.6  T
speedup  1.11
cpu  time for SCC    0.01 s
wall time for SCC    0.01 s
speedup  1.02
cpu  time for grad    0.01 s
wall time for grad    0.01 s
 E :    -50.43187507  G :  0.028938    pred/act E change: -0.254D-02 -0.190D-02
Maxdispl :   0.1304   ||displ|| :   0.2881   Lambda : -0.207D-02
Largest |displ|/coords:  0.1304 (   8)  0.0975 (  13)  0.0916 (  15)
................................................................................
.............................. CYCLE    5 ......................................
................................................................................
   1    -50.7402877 -0.507403E+02  0.365E-01    8.10       0.0  T
   2    -50.7403380 -0.503498E-04  0.276E-01    8.10       1.0  T
   3    -50.7403713 -0.332665E-04  0.433E-02    8.12       1.0  T
   4    -50.7403785 -0.728230E-05  0.133E-02    8.12       1.5  T
   5    -50.7403789 -0.309867E-06  0.341E-03    8.12       5.8  T
   6    -50.7403789 -0.203978E-08  0.186E-03    8.12      10.6  T
speedup  0.94
cpu  time for SCC    0.00 s
wall time for SCC    0.01 s
speedup  1.02
cpu  time for grad    0.01 s
wall time for grad    0.01 s
 E :    -50.43263002  G :  0.027902    pred/act E change: -0.270D-02 -0.755D-03
Maxdispl :   0.1187   ||displ|| :   0.2644   Lambda : -0.153D-02
Largest |displ|/coords:  0.1187 (   6)  0.0944 (   2)  0.0820 (   8)
................................................................................
.............................. CYCLE    6 ......................................
................................................................................
   1    -50.7368682 -0.507369E+02  0.219E-01    7.84       0.0  T
   2    -50.7368812 -0.130290E-04  0.164E-01    7.85       1.0  T
   3    -50.7368905 -0.932952E-05  0.225E-02    7.88       1.0  T
   4    -50.7368922 -0.170325E-05  0.853E-03    7.88       2.3  T
   5    -50.7368923 -0.886519E-07  0.235E-03    7.88       8.3  T
   6    -50.7368923 -0.616384E-08  0.140E-03    7.88      14.0  T
speedup  1.07
cpu  time for SCC    0.01 s
wall time for SCC    0.01 s
speedup  1.00
cpu  time for grad    0.01 s
wall time for grad    0.01 s
 E :    -50.43352626  G :  0.015692    pred/act E change: -0.112D-02 -0.896D-03
Maxdispl :   0.2159   ||displ|| :   0.3794   Lambda : -0.141D-02
Largest |displ|/coords:  0.2159 (   8)  0.1155 (   3)  0.1074 (  14)
................................................................................
.............................. CYCLE    7 ......................................
................................................................................
   1    -50.7300594 -0.507301E+02  0.326E-01    7.65       0.0  T
   2    -50.7300838 -0.243330E-04  0.245E-01    7.66       1.0  T
   3    -50.7301056 -0.218772E-04  0.328E-02    7.68       1.0  T
   4    -50.7301081 -0.243575E-05  0.618E-03    7.67       3.2  T
   5    -50.7301081 -0.377252E-07  0.327E-03    7.67       6.0  T
   6    -50.7301081 -0.195629E-07  0.109E-03    7.67      17.9  T
   7    -50.7301081 -0.247530E-08  0.383E-04    7.67      51.2  T
speedup  1.13
cpu  time for SCC    0.01 s
wall time for SCC    0.01 s
speedup  1.03
cpu  time for grad    0.01 s
wall time for grad    0.01 s
 E :    -50.43439941  G :  0.029320    pred/act E change: -0.816D-03 -0.873D-03
Maxdispl :   0.2427   ||displ|| :   0.6088   Lambda : -0.291D-02
Largest |displ|/coords:  0.2427 (   3)  0.1828 (   8)  0.1615 (  29)
................................................................................
.............................. CYCLE    8 ......................................
................................................................................
   1    -50.7309841 -0.507310E+02  0.428E-01    7.41       0.0  T
   2    -50.7310635 -0.794524E-04  0.318E-01    7.43       1.0  T
   3    -50.7311223 -0.588143E-04  0.580E-02    7.46       1.0  T
   4    -50.7311308 -0.842625E-05  0.201E-02    7.45       1.0  T
   5    -50.7311313 -0.576664E-06  0.534E-03    7.45       3.7  T
   6    -50.7311314 -0.233292E-07  0.306E-03    7.45       6.4  T
speedup  0.94
cpu  time for SCC    0.00 s
wall time for SCC    0.01 s
speedup  1.02
cpu  time for grad    0.01 s
wall time for grad    0.01 s
 E :    -50.43307333  G :  0.053918    pred/act E change: -0.805D-03  0.133D-02
Maxdispl :   0.1496   ||displ|| :   0.4540   Lambda : -0.971D-02
Largest |displ|/coords:  0.1496 (  29)  0.1397 (   5)  0.1390 (  15)
................................................................................
.............................. CYCLE    9 ......................................
................................................................................
   1    -50.7279550 -0.507280E+02  0.600E-01    8.05       0.0  T
   2    -50.7281848 -0.229827E-03  0.448E-01    8.05       1.0  T
   3    -50.7283152 -0.130371E-03  0.911E-02    8.05       1.0  T
   4    -50.7283454 -0.302427E-04  0.293E-02    8.06       1.0  T
   5    -50.7283472 -0.172571E-05  0.769E-03    8.06       2.5  T
   6    -50.7283473 -0.113466E-06  0.492E-03    8.06       4.0  T
   7    -50.7283473 -0.486685E-07  0.122E-03    8.06      16.1  T
speedup  0.98
cpu  time for SCC    0.01 s
wall time for SCC    0.01 s
speedup  1.04
cpu  time for grad    0.01 s
wall time for grad    0.01 s
 E :    -50.43321878  G :  0.061755    pred/act E change: -0.200D-02 -0.145D-03
Maxdispl :   0.1854   ||displ|| :   0.4005   Lambda : -0.963D-02
Largest |displ|/coords:  0.1854 (   6)  0.1034 (   8)  0.1012 (  16)
................................................................................
.............................. CYCLE   10 ......................................
................................................................................
   1    -50.7403515 -0.507404E+02  0.534E-01    7.66       0.0  T
   2    -50.7405757 -0.224151E-03  0.399E-01    7.66       1.0  T
   3    -50.7407118 -0.136178E-03  0.875E-02    7.66       1.0  T
   4    -50.7407384 -0.265212E-04  0.301E-02    7.65       1.0  T
   5    -50.7407405 -0.214741E-05  0.866E-03    7.65       2.3  T
   6    -50.7407406 -0.400025E-07  0.451E-03    7.65       4.3  T
   7    -50.7407406 -0.483591E-07  0.103E-03    7.65      19.0  T
speedup  0.97
cpu  time for SCC    0.01 s
wall time for SCC    0.01 s
speedup  0.96
cpu  time for grad    0.01 s
wall time for grad    0.01 s
 E :    -50.43439112  G :  0.045265    pred/act E change: -0.586D-02 -0.117D-02
Maxdispl :   0.1423   ||displ|| :   0.3007   Lambda : -0.337D-02
Largest |displ|/coords:  0.1423 (  13)  0.1244 (   7)  0.0987 (  16)
................................................................................
.............................. CYCLE   11 ......................................
................................................................................
   1    -50.7218448 -0.507218E+02  0.488E-01    7.78       0.0  T
   2    -50.7220104 -0.165618E-03  0.363E-01    7.77       1.0  T
   3    -50.7220926 -0.822142E-04  0.747E-02    7.76       1.0  T
   4    -50.7221147 -0.221003E-04  0.151E-02    7.77       1.3  T
   5    -50.7221153 -0.583195E-06  0.569E-03    7.77       3.4  T
   6    -50.7221154 -0.443302E-07  0.336E-03    7.77       5.8  T
speedup  0.94
cpu  time for SCC    0.00 s
wall time for SCC    0.01 s
speedup  1.02
cpu  time for grad    0.01 s
wall time for grad    0.01 s
 E :    -50.43303543  G :  0.068302    pred/act E change: -0.559D-02  0.136D-02
Maxdispl :   0.2030   ||displ|| :   0.5177   Lambda : -0.172D-01
Largest |displ|/coords:  0.2030 (  13)  0.1887 (   5)  0.1699 (  16)
................................................................................
.............................. CYCLE   12 ......................................
................................................................................
   1    -50.7419105 -0.507419E+02  0.855E-01    7.89       0.0  T
   2    -50.7423457 -0.435180E-03  0.644E-01    7.90       1.0  T
   3    -50.7426405 -0.294860E-03  0.124E-01    7.93       1.0  T
   4    -50.7426967 -0.561448E-04  0.263E-02    7.92       1.0  T
   5    -50.7426980 -0.127248E-05  0.129E-02    7.92       1.5  T
   6    -50.7426980 -0.852433E-07  0.574E-03    7.92       3.4  T
   7    -50.7426981 -0.801079E-07  0.120E-03    7.92      16.4  T
speedup  0.98
cpu  time for SCC    0.01 s
wall time for SCC    0.01 s
speedup  0.96
cpu  time for grad    0.01 s
wall time for grad    0.01 s
 E :    -50.43225359  G :  0.089216    pred/act E change: -0.184D-02  0.782D-03
Maxdispl :   0.1125   ||displ|| :   0.2409   Lambda : -0.759D-02
Largest |displ|/coords:  0.1125 (   2)  0.0916 (  15)  0.0690 (  17)
................................................................................
.............................. CYCLE   13 ......................................
................................................................................
   1    -50.7360284 -0.507360E+02  0.328E-01    7.87       0.0  T
   2    -50.7361076 -0.791896E-04  0.246E-01    7.87       1.0  T
   3    -50.7361574 -0.498474E-04  0.533E-02    7.85       1.0  T
   4    -50.7361662 -0.875328E-05  0.140E-02    7.85       1.4  T
   5    -50.7361666 -0.421463E-06  0.425E-03    7.85       4.6  T
   6    -50.7361666 -0.125244E-07  0.247E-03    7.85       7.9  T
speedup  0.93
cpu  time for SCC    0.00 s
wall time for SCC    0.01 s
speedup  1.01
cpu  time for grad    0.01 s
wall time for grad    0.01 s
 E :    -50.43584567  G :  0.017709    pred/act E change: -0.109D-01 -0.359D-02
Maxdispl :   0.1727   ||displ|| :   0.3320   Lambda : -0.138D-02
Largest |displ|/coords:  0.1727 (   3)  0.1624 (   8)  0.1044 (  14)
................................................................................
.............................. CYCLE   14 ......................................
................................................................................
   1    -50.7304111 -0.507304E+02  0.286E-01    7.69       0.0  T
   2    -50.7304380 -0.268361E-04  0.216E-01    7.69       1.0  T
   3    -50.7304587 -0.206941E-04  0.301E-02    7.71       1.0  T
   4    -50.7304623 -0.361159E-05  0.781E-03    7.71       2.5  T
   5    -50.7304623 -0.667592E-07  0.330E-03    7.71       5.9  T
   6    -50.7304624 -0.137568E-07  0.170E-03    7.71      11.5  T
   7    -50.7304624 -0.541983E-08  0.439E-04    7.71      44.7  T
speedup  1.13
cpu  time for SCC    0.01 s
wall time for SCC    0.01 s
speedup  1.02
cpu  time for grad    0.01 s
wall time for grad    0.01 s
 E :    -50.43641665  G :  0.024813    pred/act E change: -0.401D-02 -0.571D-03
Maxdispl :   0.1277   ||displ|| :   0.2879   Lambda : -0.942D-03
Largest |displ|/coords:  0.1277 (   8)  0.1272 (   3)  0.0914 (  20)
................................................................................
.............................. CYCLE   15 ......................................
................................................................................
   1    -50.7284357 -0.507284E+02  0.189E-01    7.72       0.0  T
   2    -50.7284470 -0.113498E-04  0.141E-01    7.73       1.0  T
   3    -50.7284549 -0.786625E-05  0.214E-02    7.75       1.0  T
   4    -50.7284563 -0.144404E-05  0.664E-03    7.75       3.0  T
   5    -50.7284564 -0.507531E-07  0.214E-03    7.75       9.2  T
   6    -50.7284564 -0.479883E-08  0.120E-03    7.75      16.4  T
speedup  1.13
cpu  time for SCC    0.01 s
wall time for SCC    0.01 s
speedup  1.02
cpu  time for grad    0.01 s
wall time for grad    0.01 s
 E :    -50.43702415  G :  0.023597    pred/act E change: -0.764D-03 -0.608D-03
Maxdispl :   0.1592   ||displ|| :   0.3575   Lambda : -0.120D-02
Largest |displ|/coords:  0.1592 (   3)  0.1237 (   8)  0.1108 (   6)
................................................................................
.............................. CYCLE   16 ......................................
................................................................................
   1    -50.7334825 -0.507335E+02  0.209E-01    7.85       0.0  T
   2    -50.7334904 -0.785691E-05  0.157E-01    7.86       1.0  T
   3    -50.7334965 -0.606404E-05  0.185E-02    7.89       1.1  T
   4    -50.7334974 -0.936573E-06  0.600E-03    7.89       3.3  T
   5    -50.7334974 -0.410021E-07  0.188E-03    7.89      10.5  T
   6    -50.7334975 -0.425682E-08  0.110E-03    7.89      17.8  T
speedup  0.93
cpu  time for SCC    0.00 s
wall time for SCC    0.01 s
speedup  0.93
cpu  time for grad    0.01 s
wall time for grad    0.01 s
 E :    -50.43762334  G :  0.020711    pred/act E change: -0.510D-03 -0.599D-03
Maxdispl :   0.1750   ||displ|| :   0.3773   Lambda : -0.117D-02
Largest |displ|/coords:  0.1750 (   3)  0.1359 (   6)  0.1356 (   8)
................................................................................
.............................. CYCLE   17 ......................................
................................................................................
   1    -50.7342368 -0.507342E+02  0.239E-01    7.97       0.0  T
   2    -50.7342591 -0.223186E-04  0.181E-01    7.98       1.0  T
   3    -50.7342767 -0.175909E-04  0.277E-02    8.00       1.0  T
   4    -50.7342798 -0.310421E-05  0.106E-02    8.00       1.9  T
   5    -50.7342800 -0.220236E-06  0.318E-03    8.00       6.2  T
   6    -50.7342800 -0.899959E-08  0.184E-03    8.00      10.6  T
speedup  0.94
cpu  time for SCC    0.00 s
wall time for SCC    0.01 s
speedup  1.02
cpu  time for grad    0.01 s
wall time for grad    0.01 s
 E :    -50.43834153  G :  0.018473    pred/act E change: -0.677D-03 -0.718D-03
Maxdispl :   0.2601   ||displ|| :   0.5166   Lambda : -0.164D-02
Largest |displ|/coords:  0.2601 (   8)  0.2431 (   3)  0.1194 (  21)
................................................................................
.............................. CYCLE   18 ......................................
................................................................................
   1    -50.7294969 -0.507295E+02  0.333E-01    7.96       0.0  T
   2    -50.7295409 -0.440278E-04  0.251E-01    7.96       1.0  T
   3    -50.7295646 -0.236301E-04  0.405E-02    7.98       1.0  T
   4    -50.7295716 -0.700427E-05  0.148E-02    7.98       1.3  T
   5    -50.7295720 -0.443129E-06  0.393E-03    7.98       5.0  T
   6    -50.7295720 -0.122493E-07  0.237E-03    7.98       8.3  T
   7    -50.7295720 -0.114945E-07  0.650E-04    7.98      30.2  T
speedup  0.97
cpu  time for SCC    0.01 s
wall time for SCC    0.01 s
speedup  1.02
cpu  time for grad    0.01 s
wall time for grad    0.01 s
 E :    -50.43862751  G :  0.034888    pred/act E change: -0.667D-03 -0.286D-03
Maxdispl :   0.1604   ||displ|| :   0.2469   Lambda : -0.198D-02
Largest |displ|/coords:  0.1604 (   3)  0.1218 (   4)  0.0579 (  30)
................................................................................
.............................. CYCLE   19 ......................................
................................................................................
   1    -50.7332029 -0.507332E+02  0.189E-01    7.93       0.0  T
   2    -50.7332296 -0.266824E-04  0.141E-01    7.94       1.0  T
   3    -50.7332497 -0.201263E-04  0.295E-02    7.97       1.0  T
   4    -50.7332530 -0.329604E-05  0.111E-02    7.96       1.8  T
   5    -50.7332532 -0.201240E-06  0.341E-03    7.96       5.7  T
   6    -50.7332533 -0.111843E-07  0.185E-03    7.96      10.6  T
speedup  0.93
cpu  time for SCC    0.00 s
wall time for SCC    0.01 s
speedup  1.01
cpu  time for grad    0.01 s
wall time for grad    0.01 s
 E :    -50.43956843  G :  0.021123    pred/act E change: -0.104D-02 -0.941D-03
Maxdispl :   0.1605   ||displ|| :   0.3318   Lambda : -0.141D-02
Largest |displ|/coords:  0.1605 (   3)  0.1213 (   6)  0.0905 (   2)
................................................................................
.............................. CYCLE   20 ......................................
................................................................................
   1    -50.7319392 -0.507319E+02  0.235E-01    7.96       0.0  T
   2    -50.7319625 -0.233414E-04  0.176E-01    7.97       1.0  T
   3    -50.7319783 -0.157891E-04  0.277E-02    7.99       1.0  T
   4    -50.7319814 -0.305086E-05  0.582E-03    7.99       3.4  T
   5    -50.7319814 -0.249903E-07  0.315E-03    7.99       6.2  T
speedup  0.87
cpu  time for SCC    0.00 s
wall time for SCC    0.00 s
speedup  0.99
cpu  time for grad    0.01 s
wall time for grad    0.01 s
 E :    -50.43961221  G :  0.034078    pred/act E change: -0.105D-02 -0.438D-04
Maxdispl :   0.0824   ||displ|| :   0.2182   Lambda : -0.164D-02
Largest |displ|/coords:  0.0824 (   9)  0.0729 (   8)  0.0696 (  21)
................................................................................
.............................. CYCLE   21 ......................................
................................................................................
   1    -50.7323373 -0.507323E+02  0.190E-01    8.05       0.0  T
   2    -50.7323572 -0.198625E-04  0.142E-01    8.06       1.0  T
   3    -50.7323703 -0.131523E-04  0.255E-02    8.08       1.0  T
   4    -50.7323728 -0.250799E-05  0.576E-03    8.08       3.4  T
   5    -50.7323729 -0.344929E-07  0.272E-03    8.08       7.2  T
speedup  1.11
cpu  time for SCC    0.00 s
wall time for SCC    0.00 s
speedup  1.00
cpu  time for grad    0.01 s
wall time for grad    0.01 s
 E :    -50.44030463  G :  0.020936    pred/act E change: -0.780D-03 -0.692D-03
Maxdispl :   0.1115   ||displ|| :   0.2707   Lambda : -0.148D-02
Largest |displ|/coords:  0.1115 (   3)  0.0873 (  28)  0.0846 (  20)
................................................................................
.............................. CYCLE   22 ......................................
................................................................................
   1    -50.7420746 -0.507421E+02  0.229E-01    8.14       0.0  T
   2    -50.7421203 -0.456856E-04  0.170E-01    8.14       1.0  T
   3    -50.7421526 -0.323138E-04  0.375E-02    8.15       1.0  T
   4    -50.7421573 -0.462170E-05  0.110E-02    8.14       1.8  T
   5    -50.7421575 -0.195880E-06  0.431E-03    8.14       4.5  T
   6    -50.7421575 -0.172610E-07  0.210E-03    8.14       9.4  T
speedup  0.93
cpu  time for SCC    0.00 s
wall time for SCC    0.01 s
speedup  1.00
cpu  time for grad    0.01 s
wall time for grad    0.01 s
 E :    -50.43927182  G :  0.051533    pred/act E change: -0.858D-03  0.103D-02
Maxdispl :   0.1281   ||displ|| :   0.3447   Lambda : -0.752D-02
Largest |displ|/coords:  0.1281 (  14)  0.1019 (   6)  0.0962 (  28)
................................................................................
.............................. CYCLE   23 ......................................
................................................................................
   1    -50.7101486 -0.507101E+02  0.461E-01    7.90       0.0  T
   2    -50.7103822 -0.233680E-03  0.341E-01    7.91       1.0  T
   3    -50.7105230 -0.140787E-03  0.851E-02    7.93       1.0  T
   4    -50.7105465 -0.235005E-04  0.173E-02    7.93       1.1  T
   5    -50.7105469 -0.361212E-06  0.797E-03    7.93       2.5  T
   6    -50.7105470 -0.901197E-07  0.347E-03    7.93       5.7  T
   7    -50.7105470 -0.202333E-07  0.984E-04    7.93      19.9  T
speedup  0.95
cpu  time for SCC    0.01 s
wall time for SCC    0.01 s
speedup  1.01
cpu  time for grad    0.01 s
wall time for grad    0.01 s
 E :    -50.43697507  G :  0.076125    pred/act E change: -0.797D-03  0.230D-02
Maxdispl :   0.1570   ||displ|| :   0.3885   Lambda : -0.150D-01
Largest |displ|/coords:  0.1570 (  14)  0.1020 (  27)  0.0998 (  17)
................................................................................
.............................. CYCLE   24 ......................................
................................................................................
   1    -50.7530266 -0.507530E+02  0.564E-01    8.26       0.0  T
   2    -50.7533421 -0.315415E-03  0.418E-01    8.24       1.0  T
   3    -50.7535518 -0.209785E-03  0.991E-02    8.19       1.0  T
   4    -50.7535823 -0.304810E-04  0.197E-02    8.20       1.0  T
   5    -50.7535828 -0.484566E-06  0.981E-03    8.20       2.0  T
   6    -50.7535829 -0.650906E-07  0.416E-03    8.20       4.7  T
   7    -50.7535829 -0.331061E-07  0.101E-03    8.20      19.4  T
speedup  0.97
cpu  time for SCC    0.01 s
wall time for SCC    0.01 s
speedup  0.95
cpu  time for grad    0.01 s
wall time for grad    0.01 s
 E :    -50.43789814  G :  0.070538    pred/act E change: -0.421D-02 -0.923D-03
Maxdispl :   0.1041   ||displ|| :   0.2946   Lambda : -0.941D-02
Largest |displ|/coords:  0.1041 (  14)  0.0900 (   4)  0.0806 (  21)
................................................................................
.............................. CYCLE   25 ......................................
................................................................................
   1    -50.7171939 -0.507172E+02  0.409E-01    7.91       0.0  T
   2    -50.7173710 -0.177126E-03  0.300E-01    7.94       1.0  T
   3    -50.7174729 -0.101925E-03  0.731E-02    7.99       1.0  T
   4    -50.7174889 -0.159855E-04  0.152E-02    7.97       1.3  T
   5    -50.7174893 -0.434299E-06  0.621E-03    7.98       3.2  T
   6    -50.7174894 -0.492637E-07  0.319E-03    7.98       6.1  T
   7    -50.7174894 -0.148302E-07  0.825E-04    7.98      23.8  T
speedup  0.95
cpu  time for SCC    0.01 s
wall time for SCC    0.01 s
speedup  1.01
cpu  time for grad    0.01 s
wall time for grad    0.01 s
 E :    -50.43951499  G :  0.046261    pred/act E change: -0.865D-02 -0.162D-02
Maxdispl :   0.0983   ||displ|| :   0.1826   Lambda : -0.376D-02
Largest |displ|/coords:  0.0983 (  15)  0.0706 (  11)  0.0683 (   8)

generating ANC from model Hessian ...
 Shifting diagonal of input Hessian by   5.142034167646806E-003
 Lowest  eigenvalues of input Hessian
    0.005000    0.000000    0.000000    0.000000    0.000000    0.000000
    0.000000    0.005170    0.005376    0.005661    0.005815    0.005893
    0.006351    0.006780    0.006947    0.007221    0.007649    0.008634
 Highest eigenvalues
    1.382986    1.403338    1.463327    2.683185    3.274723    3.803366
 
cpu  time for ANC gen    0.01 s
wall time for ANC gen    0.01 s
................................................................................
.............................. CYCLE   26 ......................................
................................................................................
   1    -50.7343355 -0.507343E+02  0.230E-01    8.08       0.0  T
   2    -50.7343967 -0.611934E-04  0.165E-01    8.07       1.0  T
   3    -50.7344303 -0.335499E-04  0.409E-02    8.04       1.0  T
   4    -50.7344349 -0.456677E-05  0.100E-02    8.05       2.0  T
   5    -50.7344350 -0.191905E-06  0.369E-03    8.04       5.3  T
   6    -50.7344351 -0.707283E-08  0.186E-03    8.04      10.6  T
   7    -50.7344351 -0.710850E-08  0.489E-04    8.04      40.1  T
   8    -50.7344351 -0.552852E-09  0.165E-04    8.05     119.0  T
speedup  1.11
cpu  time for SCC    0.01 s
wall time for SCC    0.01 s
speedup  1.04
cpu  time for grad    0.02 s
wall time for grad    0.02 s
 E :    -50.44025034  G :  0.036233    pred/act E change:  0.000D+00 -0.735D-03
Maxdispl :   0.1097   ||displ|| :   0.2429   Lambda : -0.174D-02
Largest |displ|/coords:  0.1097 (   4)  0.0857 (   7)  0.0838 (   9)
................................................................................
.............................. CYCLE   27 ......................................
................................................................................
   1    -50.7344325 -0.507344E+02  0.195E-01    8.02       0.0  T
   2    -50.7344455 -0.130153E-04  0.146E-01    8.02       1.0  T
   3    -50.7344533 -0.778358E-05  0.211E-02    8.02       1.0  T
   4    -50.7344552 -0.194193E-05  0.581E-03    8.02       3.4  T
   5    -50.7344553 -0.732733E-07  0.218E-03    8.02       9.0  T
speedup  1.11
cpu  time for SCC    0.00 s
wall time for SCC    0.00 s
speedup  0.99
cpu  time for grad    0.01 s
wall time for grad    0.01 s
 E :    -50.44142727  G :  0.012128    pred/act E change:  0.000D+00 -0.118D-02
Maxdispl :   0.1361   ||displ|| :   0.2589   Lambda : -0.698D-03
Largest |displ|/coords:  0.1361 (   4)  0.1242 (  11)  0.0664 (  12)
................................................................................
.............................. CYCLE   28 ......................................
................................................................................
   1    -50.7333225 -0.507333E+02  0.219E-01    7.98       0.0  T
   2    -50.7333311 -0.862779E-05  0.166E-01    7.98       1.0  T
   3    -50.7333397 -0.859686E-05  0.153E-02    7.98       1.3  T
   4    -50.7333405 -0.820047E-06  0.518E-03    7.98       3.8  T
   5    -50.7333405 -0.323882E-07  0.210E-03    7.98       9.4  T
   6    -50.7333405 -0.320778E-08  0.105E-03    7.98      18.7  T
speedup  1.13
cpu  time for SCC    0.01 s
wall time for SCC    0.01 s
speedup  1.01
cpu  time for grad    0.01 s
wall time for grad    0.01 s
 E :    -50.44182008  G :  0.016092    pred/act E change: -0.923D-03 -0.393D-03
Maxdispl :   0.1077   ||displ|| :   0.2321   Lambda : -0.511D-03
Largest |displ|/coords:  0.1077 (   2)  0.1069 (   4)  0.0924 (  11)
................................................................................
.............................. CYCLE   29 ......................................
................................................................................
   1    -50.7344181 -0.507344E+02  0.138E-01    7.98       0.0  T
   2    -50.7344222 -0.409778E-05  0.103E-01    7.99       1.0  T
   3    -50.7344251 -0.291382E-05  0.126E-02    8.00       1.6  T
   4    -50.7344256 -0.547471E-06  0.356E-03    8.00       5.5  T
   5    -50.7344256 -0.170261E-07  0.139E-03    8.00      14.1  T
   6    -50.7344256 -0.121285E-08  0.695E-04    8.00      28.2  T
speedup  0.93
cpu  time for SCC    0.00 s
wall time for SCC    0.01 s
speedup  1.00
cpu  time for grad    0.01 s
wall time for grad    0.01 s
 E :    -50.44214854  G :  0.012136    pred/act E change: -0.372D-03 -0.328D-03
Maxdispl :   0.2129   ||displ|| :   0.3870   Lambda : -0.603D-03
Largest |displ|/coords:  0.2129 (   4)  0.1492 (  11)  0.1456 (   2)
................................................................................
.............................. CYCLE   30 ......................................
................................................................................
   1    -50.7321964 -0.507322E+02  0.263E-01    7.96       0.0  T
   2    -50.7322065 -0.101111E-04  0.199E-01    7.97       1.0  T
   3    -50.7322166 -0.101317E-04  0.186E-02    7.99       1.1  T
   4    -50.7322176 -0.987680E-06  0.575E-03    7.99       3.4  T
   5    -50.7322177 -0.354909E-07  0.258E-03    7.99       7.6  T
   6    -50.7322177 -0.594375E-08  0.126E-03    7.99      15.6  T
speedup  1.13
cpu  time for SCC    0.01 s
wall time for SCC    0.01 s
speedup  1.00
cpu  time for grad    0.01 s
wall time for grad    0.01 s
 E :    -50.44253617  G :  0.016432    pred/act E change: -0.269D-03 -0.388D-03
Maxdispl :   0.1518   ||displ|| :   0.3321   Lambda : -0.684D-03
Largest |displ|/coords:  0.1518 (   4)  0.1512 (  11)  0.1264 (   2)
................................................................................
.............................. CYCLE   31 ......................................
................................................................................
   1    -50.7346590 -0.507347E+02  0.183E-01    7.97       0.0  T
   2    -50.7346677 -0.864614E-05  0.137E-01    7.97       1.0  T
   3    -50.7346753 -0.756553E-05  0.181E-02    7.98       1.1  T
   4    -50.7346763 -0.102433E-05  0.585E-03    7.98       3.4  T
   5    -50.7346763 -0.441253E-07  0.217E-03    7.98       9.0  T
   6    -50.7346763 -0.464863E-08  0.126E-03    7.98      15.6  T
speedup  0.94
cpu  time for SCC    0.00 s
wall time for SCC    0.01 s
speedup  1.00
cpu  time for grad    0.01 s
wall time for grad    0.01 s
 E :    -50.44289841  G :  0.011551    pred/act E change: -0.347D-03 -0.362D-03
Maxdispl :   0.1294   ||displ|| :   0.2587   Lambda : -0.405D-03
Largest |displ|/coords:  0.1294 (   2)  0.1169 (   1)  0.0695 (  11)
................................................................................
.............................. CYCLE   32 ......................................
................................................................................
   1    -50.7350427 -0.507350E+02  0.181E-01    7.94       0.0  T
   2    -50.7350528 -0.101106E-04  0.136E-01    7.94       1.0  T
   3    -50.7350622 -0.942564E-05  0.199E-02    7.96       1.0  T
   4    -50.7350633 -0.112761E-05  0.593E-03    7.95       3.3  T
   5    -50.7350634 -0.547132E-07  0.218E-03    7.95       9.0  T
   6    -50.7350634 -0.449529E-08  0.117E-03    7.95      16.7  T
speedup  1.13
cpu  time for SCC    0.01 s
wall time for SCC    0.01 s
speedup  0.98
cpu  time for grad    0.01 s
wall time for grad    0.01 s
 E :    -50.44293639  G :  0.017570    pred/act E change: -0.380D-03 -0.380D-04
Maxdispl :   0.1204   ||displ|| :   0.2741   Lambda : -0.629D-03
Largest |displ|/coords:  0.1204 (   4)  0.1202 (   2)  0.0965 (   1)
................................................................................
.............................. CYCLE   33 ......................................
................................................................................
   1    -50.7309939 -0.507310E+02  0.185E-01    7.92       0.0  T
   2    -50.7310007 -0.677979E-05  0.139E-01    7.92       1.0  T
   3    -50.7310062 -0.543850E-05  0.149E-02    7.93       1.3  T
   4    -50.7310070 -0.860133E-06  0.508E-03    7.93       3.9  T
   5    -50.7310070 -0.256046E-07  0.194E-03    7.93      10.1  T
   6    -50.7310070 -0.399150E-08  0.107E-03    7.93      18.3  T
speedup  0.94
cpu  time for SCC    0.00 s
wall time for SCC    0.01 s
speedup  1.00
cpu  time for grad    0.01 s
wall time for grad    0.01 s
 E :    -50.44317553  G :  0.013704    pred/act E change: -0.216D-03 -0.239D-03
Maxdispl :   0.1221   ||displ|| :   0.2211   Lambda : -0.448D-03
Largest |displ|/coords:  0.1221 (   4)  0.0943 (  11)  0.0602 (  16)
................................................................................
.............................. CYCLE   34 ......................................
................................................................................
   1    -50.7358483 -0.507358E+02  0.161E-01    8.04       0.0  T
   2    -50.7358570 -0.871497E-05  0.121E-01    8.04       1.0  T
   3    -50.7358636 -0.663815E-05  0.178E-02    8.03       1.1  T
   4    -50.7358648 -0.114520E-05  0.479E-03    8.03       4.1  T
   5    -50.7358648 -0.436860E-07  0.206E-03    8.03       9.5  T
   6    -50.7358648 -0.320523E-08  0.102E-03    8.03      19.3  T
speedup  0.93
cpu  time for SCC    0.00 s
wall time for SCC    0.01 s
speedup  1.00
cpu  time for grad    0.01 s
wall time for grad    0.01 s
 E :    -50.44319488  G :  0.013467    pred/act E change: -0.338D-03 -0.194D-04
Maxdispl :   0.0694   ||displ|| :   0.1626   Lambda : -0.315D-03
Largest |displ|/coords:  0.0694 (   1)  0.0569 (  11)  0.0546 (   2)
................................................................................
.............................. CYCLE   35 ......................................
................................................................................
   1    -50.7334068 -0.507334E+02  0.136E-01    7.97       0.0  T
   2    -50.7334117 -0.491951E-05  0.103E-01    7.97       1.0  T
   3    -50.7334157 -0.398920E-05  0.136E-02    7.98       1.4  T
   4    -50.7334163 -0.624541E-06  0.417E-03    7.98       4.7  T
   5    -50.7334164 -0.317191E-07  0.136E-03    7.98      14.4  T
   6    -50.7334164 -0.137566E-08  0.784E-04    7.98      25.0  T
speedup  0.94
cpu  time for SCC    0.00 s
wall time for SCC    0.01 s
speedup  0.99
cpu  time for grad    0.01 s
wall time for grad    0.01 s
 E :    -50.44338067  G :  0.004812    pred/act E change: -0.235D-03 -0.186D-03
Maxdispl :   0.1029   ||displ|| :   0.2053   Lambda : -0.143D-03
Largest |displ|/coords:  0.1029 (   1)  0.0843 (   2)  0.0557 (  11)
................................................................................
.............................. CYCLE   36 ......................................
................................................................................
   1    -50.7322398 -0.507322E+02  0.123E-01    7.94       0.0  T
   2    -50.7322421 -0.230336E-05  0.922E-02    7.94       1.0  T
   3    -50.7322443 -0.219571E-05  0.103E-02    7.95       1.9  T
   4    -50.7322445 -0.232862E-06  0.354E-03    7.95       5.5  T
   5    -50.7322445 -0.150231E-07  0.104E-03    7.95      18.8  T
   6    -50.7322445 -0.110627E-08  0.644E-04    7.95      30.4  T
speedup  0.93
cpu  time for SCC    0.01 s
wall time for SCC    0.01 s
speedup  0.99
cpu  time for grad    0.01 s
wall time for grad    0.01 s
 E :    -50.44343856  G :  0.008257    pred/act E change: -0.162D-03 -0.579D-04
Maxdispl :   0.0577   ||displ|| :   0.1216   Lambda : -0.970D-04
Largest |displ|/coords:  0.0577 (   5)  0.0574 (   1)  0.0514 (   2)
................................................................................
.............................. CYCLE   37 ......................................
................................................................................
   1    -50.7323833 -0.507324E+02  0.638E-02    7.94       0.0  T
   2    -50.7323840 -0.744821E-06  0.475E-02    7.94       1.0  T
   3    -50.7323847 -0.667217E-06  0.607E-03    7.94       3.2  T
   4    -50.7323848 -0.768668E-07  0.189E-03    7.94      10.4  T
   5    -50.7323848 -0.502542E-08  0.548E-04    7.94      35.8  T
speedup  1.09
cpu  time for SCC    0.00 s
wall time for SCC    0.00 s
speedup  0.98
cpu  time for grad    0.01 s
wall time for grad    0.01 s
 E :    -50.44351134  G :  0.005720    pred/act E change: -0.746D-04 -0.728D-04
Maxdispl :   0.1282   ||displ|| :   0.2806   Lambda : -0.198D-03
Largest |displ|/coords:  0.1282 (   5)  0.1279 (   1)  0.1144 (   2)
................................................................................
.............................. CYCLE   38 ......................................
................................................................................
   1    -50.7336170 -0.507336E+02  0.132E-01    7.97       0.0  T
   2    -50.7336210 -0.401587E-05  0.985E-02    7.97       1.0  T
   3    -50.7336244 -0.342080E-05  0.136E-02    7.97       1.4  T
   4    -50.7336249 -0.439762E-06  0.459E-03    7.97       4.3  T
   5    -50.7336249 -0.277111E-07  0.123E-03    7.97      15.9  T
   6    -50.7336249 -0.175051E-08  0.777E-04    7.97      25.3  T
speedup  0.93
cpu  time for SCC    0.00 s
wall time for SCC    0.01 s
speedup  0.98
cpu  time for grad    0.01 s
wall time for grad    0.01 s
 E :    -50.44362152  G :  0.005933    pred/act E change: -0.492D-04 -0.110D-03
Maxdispl :   0.1390   ||displ|| :   0.3032   Lambda : -0.144D-03
Largest |displ|/coords:  0.1390 (   5)  0.1383 (   1)  0.1239 (   2)
................................................................................
.............................. CYCLE   39 ......................................
................................................................................
   1    -50.7324651 -0.507325E+02  0.156E-01    7.91       0.0  T
   2    -50.7324696 -0.455502E-05  0.116E-01    7.91       1.0  T
   3    -50.7324738 -0.421622E-05  0.158E-02    7.92       1.2  T
   4    -50.7324743 -0.469255E-06  0.586E-03    7.92       3.3  T
   5    -50.7324743 -0.390592E-07  0.136E-03    7.92      14.4  T
   6    -50.7324743 -0.190931E-08  0.881E-04    7.92      22.3  T
speedup  1.07
cpu  time for SCC    0.01 s
wall time for SCC    0.01 s
speedup  1.05
cpu  time for grad    0.01 s
wall time for grad    0.01 s
 E :    -50.44372109  G :  0.006134    pred/act E change: -0.107D-03 -0.996D-04
Maxdispl :   0.1047   ||displ|| :   0.2521   Lambda : -0.135D-03
Largest |displ|/coords:  0.1047 (   5)  0.0978 (   1)  0.0950 (   4)
................................................................................
.............................. CYCLE   40 ......................................
................................................................................
   1    -50.7331814 -0.507332E+02  0.127E-01    7.91       0.0  T
   2    -50.7331851 -0.374847E-05  0.954E-02    7.91       1.0  T
   3    -50.7331883 -0.316155E-05  0.135E-02    7.91       1.5  T
   4    -50.7331888 -0.446658E-06  0.526E-03    7.91       3.7  T
   5    -50.7331888 -0.295488E-07  0.119E-03    7.91      16.5  T
   6    -50.7331888 -0.141798E-08  0.783E-04    7.91      25.1  T
speedup  1.13
cpu  time for SCC    0.01 s
wall time for SCC    0.01 s
speedup  0.99
cpu  time for grad    0.01 s
wall time for grad    0.01 s
 E :    -50.44381182  G :  0.005165    pred/act E change: -0.787D-04 -0.907D-04
Maxdispl :   0.1387   ||displ|| :   0.2887   Lambda : -0.138D-03
Largest |displ|/coords:  0.1387 (   5)  0.1064 (   2)  0.1022 (   3)
................................................................................
.............................. CYCLE   41 ......................................
................................................................................
   1    -50.7309980 -0.507310E+02  0.169E-01    7.87       0.0  T
   2    -50.7310033 -0.536614E-05  0.127E-01    7.87       1.0  T
   3    -50.7310079 -0.457533E-05  0.156E-02    7.88       1.3  T
   4    -50.7310086 -0.665788E-06  0.639E-03    7.87       3.1  T
   5    -50.7310086 -0.380054E-07  0.152E-03    7.87      12.9  T
   6    -50.7310086 -0.230755E-08  0.964E-04    7.87      20.3  T
speedup  0.93
cpu  time for SCC    0.00 s
wall time for SCC    0.01 s
speedup  0.99
cpu  time for grad    0.01 s
wall time for grad    0.01 s
 E :    -50.44387136  G :  0.009038    pred/act E change: -0.715D-04 -0.595D-04
Maxdispl :   0.0950   ||displ|| :   0.1497   Lambda : -0.161D-03
Largest |displ|/coords:  0.0950 (   4)  0.0647 (   1)  0.0458 (   3)
................................................................................
.............................. CYCLE   42 ......................................
................................................................................
   1    -50.7352665 -0.507353E+02  0.878E-02    7.97       0.0  T
   2    -50.7352687 -0.226314E-05  0.653E-02    7.97       1.0  T
   3    -50.7352705 -0.175411E-05  0.101E-02    7.97       1.9  T
   4    -50.7352707 -0.262870E-06  0.223E-03    7.97       8.8  T
   5    -50.7352708 -0.791294E-08  0.119E-03    7.97      16.4  T
speedup  0.87
cpu  time for SCC    0.00 s
wall time for SCC    0.00 s
speedup  0.98
cpu  time for grad    0.01 s
wall time for grad    0.01 s
 E :    -50.44392431  G :  0.009278    pred/act E change: -0.746D-04 -0.530D-04
Maxdispl :   0.0873   ||displ|| :   0.1935   Lambda : -0.160D-03
Largest |displ|/coords:  0.0873 (   2)  0.0694 (   5)  0.0667 (  11)
................................................................................
.............................. CYCLE   43 ......................................
................................................................................
   1    -50.7333950 -0.507334E+02  0.118E-01    7.91       0.0  T
   2    -50.7333983 -0.325297E-05  0.881E-02    7.91       1.0  T
   3    -50.7334009 -0.257324E-05  0.137E-02    7.91       1.4  T
   4    -50.7334013 -0.402171E-06  0.397E-03    7.91       4.9  T
   5    -50.7334013 -0.194067E-07  0.982E-04    7.91      20.0  T
   6    -50.7334013 -0.856147E-09  0.571E-04    7.91      34.4  T
speedup  1.11
cpu  time for SCC    0.01 s
wall time for SCC    0.01 s
speedup  0.99
cpu  time for grad    0.01 s
wall time for grad    0.01 s
 E :    -50.44400675  G :  0.005866    pred/act E change: -0.823D-04 -0.824D-04
Maxdispl :   0.0881   ||displ|| :   0.1775   Lambda : -0.184D-03
Largest |displ|/coords:  0.0881 (   3)  0.0795 (   4)  0.0769 (   5)
................................................................................
.............................. CYCLE   44 ......................................
................................................................................
   1    -50.7334778 -0.507335E+02  0.106E-01    7.93       0.0  T
   2    -50.7334803 -0.244445E-05  0.797E-02    7.93       1.0  T
   3    -50.7334823 -0.201447E-05  0.105E-02    7.92       1.9  T
   4    -50.7334826 -0.313282E-06  0.346E-03    7.93       5.7  T
   5    -50.7334826 -0.171706E-07  0.102E-03    7.93      19.2  T
   6    -50.7334826 -0.114410E-08  0.596E-04    7.93      32.9  T
speedup  1.09
cpu  time for SCC    0.01 s
wall time for SCC    0.01 s
speedup  0.98
cpu  time for grad    0.01 s
wall time for grad    0.01 s
 E :    -50.44412443  G :  0.007784    pred/act E change: -0.831D-04 -0.118D-03
Maxdispl :   0.1787   ||displ|| :   0.3403   Lambda : -0.311D-03
Largest |displ|/coords:  0.1787 (   3)  0.1442 (   4)  0.1349 (   5)
................................................................................
.............................. CYCLE   45 ......................................
................................................................................
   1    -50.7308907 -0.507309E+02  0.196E-01    7.81       0.0  T
   2    -50.7308991 -0.842672E-05  0.147E-01    7.81       1.0  T
   3    -50.7309066 -0.747174E-05  0.231E-02    7.81       1.0  T
   4    -50.7309076 -0.930580E-06  0.763E-03    7.81       2.6  T
   5    -50.7309076 -0.612310E-07  0.172E-03    7.81      11.4  T
   6    -50.7309076 -0.286650E-08  0.112E-03    7.81      17.5  T
speedup  0.93
cpu  time for SCC    0.00 s
wall time for SCC    0.01 s
speedup  0.99
cpu  time for grad    0.01 s
wall time for grad    0.01 s
 E :    -50.44428606  G :  0.012044    pred/act E change: -0.948D-04 -0.162D-03
Maxdispl :   0.1592   ||displ|| :   0.2632   Lambda : -0.346D-03
Largest |displ|/coords:  0.1592 (   1)  0.0805 (   3)  0.0805 (   2)
................................................................................
.............................. CYCLE   46 ......................................
................................................................................
   1    -50.7339040 -0.507339E+02  0.125E-01    7.98       0.0  T
   2    -50.7339094 -0.548351E-05  0.931E-02    7.98       1.0  T
   3    -50.7339127 -0.323771E-05  0.162E-02    7.97       1.2  T
   4    -50.7339135 -0.782873E-06  0.591E-03    7.97       3.3  T
   5    -50.7339135 -0.464981E-07  0.148E-03    7.97      13.2  T
   6    -50.7339135 -0.246552E-08  0.858E-04    7.97      22.9  T
speedup  0.93
cpu  time for SCC    0.00 s
wall time for SCC    0.01 s
speedup  0.99
cpu  time for grad    0.01 s
wall time for grad    0.01 s
 E :    -50.44444488  G :  0.007381    pred/act E change: -0.174D-03 -0.159D-03
Maxdispl :   0.2609   ||displ|| :   0.4121   Lambda : -0.349D-03
Largest |displ|/coords:  0.2609 (   4)  0.1737 (   3)  0.1228 (  11)
................................................................................
.............................. CYCLE   47 ......................................
................................................................................
   1    -50.7328625 -0.507329E+02  0.243E-01    7.93       0.0  T
   2    -50.7328735 -0.110425E-04  0.182E-01    7.93       1.0  T
   3    -50.7328846 -0.110763E-04  0.246E-02    7.92       1.0  T
   4    -50.7328856 -0.103705E-05  0.102E-02    7.92       1.9  T
   5    -50.7328857 -0.911046E-07  0.239E-03    7.92       8.2  T
   6    -50.7328857 -0.581689E-08  0.159E-03    7.92      12.3  T
speedup  0.94
cpu  time for SCC    0.00 s
wall time for SCC    0.01 s
speedup  0.99
cpu  time for grad    0.01 s
wall time for grad    0.01 s
 E :    -50.44466153  G :  0.010128    pred/act E change: -0.185D-03 -0.217D-03
Maxdispl :   0.1524   ||displ|| :   0.2402   Lambda : -0.302D-03
Largest |displ|/coords:  0.1524 (   4)  0.0665 (   5)  0.0656 (  11)
................................................................................
.............................. CYCLE   48 ......................................
................................................................................
   1    -50.7332336 -0.507332E+02  0.149E-01    7.87       0.0  T
   2    -50.7332402 -0.659109E-05  0.108E-01    7.87       1.0  T
   3    -50.7332452 -0.499304E-05  0.199E-02    7.88       1.0  T
   4    -50.7332457 -0.549101E-06  0.572E-03    7.88       3.4  T
   5    -50.7332458 -0.504441E-07  0.149E-03    7.88      13.2  T
   6    -50.7332458 -0.377536E-08  0.880E-04    7.88      22.3  T
speedup  1.11
cpu  time for SCC    0.01 s
wall time for SCC    0.01 s
speedup  0.98
cpu  time for grad    0.01 s
wall time for grad    0.01 s
 E :    -50.44481827  G :  0.009909    pred/act E change: -0.204D-03 -0.157D-03
Maxdispl :   0.1853   ||displ|| :   0.2929   Lambda : -0.245D-03
Largest |displ|/coords:  0.1853 (   4)  0.1136 (   3)  0.0886 (   5)
................................................................................
.............................. CYCLE   49 ......................................
................................................................................
   1    -50.7298645 -0.507299E+02  0.174E-01    7.89       0.0  T
   2    -50.7298718 -0.731016E-05  0.129E-01    7.90       1.0  T
   3    -50.7298772 -0.537718E-05  0.198E-02    7.92       1.0  T
   4    -50.7298781 -0.850822E-06  0.740E-03    7.92       2.6  T
   5    -50.7298781 -0.533040E-07  0.177E-03    7.92      11.1  T
   6    -50.7298781 -0.366659E-08  0.107E-03    7.92      18.3  T
speedup  1.09
cpu  time for SCC    0.01 s
wall time for SCC    0.01 s
speedup  0.98
cpu  time for grad    0.01 s
wall time for grad    0.01 s
 E :    -50.44495033  G :  0.011651    pred/act E change: -0.160D-03 -0.132D-03
Maxdispl :   0.0748   ||displ|| :   0.1680   Lambda : -0.252D-03
Largest |displ|/coords:  0.0748 (   1)  0.0631 (   4)  0.0518 (   7)
................................................................................
.............................. CYCLE   50 ......................................
................................................................................
   1    -50.7329330 -0.507329E+02  0.909E-02    8.01       0.0  T
   2    -50.7329350 -0.204826E-05  0.671E-02    8.01       1.0  T
   3    -50.7329364 -0.135744E-05  0.115E-02    8.01       1.7  T
   4    -50.7329366 -0.238884E-06  0.400E-03    8.01       4.9  T
   5    -50.7329366 -0.143069E-07  0.770E-04    8.01      25.5  T
   6    -50.7329366 -0.481158E-09  0.479E-04    8.01      41.0  T
speedup  0.93
cpu  time for SCC    0.00 s
wall time for SCC    0.01 s
speedup  0.98
cpu  time for grad    0.01 s
wall time for grad    0.01 s
 E :    -50.44508747  G :  0.009331    pred/act E change: -0.133D-03 -0.137D-03
Maxdispl :   0.2032   ||displ|| :   0.4679   Lambda : -0.374D-03
Largest |displ|/coords:  0.2032 (   4)  0.1837 (   5)  0.1669 (   7)
................................................................................
.............................. CYCLE   51 ......................................
................................................................................
   1    -50.7295225 -0.507295E+02  0.283E-01    7.83       0.0  T
   2    -50.7295387 -0.162397E-04  0.208E-01    7.83       1.0  T
   3    -50.7295522 -0.134991E-04  0.374E-02    7.83       1.0  T
   4    -50.7295537 -0.144061E-05  0.126E-02    7.83       1.6  T
   5    -50.7295538 -0.166830E-06  0.219E-03    7.83       9.0  T
   6    -50.7295538 -0.537826E-08  0.144E-03    7.83      13.6  T
speedup  0.93
cpu  time for SCC    0.01 s
wall time for SCC    0.01 s
speedup  0.99
cpu  time for grad    0.01 s
wall time for grad    0.01 s
 E :    -50.44513868  G :  0.014499    pred/act E change: -0.130D-03 -0.512D-04
Maxdispl :   0.0626   ||displ|| :   0.1232   Lambda : -0.403D-03
Largest |displ|/coords:  0.0626 (  12)  0.0369 (   3)  0.0366 (   7)
................................................................................
.............................. CYCLE   52 ......................................
................................................................................
   1    -50.7339703 -0.507340E+02  0.803E-02    7.96       0.0  T
   2    -50.7339723 -0.202280E-05  0.600E-02    7.96       1.0  T
   3    -50.7339739 -0.160118E-05  0.101E-02    7.96       1.9  T
   4    -50.7339742 -0.224078E-06  0.355E-03    7.96       5.5  T
   5    -50.7339742 -0.186504E-07  0.981E-04    7.96      20.0  T
   6    -50.7339742 -0.106081E-08  0.589E-04    7.96      33.3  T
speedup  1.13
cpu  time for SCC    0.01 s
wall time for SCC    0.01 s
speedup  1.05
cpu  time for grad    0.01 s
wall time for grad    0.01 s
 E :    -50.44533799  G :  0.006633    pred/act E change: -0.228D-03 -0.199D-03
Maxdispl :   0.2242   ||displ|| :   0.3692   Lambda : -0.407D-03
Largest |displ|/coords:  0.2242 (   4)  0.1342 (   3)  0.1312 (   5)

generating ANC from model Hessian ...
 Shifting diagonal of input Hessian by   5.215936734419425E-003
 Lowest  eigenvalues of input Hessian
    0.005000    0.005184   -0.000000   -0.000000    0.000000    0.000000
    0.000000    0.000000    0.005525    0.005780    0.005994    0.006025
    0.006164    0.006416    0.006710    0.007098    0.007201    0.008474
 Highest eigenvalues
    1.363951    1.403114    1.421046    2.683824    3.264654    3.774940
 
cpu  time for ANC gen    0.01 s
wall time for ANC gen    0.01 s
................................................................................
.............................. CYCLE   53 ......................................
................................................................................
   1    -50.7301802 -0.507302E+02  0.212E-01    7.97       0.0  T
   2    -50.7301961 -0.159025E-04  0.158E-01    7.96       1.0  T
   3    -50.7302064 -0.103263E-04  0.252E-02    7.94       1.0  T
   4    -50.7302085 -0.206241E-05  0.815E-03    7.95       2.4  T
   5    -50.7302086 -0.768441E-07  0.262E-03    7.95       7.5  T
   6    -50.7302086 -0.833220E-08  0.154E-03    7.95      12.7  T
   7    -50.7302086 -0.343532E-08  0.420E-04    7.95      46.7  T
   8    -50.7302086 -0.377099E-09  0.887E-05    7.95     221.1  T
speedup  0.99
cpu  time for SCC    0.01 s
wall time for SCC    0.01 s
speedup  1.04
cpu  time for grad    0.02 s
wall time for grad    0.02 s
 E :    -50.44501831  G :  0.029444    pred/act E change:  0.000D+00  0.320D-03
Maxdispl :   0.0928   ||displ|| :   0.1393   Lambda : -0.975D-03
Largest |displ|/coords:  0.0928 (  11)  0.0453 (  13)  0.0409 (   3)
................................................................................
.............................. CYCLE   54 ......................................
................................................................................
   1    -50.7331478 -0.507331E+02  0.101E-01    7.95       0.0  T
   2    -50.7331526 -0.487577E-05  0.748E-02    7.95       1.0  T
   3    -50.7331561 -0.340955E-05  0.134E-02    7.95       1.5  T
   4    -50.7331566 -0.582530E-06  0.386E-03    7.95       5.1  T
   5    -50.7331567 -0.223594E-07  0.144E-03    7.95      13.6  T
speedup  1.11
cpu  time for SCC    0.00 s
wall time for SCC    0.00 s
speedup  1.06
cpu  time for grad    0.01 s
wall time for grad    0.01 s
 E :    -50.44566382  G :  0.009493    pred/act E change:  0.000D+00 -0.646D-03
Maxdispl :   0.0621   ||displ|| :   0.1347   Lambda : -0.261D-03
Largest |displ|/coords:  0.0621 (  13)  0.0561 (  11)  0.0475 (   1)
................................................................................
.............................. CYCLE   55 ......................................
................................................................................
   1    -50.7347380 -0.507347E+02  0.943E-02    7.93       0.0  T
   2    -50.7347406 -0.259894E-05  0.703E-02    7.93       1.0  T
   3    -50.7347428 -0.223263E-05  0.107E-02    7.93       1.8  T
   4    -50.7347431 -0.283947E-06  0.308E-03    7.93       6.4  T
   5    -50.7347431 -0.135519E-07  0.104E-03    7.93      18.9  T
   6    -50.7347431 -0.135081E-08  0.612E-04    7.93      32.1  T
speedup  0.94
cpu  time for SCC    0.00 s
wall time for SCC    0.01 s
speedup  0.98
cpu  time for grad    0.01 s
wall time for grad    0.01 s
 E :    -50.44582945  G :  0.003876    pred/act E change: -0.497D-03 -0.166D-03
Maxdispl :   0.1016   ||displ|| :   0.1809   Lambda : -0.160D-03
Largest |displ|/coords:  0.1016 (  11)  0.0770 (   3)  0.0747 (  13)
................................................................................
.............................. CYCLE   56 ......................................
................................................................................
   1    -50.7347442 -0.507347E+02  0.128E-01    7.92       0.0  T
   2    -50.7347466 -0.238096E-05  0.958E-02    7.92       1.0  T
   3    -50.7347491 -0.248022E-05  0.121E-02    7.92       1.6  T
   4    -50.7347493 -0.178987E-06  0.361E-03    7.92       5.4  T
   5    -50.7347493 -0.159606E-07  0.104E-03    7.92      18.9  T
   6    -50.7347493 -0.128457E-08  0.670E-04    7.92      29.3  T
   7    -50.7347493 -0.662624E-09  0.151E-04    7.92     129.9  T
speedup  0.97
cpu  time for SCC    0.01 s
wall time for SCC    0.01 s
speedup  1.03
cpu  time for grad    0.01 s
wall time for grad    0.01 s
 E :    -50.44595841  G :  0.005221    pred/act E change: -0.133D-03 -0.129D-03
Maxdispl :   0.2133   ||displ|| :   0.4356   Lambda : -0.320D-03
Largest |displ|/coords:  0.2133 (   3)  0.1986 (  11)  0.1864 (  13)
................................................................................
.............................. CYCLE   57 ......................................
................................................................................
   1    -50.7320804 -0.507321E+02  0.307E-01    7.81       0.0  T
   2    -50.7320962 -0.157585E-04  0.229E-01    7.81       1.0  T
   3    -50.7321105 -0.142986E-04  0.319E-02    7.81       1.0  T
   4    -50.7321120 -0.152251E-05  0.118E-02    7.81       1.7  T
   5    -50.7321121 -0.121940E-06  0.259E-03    7.81       7.6  T
   6    -50.7321121 -0.800372E-08  0.171E-03    7.81      11.5  T
speedup  1.13
cpu  time for SCC    0.01 s
wall time for SCC    0.01 s
speedup  0.98
cpu  time for grad    0.01 s
wall time for grad    0.01 s
 E :    -50.44609606  G :  0.013880    pred/act E change: -0.826D-04 -0.138D-03
Maxdispl :   0.0400   ||displ|| :   0.0822   Lambda : -0.258D-03
Largest |displ|/coords:  0.0400 (   2)  0.0346 (   7)  0.0298 (   1)
................................................................................
.............................. CYCLE   58 ......................................
................................................................................
   1    -50.7339299 -0.507339E+02  0.535E-02    7.84       0.0  T
   2    -50.7339315 -0.154704E-05  0.392E-02    7.84       1.0  T
   3    -50.7339326 -0.114117E-05  0.806E-03    7.85       2.4  T
   4    -50.7339328 -0.151852E-06  0.291E-03    7.85       6.7  T
   5    -50.7339328 -0.115239E-07  0.750E-04    7.85      26.2  T
speedup  1.09
cpu  time for SCC    0.00 s
wall time for SCC    0.00 s
speedup  1.02
cpu  time for grad    0.01 s
wall time for grad    0.01 s
 E :    -50.44627049  G :  0.007028    pred/act E change: -0.191D-03 -0.174D-03
Maxdispl :   0.1473   ||displ|| :   0.3384   Lambda : -0.296D-03
Largest |displ|/coords:  0.1473 (   1)  0.1421 (   3)  0.1243 (   7)
................................................................................
.............................. CYCLE   59 ......................................
................................................................................
   1    -50.7338452 -0.507338E+02  0.209E-01    7.83       0.0  T
   2    -50.7338541 -0.888233E-05  0.153E-01    7.83       1.0  T
   3    -50.7338612 -0.708747E-05  0.262E-02    7.83       1.0  T
   4    -50.7338620 -0.866279E-06  0.101E-02    7.83       1.9  T
   5    -50.7338621 -0.898765E-07  0.175E-03    7.83      11.2  T
   6    -50.7338621 -0.349709E-08  0.122E-03    7.83      16.0  T
speedup  1.05
cpu  time for SCC    0.01 s
wall time for SCC    0.01 s
speedup  0.96
cpu  time for grad    0.01 s
wall time for grad    0.01 s
 E :    -50.44650341  G :  0.008572    pred/act E change: -0.130D-03 -0.233D-03
Maxdispl :   0.1880   ||displ|| :   0.4236   Lambda : -0.368D-03
Largest |displ|/coords:  0.1880 (   1)  0.1653 (   3)  0.1593 (   7)
................................................................................
.............................. CYCLE   60 ......................................
................................................................................
   1    -50.7328466 -0.507328E+02  0.254E-01    7.84       0.0  T
   2    -50.7328595 -0.129277E-04  0.186E-01    7.84       1.0  T
   3    -50.7328698 -0.102535E-04  0.311E-02    7.85       1.0  T
   4    -50.7328711 -0.131310E-05  0.118E-02    7.85       1.7  T
   5    -50.7328712 -0.138871E-06  0.242E-03    7.85       8.1  T
   6    -50.7328713 -0.613069E-08  0.169E-03    7.85      11.6  T
speedup  1.11
cpu  time for SCC    0.01 s
wall time for SCC    0.01 s
speedup  1.05
cpu  time for grad    0.01 s
wall time for grad    0.01 s
 E :    -50.44672455  G :  0.008801    pred/act E change: -0.165D-03 -0.221D-03
Maxdispl :   0.0856   ||displ|| :   0.1392   Lambda : -0.174D-03
Largest |displ|/coords:  0.0856 (   4)  0.0536 (  13)  0.0464 (   6)
................................................................................
.............................. CYCLE   61 ......................................
................................................................................
   1    -50.7348521 -0.507349E+02  0.580E-02    7.95       0.0  T
   2    -50.7348534 -0.130256E-05  0.436E-02    7.95       1.0  T
   3    -50.7348541 -0.670740E-06  0.628E-03    7.95       3.1  T
   4    -50.7348543 -0.209757E-06  0.278E-03    7.95       7.1  T
   5    -50.7348543 -0.152959E-07  0.667E-04    7.95      29.4  T
speedup  1.11
cpu  time for SCC    0.00 s
wall time for SCC    0.00 s
speedup  0.98
cpu  time for grad    0.01 s
wall time for grad    0.01 s
 E :    -50.44682752  G :  0.006959    pred/act E change: -0.217D-03 -0.103D-03
Maxdispl :   0.1719   ||displ|| :   0.3465   Lambda : -0.266D-03
Largest |displ|/coords:  0.1719 (   4)  0.1279 (   1)  0.1130 (   6)
................................................................................
.............................. CYCLE   62 ......................................
................................................................................
   1    -50.7327355 -0.507327E+02  0.206E-01    7.90       0.0  T
   2    -50.7327411 -0.554586E-05  0.153E-01    7.90       1.0  T
   3    -50.7327473 -0.624020E-05  0.212E-02    7.90       1.0  T
   4    -50.7327476 -0.316136E-06  0.395E-03    7.90       5.0  T
   5    -50.7327477 -0.285760E-07  0.182E-03    7.90      10.8  T
   6    -50.7327477 -0.385750E-08  0.911E-04    7.90      21.5  T
speedup  0.93
cpu  time for SCC    0.00 s
wall time for SCC    0.01 s
speedup  0.98
cpu  time for grad    0.01 s
wall time for grad    0.01 s
 E :    -50.44698208  G :  0.008585    pred/act E change: -0.888D-04 -0.155D-03
Maxdispl :   0.0815   ||displ|| :   0.1629   Lambda : -0.152D-03
Largest |displ|/coords:  0.0815 (   4)  0.0717 (   2)  0.0551 (  18)
................................................................................
.............................. CYCLE   63 ......................................
................................................................................
   1    -50.7336270 -0.507336E+02  0.712E-02    7.92       0.0  T
   2    -50.7336279 -0.938594E-06  0.532E-02    7.92       1.0  T
   3    -50.7336289 -0.947802E-06  0.595E-03    7.92       3.3  T
   4    -50.7336289 -0.767042E-07  0.241E-03    7.92       8.1  T
   5    -50.7336289 -0.648924E-08  0.633E-04    7.92      31.0  T
speedup  0.87
cpu  time for SCC    0.00 s
wall time for SCC    0.00 s
speedup  0.97
cpu  time for grad    0.01 s
wall time for grad    0.01 s
 E :    -50.44709281  G :  0.007207    pred/act E change: -0.149D-03 -0.111D-03
Maxdispl :   0.1924   ||displ|| :   0.3519   Lambda : -0.205D-03
Largest |displ|/coords:  0.1924 (   4)  0.1542 (   2)  0.1165 (   1)
................................................................................
.............................. CYCLE   64 ......................................
................................................................................
   1    -50.7330400 -0.507330E+02  0.169E-01    7.91       0.0  T
   2    -50.7330448 -0.479385E-05  0.126E-01    7.91       1.0  T
   3    -50.7330489 -0.405713E-05  0.153E-02    7.91       1.3  T
   4    -50.7330494 -0.540902E-06  0.552E-03    7.91       3.6  T
   5    -50.7330494 -0.251594E-07  0.138E-03    7.91      14.2  T
   6    -50.7330494 -0.153656E-08  0.833E-04    7.91      23.5  T
speedup  0.93
cpu  time for SCC    0.00 s
wall time for SCC    0.01 s
speedup  0.98
cpu  time for grad    0.01 s
wall time for grad    0.01 s
 E :    -50.44724410  G :  0.007105    pred/act E change: -0.779D-04 -0.151D-03
Maxdispl :   0.1883   ||displ|| :   0.3558   Lambda : -0.178D-03
Largest |displ|/coords:  0.1883 (   4)  0.1623 (   2)  0.1332 (   1)
................................................................................
.............................. CYCLE   65 ......................................
................................................................................
   1    -50.7333637 -0.507334E+02  0.154E-01    7.90       0.0  T
   2    -50.7333691 -0.542445E-05  0.115E-01    7.90       1.0  T
   3    -50.7333728 -0.368784E-05  0.166E-02    7.89       1.2  T
   4    -50.7333736 -0.747032E-06  0.497E-03    7.89       3.9  T
   5    -50.7333736 -0.254399E-07  0.141E-03    7.89      13.9  T
   6    -50.7333736 -0.162848E-08  0.747E-04    7.89      26.2  T
speedup  0.91
cpu  time for SCC    0.00 s
wall time for SCC    0.01 s
speedup  0.97
cpu  time for grad    0.01 s
wall time for grad    0.01 s
 E :    -50.44736408  G :  0.005590    pred/act E change: -0.115D-03 -0.120D-03
[...]
Maxdispl :   0.0288   ||displ|| :   0.0568   Lambda : -0.151D-05
Largest |displ|/coords:  0.0288 (   3)  0.0266 (   4)  0.0190 (   5)
................................................................................
.............................. CYCLE  157 ......................................
................................................................................
   1    -50.7346929 -0.507347E+02  0.396E-02    7.84       0.0  T
   2    -50.7346930 -0.116039E-06  0.298E-02    7.84       1.0  T
   3    -50.7346932 -0.152347E-06  0.200E-03    7.84       9.8  T
   4    -50.7346932 -0.431201E-08  0.682E-04    7.84      28.8  T
   5    -50.7346932 -0.556476E-09  0.293E-04    7.84      66.9  T
speedup  1.14
cpu  time for SCC    0.00 s
wall time for SCC    0.00 s
speedup  1.01
cpu  time for grad    0.01 s
wall time for grad    0.01 s
 E :    -50.44800262  G :  0.000675    pred/act E change: -0.689D-06 -0.743D-06
Maxdispl :   0.0085   ||displ|| :   0.0137   Lambda : -0.909D-06
Largest |displ|/coords:  0.0085 (   1)  0.0061 (   4)  0.0039 (   3)
................................................................................
.............................. CYCLE  158 ......................................
................................................................................
   1    -50.7347393 -0.507347E+02  0.764E-03    7.85       0.0  T
   2    -50.7347393 -0.769140E-08  0.570E-03    7.85       3.4  T
   3    -50.7347393 -0.668177E-08  0.588E-04    7.85      33.4  T
   4    -50.7347393 -0.865391E-09  0.195E-04    7.85     100.4  T
speedup  1.11
cpu  time for SCC    0.00 s
wall time for SCC    0.00 s
speedup  0.98
cpu  time for grad    0.01 s
wall time for grad    0.01 s
 E :    -50.44800330  G :  0.000393    pred/act E change: -0.759D-06 -0.677D-06
Maxdispl :   0.0169   ||displ|| :   0.0298   Lambda : -0.875D-06
Largest |displ|/coords:  0.0169 (   1)  0.0153 (   4)  0.0125 (   3)
................................................................................
.............................. CYCLE  159 ......................................
................................................................................
   1    -50.7347267 -0.507347E+02  0.188E-02    7.84       0.0  T
   2    -50.7347267 -0.249659E-07  0.141E-02    7.84       1.4  T
   3    -50.7347268 -0.323458E-07  0.852E-04    7.84      23.0  T
   4    -50.7347268 -0.103731E-08  0.311E-04    7.84      63.1  T
speedup  1.11
cpu  time for SCC    0.00 s
wall time for SCC    0.00 s
speedup  0.98
cpu  time for grad    0.01 s
wall time for grad    0.01 s
 E :    -50.44800390  G :  0.000306    pred/act E change: -0.454D-06 -0.605D-06
Maxdispl :   0.0142   ||displ|| :   0.0223   Lambda : -0.480D-06
Largest |displ|/coords:  0.0142 (   1)  0.0111 (   4)  0.0081 (   3)
................................................................................
.............................. CYCLE  160 ......................................
................................................................................
   1    -50.7347261 -0.507347E+02  0.132E-02    7.84       0.0  T
   2    -50.7347262 -0.135052E-07  0.991E-03    7.84       2.0  T
   3    -50.7347262 -0.170633E-07  0.659E-04    7.84      29.7  T
   4    -50.7347262 -0.638629E-09  0.247E-04    7.84      79.2  T
speedup  1.11
cpu  time for SCC    0.00 s
wall time for SCC    0.00 s
speedup  1.07
cpu  time for grad    0.01 s
wall time for grad    0.01 s
 E :    -50.44800429  G :  0.000265    pred/act E change: -0.438D-06 -0.388D-06
Maxdispl :   0.0251   ||displ|| :   0.0403   Lambda : -0.627D-06
Largest |displ|/coords:  0.0251 (   1)  0.0206 (   4)  0.0152 (   3)
................................................................................
.............................. CYCLE  161 ......................................
................................................................................
   1    -50.7346909 -0.507347E+02  0.242E-02    7.84       0.0  T
   2    -50.7346910 -0.469356E-07  0.182E-02    7.84       1.1  T
   3    -50.7346910 -0.585844E-07  0.124E-03    7.84      15.8  T
   4    -50.7346910 -0.274007E-08  0.493E-04    7.84      39.8  T
   5    -50.7346910 -0.277701E-09  0.172E-04    7.84     113.9  T
speedup  1.14
cpu  time for SCC    0.01 s
wall time for SCC    0.00 s
speedup  1.00
cpu  time for grad    0.01 s
wall time for grad    0.01 s
 E :    -50.44800474  G :  0.000187    pred/act E change: -0.240D-06 -0.448D-06
Maxdispl :   0.0107   ||displ|| :   0.0152   Lambda : -0.334D-06
Largest |displ|/coords:  0.0107 (   1)  0.0055 (   6)  0.0048 (   4)
................................................................................
.............................. CYCLE  162 ......................................
................................................................................
   1    -50.7347391 -0.507347E+02  0.764E-03    7.84       0.0  T
   2    -50.7347392 -0.102090E-07  0.562E-03    7.84       3.5  T
   3    -50.7347392 -0.853851E-08  0.709E-04    7.84      27.7  T
   4    -50.7347392 -0.965251E-09  0.220E-04    7.84      89.1  T
speedup  1.11
cpu  time for SCC    0.00 s
wall time for SCC    0.00 s
speedup  1.07
cpu  time for grad    0.01 s
wall time for grad    0.01 s
 E :    -50.44800494  G :  0.000238    pred/act E change: -0.314D-06 -0.207D-06
Maxdispl :   0.0171   ||displ|| :   0.0259   Lambda : -0.283D-06
Largest |displ|/coords:  0.0171 (   1)  0.0123 (   4)  0.0073 (   3)
................................................................................
.............................. CYCLE  163 ......................................
................................................................................
   1    -50.7347038 -0.507347E+02  0.148E-02    7.84       0.0  T
   2    -50.7347039 -0.207448E-07  0.112E-02    7.84       1.8  T
   3    -50.7347039 -0.225959E-07  0.834E-04    7.84      23.5  T
   4    -50.7347039 -0.195470E-08  0.332E-04    7.84      59.0  T
speedup  1.14
cpu  time for SCC    0.00 s
wall time for SCC    0.00 s
speedup  0.99
cpu  time for grad    0.01 s
wall time for grad    0.01 s
 E :    -50.44800512  G :  0.000215    pred/act E change: -0.167D-06 -0.176D-06
Maxdispl :   0.0048   ||displ|| :   0.0085   Lambda : -0.173D-06
Largest |displ|/coords:  0.0048 (   3)  0.0034 (   1)  0.0033 (   6)
................................................................................
.............................. CYCLE  164 ......................................
................................................................................
   1    -50.7347292 -0.507347E+02  0.461E-03    7.84       0.0  T
   2    -50.7347292 -0.401114E-08  0.340E-03    7.84       5.8  T
   3    -50.7347292 -0.368235E-08  0.378E-04    7.84      51.9  T
   4    -50.7347292 -0.297483E-09  0.145E-04    7.84     134.8  T
speedup  1.14
cpu  time for SCC    0.00 s
wall time for SCC    0.00 s
speedup  1.07
cpu  time for grad    0.01 s
wall time for grad    0.01 s
 E :    -50.44800525  G :  0.000179    pred/act E change: -0.142D-06 -0.131D-06
Maxdispl :   0.0152   ||displ|| :   0.0193   Lambda : -0.248D-06
Largest |displ|/coords:  0.0152 (   1)  0.0062 (   6)  0.0055 (   4)
................................................................................
.............................. CYCLE  165 ......................................
................................................................................
   1    -50.7347294 -0.507347E+02  0.845E-03    7.84       0.0  T
   2    -50.7347294 -0.124148E-07  0.629E-03    7.84       3.1  T
   3    -50.7347295 -0.114124E-07  0.686E-04    7.85      28.6  T
   4    -50.7347295 -0.118984E-08  0.281E-04    7.85      69.7  T
speedup  1.14
cpu  time for SCC    0.00 s
wall time for SCC    0.00 s
speedup  0.99
cpu  time for grad    0.01 s
wall time for grad    0.01 s
 E :    -50.44800541  G :  0.000171    pred/act E change: -0.864D-07 -0.161D-06
Maxdispl :   0.0042   ||displ|| :   0.0075   Lambda : -0.120D-06
Largest |displ|/coords:  0.0042 (   1)  0.0040 (   3)  0.0026 (   2)
................................................................................
.............................. CYCLE  166 ......................................
................................................................................
   1    -50.7347383 -0.507347E+02  0.315E-03    7.85       0.0  T
   2    -50.7347383 -0.234038E-08  0.233E-03    7.85       8.4  T
   3    -50.7347383 -0.166749E-08  0.368E-04    7.85      53.4  T
   4    -50.7347383 -0.293028E-09  0.137E-04    7.85     143.6  T
speedup  1.11
cpu  time for SCC    0.00 s
wall time for SCC    0.00 s
speedup  0.99
cpu  time for grad    0.01 s
wall time for grad    0.01 s
 E :    -50.44800550  G :  0.000147    pred/act E change: -0.124D-06 -0.915D-07
Maxdispl :   0.0125   ||displ|| :   0.0155   Lambda : -0.163D-06
Largest |displ|/coords:  0.0125 (   1)  0.0037 (   3)  0.0036 (   5)

   *** GEOMETRY OPTIMIZATION CONVERGED AFTER 166 ITERATIONS ***

------------------------------------------------------------------------
 total energy gain (kcal):     -0.0142
------------------------------------------------------------------------
================
 final structure:
================
$coord
        2.02530767959231       -0.71454505408972        2.44672435616800      S 
        0.33714075666440        1.24113349896296        3.32115838287932      O 
        2.63811448069502       -2.59318233068838        4.27563035420978      O 
        0.86514328618579       -2.01848883641941        0.09049956957107      O 
        4.36763647265584        0.57916763918834        1.33747236595294      O 
        4.73683666096124       -0.08665919506902       -0.44885805758256      H 
       -0.29720246233925       -3.41734293437465        0.86860316185018      H 
       -1.76332025056531       -5.00476742132705        2.57926599081908      O 
       -3.05996584144352       -3.70763885356798        3.06660254224523      H 
       -0.57147212239214       -5.08874984209151        3.95789348557803      H 
        4.85043560103434       -1.02954586691744       -3.14034361767673      O 
        3.57153228545249        0.09271188352123       -3.92120100717821      H 
        4.06346619741847       -2.66420619315708       -3.05075587043085      H 
        0.41047848857175        4.55035105097086       -0.39477902578783      O 
        1.76707227244827        5.66036069414771        0.06771539685678      H 
        0.24023658378082        3.36890031057423        1.02607339088149      H 
        1.25762022301126        2.07403877125824       -4.72545352828885      O 
        1.69556398721276        3.34082185225809       -5.94449435622653      H 
        0.84731793464119        2.97541902586352       -3.15013654653441      H 
       -4.37351988649969       -0.95826569762582        3.45793686746126      O 
       -2.93689925831469        0.06418879173252        3.94779731313966      H 
       -4.74015953293235       -0.40267312804910        1.71953938903718      H 
       -4.17733129846661        0.74475691488070       -1.40197948510403      N 
       -3.67495619741923        2.58383928111173       -1.22329165704380      H 
       -5.46810034236296        0.62166161134010       -2.80819437773956      H 
       -2.61097571764603       -0.21128593467073       -1.95342501815447      H 
$end
 
 Bond Distances (Angstroems)
 ---------------------------
S1-O2=1.4433         S1-O3=1.4248         S1-O4=1.5517         S1-O5=1.5328         O2-S1=1.4433         O3-S1=1.4248         
O4-S1=1.5517         O4-H7=1.0468         O5-S1=1.5328         O5-H6=1.0276         H6-O5=1.0276         H7-O4=1.0468         
O8-H9=1.0042         O8-H10=0.9654        H9-O8=1.0042         H10-O8=0.9654        O11-H12=0.9907       O11-H13=0.9612       
H12-O11=0.9907       H13-O11=0.9612       O14-H15=0.9593       O14-H16=0.9820       H15-O14=0.9593       H16-O14=0.9820       
O17-H18=0.9588       O17-H19=0.9847       H18-O17=0.9588       H19-O17=0.9847       O20-H21=0.9684       O20-H22=0.9851       
H21-O20=0.9684       H22-O20=0.9851       N23-H24=1.0133       N23-H25=1.0122       N23-H26=1.0140       H24-N23=1.0133       
H25-N23=1.0122       H26-N23=1.0140       
 N  H  Rav=1.0131 sigma=0.0007  Rmin=1.0122  Rmax=1.0140     3
 O  H  Rav=0.9862 sigma=0.0268  Rmin=0.9588  Rmax=1.0468    12
 S  O  Rav=1.4882 sigma=0.0549  Rmin=1.4248  Rmax=1.5517     4
 
 selected bond angles (degree)
 --------------------
O3-S1-O2=115.05                O4-S1-O2=109.36                O4-S1-O3=109.00                O5-S1-O2=107.64                
O5-S1-O3=112.81                O5-S1-O4=102.17                H7-O4-S1=103.35                H6-O5-S1=110.66                
H10-O8-H9=106.49               
 
 selected dihedral angles (degree)
 ---------------------------------
H7-O4-S1-O2=273.70            H7-O4-S1-O3= 40.26            H7-O4-S1-O5=159.85            H6-O5-S1-O2=231.79            
H6-O5-S1-O3=103.79            H6-O5-S1-O4=346.91            
 
 CMA Distance (Angstroems)
 ---------------------------
R(CMA):  2.1091

========================================================================
 FINAL SINGLEPOINT CALCULATION ON OPTIMIZED GEOMETRY
========================================================================

 Ncao       : 65
 Nao        : 64
 Nshell     : 38
 Nel        : 80
 T(el)      :   300.0
 intcut     :    25.0
 scfconv/Eh :  0.100E-05
   qconv/e  :  0.100E-03
 intneglect :  0.100E-07
 broydamp   :      0.250
 iter      E             dE          RMSdq      gap      omega  full diag
   1    -50.7347383 -0.507347E+02  0.479E-05    7.85       0.0  T
   2    -50.7347383 -0.126477E-11  0.305E-05    7.85     642.8  T
   3    -50.7347383 -0.738964E-12  0.537E-06    7.85    3650.8  T
speedup  0.74
cpu  time for SCC    0.00 s
wall time for SCC    0.00 s

   *** convergence criteria satisfied after 3 iterations ***

          eigenvalues
 #    :          28         29         30         31         32         33         34         35
 occ. :        2.000      2.000      2.000      2.000      2.000      2.000      2.000      2.000
 eps  :       -13.708    -13.659    -13.174    -12.998    -12.855    -12.686    -12.589    -12.576
 #    :          36         37         38         39         40         41         42         43
 occ. :        2.000      2.000      2.000      2.000      2.000      0.000      0.000      0.000
 eps  :       -12.473    -12.453    -12.326    -11.746    -10.970     -3.123     -1.247     -0.197
 #    :          44         45         46         47         48         49         50         51
 occ. :        0.000      0.000      0.000      0.000      0.000      0.000      0.000      0.000
 eps  :         0.035      0.954      1.114      1.627      2.547      3.525      4.231      5.206


   #   Z            q   n(s)   n(p)   n(d)      C6AA      α(0)
   1  16 S      1.729  1.582  1.761  0.929    88.124    15.800
   2   8 O     -0.718  1.765  4.953  0.000    29.207     7.246
   3   8 O     -0.693  1.761  4.931  0.000    28.508     7.159
   4   8 O     -0.661  1.765  4.895  0.000    26.665     6.971
   5   8 O     -0.623  1.752  4.871  0.000    25.713     6.845
   6   1 H      0.399  0.601  0.000  0.000     0.484     1.091
   7   1 H      0.390  0.610  0.000  0.000     0.497     1.104
   8   8 O     -0.602  1.756  4.846  0.000    25.224     6.780
   9   1 H      0.350  0.650  0.000  0.000     0.590     1.207
  10   1 H      0.314  0.686  0.000  0.000     0.680     1.296
  11   8 O     -0.593  1.754  4.839  0.000    25.016     6.751
  12   1 H      0.347  0.653  0.000  0.000     0.597     1.214
  13   1 H      0.307  0.693  0.000  0.000     0.699     1.313
  14   8 O     -0.619  1.741  4.877  0.000    25.635     6.833
  15   1 H      0.292  0.708  0.000  0.000     0.745     1.356
  16   1 H      0.326  0.674  0.000  0.000     0.648     1.265
  17   8 O     -0.614  1.749  4.865  0.000    25.518     6.818
  18   1 H      0.288  0.712  0.000  0.000     0.759     1.368
  19   1 H      0.333  0.667  0.000  0.000     0.630     1.247
  20   8 O     -0.619  1.752  4.867  0.000    25.644     6.835
  21   1 H      0.304  0.696  0.000  0.000     0.708     1.322
  22   1 H      0.318  0.682  0.000  0.000     0.668     1.284
  23   7 N     -0.453  1.375  4.078  0.000    31.902     8.388
  24   1 H      0.171  0.829  0.000  0.000     1.267     1.763
  25   1 H      0.154  0.846  0.000  0.000     1.376     1.837
  26   1 H      0.173  0.827  0.000  0.000     1.253     1.753

 Mol. C6AA /au·bohr⁶  :       5459.604809
 Mol. C8AA /au·bohr⁸  :     117783.839704
 Mol. α(0) /au        :        106.846071

 
 Wiberg/Mayer (AO) data. WBOs > 0.1 written file <wbo>
 largest (>0.05) Wiberg bond orders for each atom
           total WBO             WBO to atom ...
     1  S   4.800    O    3 1.431    O    2 1.332    O    5 1.023    O    4 0.975
     2  O   1.756    S    1 1.332    O    3 0.122    O    4 0.088    O    5 0.078    H   16 0.064
     3  O   1.758    S    1 1.431    O    2 0.122    O    4 0.094    O    5 0.088
     4  O   1.927    S    1 0.975    H    7 0.630    O    3 0.094    O    2 0.088    O    8 0.064    O    5 0.059
     5  O   1.964    S    1 1.023    H    6 0.655    O    3 0.088    O    2 0.078    O    4 0.059    O   11 0.051
     6  H   0.841    O    5 0.655    O   11 0.167
     7  H   0.848    O    4 0.630    O    8 0.200
     8  O   1.986    H   10 0.889    H    9 0.775    H    7 0.200    O    4 0.064
     9  H   0.878    O    8 0.775    O   20 0.101
    10  H   0.901    O    8 0.889
    11  O   1.969    H   13 0.900    H   12 0.801    H    6 0.167    O    5 0.051
    12  H   0.880    O   11 0.801    O   17 0.077
    13  H   0.906    O   11 0.900
    14  O   1.867    H   15 0.910    H   16 0.825    H   19 0.067
    15  H   0.915    O   14 0.910
    16  H   0.894    O   14 0.825    O    2 0.064
    17  O   1.880    H   18 0.914    H   19 0.819    H   12 0.077
    18  H   0.917    O   17 0.914
    19  H   0.889    O   17 0.819    O   14 0.067
    20  O   1.904    H   21 0.877    H   22 0.829    H    9 0.101
    21  H   0.907    O   20 0.877
    22  H   0.899    O   20 0.829    N   23 0.067
    23  N   3.010    H   25 0.973    H   24 0.965    H   26 0.962    H   22 0.067
    24  H   0.971    N   23 0.965
    25  H   0.976    N   23 0.973
    26  H   0.970    N   23 0.962
 MOs/occ written to file <molden.input>
 
molecular dipole:
                 x           y           z       tot (Debye)
 q only:       -0.052       0.486      -1.521
   full:        0.276       0.993      -1.764       5.193
molecular quadrupole (traceless):
                xx          xy          yy          xz          yz          zz
 q only:       -2.855       1.910       5.391      -1.345      -1.051      -2.537
  q+dip:       -7.063       0.745       7.270       2.235      -1.524      -0.207
   full:       -7.126       1.278       7.345       2.428      -1.496      -0.220

SCC energy    :     -50.7347383
rep           :       0.2863726
ES            :       0.2307587
AES           :      -0.0528494
AXC           :      -0.0069130
disp          :      -0.0198122
XB            :       0.0000000
fix           :       0.0000000
total E       :     -50.4480055
atomizationE  :       4.9783097     3123.94
(atE without considering molecular charge,
 total energy contains solvation terms)
H-L gap (eV)  :          7.8465
optimized geometry written to: xtbopt.xyz


------------------------------------------------------------------------
 * finished run on 2019/09/16 at 11:23:13.678     
------------------------------------------------------------------------
 total:
 * wall-time:     0 d,  0 h,  0 min,  3.612 sec
 *  cpu-time:     0 d,  0 h,  0 min,  3.490 sec
 * ratio c/w:     0.966 speedup
 SCF:
 * wall-time:     0 d,  0 h,  0 min,  0.215 sec
 *  cpu-time:     0 d,  0 h,  0 min,  0.151 sec
 * ratio c/w:     0.704 speedup
 ANC optimizer:
 * wall-time:     0 d,  0 h,  0 min,  3.368 sec
 *  cpu-time:     0 d,  0 h,  0 min,  3.316 sec
 * ratio c/w:     0.985 speedup

