      -----------------------------------------------------------      
     |                   =====================                   |     
     |                           x T B                           |     
     |                   =====================                   |     
     |                         S. Grimme                         |     
     |          Mulliken Center for Theoretical Chemistry        |     
     |                    University of Bonn                     |     
     |                 Version 6.0.1 (SAW181210)                 |     
      -----------------------------------------------------------      

   This program is distributed in the hope that it will be useful,
   but WITHOUT ANY WARRANTY; without even the implied warranty of
   MERCHANTABILITY or FITNESS FOR A PARTICULAR PURPOSE.
   
   FOR NON-COMMERCIAL, ACADEMIA USE ONLY.
   
   Cite this work as:
   S. Grimme, C. Bannwarth, P. Shushkov, J. Comput. Theory Chem., 2017,
   13, 1989-2009.
   C. Bannwarth, S. Ehlert and S. Grimme., ChemRxiv, 2018, preprint.
   http://doi.org/10.26434/chemrxiv.7246238.v1
   
   for sTDA-xTB:
   S. Grimme and C. Bannwarth, J. Chem. Phys., 2016, 145, 054103.
   
   in the mass-spec context:
   V. Asgeirsson, C. Bauer and S. Grimme, Chem. Sci., 2017, 8, 4879.
   
   if GBSA is used:
   P. Shushkov, F. März and S. Grimme, unpublished.
   
   for ANC optimizer:
   S. Grimme, unpublished.
   Rational Function algorithm used in ANCopt:
   F. Eckert, P. Pulay, H.-J. Werner, J. Comput. Chem., 1997, 18, 1473.
   
   with help from (in alphabetical order)
   C. Bannwarth, F. Bohle, G. Brandenburg, E. Caldeweyher, M. Checinski,
   S. Dohm, S. Ehlert, S. Ehrlich, F. März, H. Neugebauer, J. Pisarek,
   P. Pracht, P. Shushkov, and S. Spicher.
   
 * started run on 2019/09/16 at 11:39:51.707     
========================================================================
 # omp threads = 1
========================================================================
number of atoms            : 26
number of electrons        : 80
charge                     : 0
spin                       : .0
first test random number   : .1086

########################################################################
# WARNING! Please study the warnings concerning your input carefully
#  - XTBPATH is not set, using XTBHOME instead
#  - the use of '-opt' is discouraged, please use '--opt' next time
#  - the use of '-chrg' is discouraged, please use '--chrg' next time
#  - the use of '-uhf' is discouraged, please use '--uhf' next time
########################################################################

           ------------------------------------------------- 
          |                 G F N 2 - x T B                 |
          | Geometry, Frequencies, Noncovalent interactions |
          |            JCTC 2018 parametrisation            |
           ------------------------------------------------- 
      method parameters     
 k(s)        :  1.8500
 k(p)        :  2.2300
 k(d)        :  2.2300
 k(f)        :  2.0000
 kEN (H0ij)  : -2.0000
 D4 a1       :  0.5200
 D4 a2       :  5.0000
 D4 s6       :  1.0000
 D4 s8       :  2.7000
 D4 s9       :  5.0000
 alphaj      :  2.0000


            Z     q(EN)     CN     RAES       Cart. coordinates
     1  S   6.0    0.58    4.27    4.18     1.45211     3.85175    -2.29887
     2  O   6.0   -0.32    1.13    1.80     1.64009     1.14104    -2.74399
     3  O   6.0   -0.27    1.09    1.80     1.20225     5.67261    -4.31373
     4  O   6.0   -0.24    2.04    1.83    -0.78021     4.27032    -0.20436
     5  O   6.0   -0.23    2.05    1.83     3.78556     4.82125    -0.60099
     6  H   1.0    0.16    1.19    1.46     4.13931     3.58075     0.71140
     7  H   1.0    0.16    1.19    1.46    -2.03146     2.94767    -0.47142
     8  O   6.0   -0.30    2.04    1.83     0.11238    -1.47685     3.47418
     9  H   1.0    0.16    1.03    1.43    -1.30151    -0.55580     4.15770
    10  H   1.0    0.16    1.02    1.43    -0.58743    -2.53178     2.16575
    11  O   6.0   -0.29    2.00    1.83    -4.01186     1.37455     4.18425
    12  H   1.0    0.16    1.02    1.43    -4.47335     1.25678     2.42705
    13  H   1.0    0.15    0.97    1.43    -4.06143     3.15160     4.57699
    14  O   6.0   -0.31    2.08    1.84    -4.19054     0.60642    -0.94240
    15  H   1.0    0.15    0.97    1.43    -5.59177     0.40712    -2.08759
    16  H   1.0    0.16    1.04    1.43    -3.42339    -1.04077    -0.82900
    17  O   6.0   -0.29    2.04    1.83     4.26425     1.23491     2.84967
    18  H   1.0    0.17    1.05    1.44     2.79526     0.18547     3.08498
    19  H   1.0    0.15    0.97    1.43     5.40538     0.77361     4.19117
    20  O   6.0   -0.32    2.08    1.84    -2.03856    -3.95775    -0.53864
    21  H   1.0    0.15    1.06    1.44    -0.56621    -4.03407    -1.60681
    22  H   1.0    0.14    0.97    1.43    -2.59027    -5.68303    -0.35525
    23  N   5.0   -0.23    3.02    1.93     2.26357    -4.25364    -3.48126
    24  H   1.0    0.11    0.99    1.43     3.92319    -4.79068    -2.66375
    25  H   1.0    0.13    1.02    1.43     2.19917    -2.33484    -3.32274
    26  H   1.0    0.11    0.99    1.43     2.46548    -4.61666    -5.36235

  Z AO/shell   Hii/eV     exponent
  1     Wed Apr 25 08:07:45 CEST 2018   EN: 2.200 GM2: 0.406  GM3: 0.0800  RAES: 1.40
     1s    -10.707211    1.230000
  7     Wed Apr 25 08:07:45 CEST 2018   EN: 3.040 GM2: 0.461  GM3:-0.0640  RAES: 1.90
     2s    -16.686243    2.339881
     2p    -12.523956    2.014332
  8     Wed Apr 25 08:07:45 CEST 2018   EN: 3.440 GM2: 0.452  GM3:-0.0517  RAES: 1.80
     2s    -20.229985    2.439742
     2p    -15.503117    2.137023
 16     Tue Apr 24 11:44:34 CEST 2018   EN: 2.580 GM2: 0.340  GM3:-0.0502  RAES: 3.10
     3s    -20.029654    1.981333
     3p    -11.377694    2.025643
     3d     -0.420282    1.702555
 no old-style atom pair restraining (fixing) potential

molecular fragmentation (1/2 indicates fragments):
11111112222222222222222222
# atoms in fragment 1/2:     7    19
 fragment masses (1/2) :       98.07      107.11
CMA distance (Bohr)    :   6.172
constraining FC (au)   :  0.0500
           ------------------------------------------------- 
          |        Self-Consistent Charge Iterations        |
           ------------------------------------------------- 

 Ncao       : 65
 Nao        : 64
 Nshell     : 38
 Nel        : 80
 T(el)      :   300.0
 intcut     :    25.0
 scfconv/Eh :  0.100E-05
   qconv/e  :  0.100E-03
 intneglect :  0.100E-07
 broydamp   :      0.250
 iter      E             dE          RMSdq      gap      omega  full diag
   1    -50.6308087 -0.506308E+02  0.706E+00    7.94       0.0  T
   2    -50.6797805 -0.489718E-01  0.494E+00    7.37       1.0  T
   3    -50.7167743 -0.369938E-01  0.118E+00    6.46       1.0  T
   4    -50.7205485 -0.377422E-02  0.600E-01    6.67       1.0  T
   5    -50.7216898 -0.114127E-02  0.259E-01    6.68       1.0  T
   6    -50.7219998 -0.310041E-03  0.152E-01    6.62       1.0  T
   7    -50.7221317 -0.131924E-03  0.531E-02    6.59       1.0  T
   8    -50.7221499 -0.181849E-04  0.228E-02    6.61       1.0  T
   9    -50.7221526 -0.269301E-05  0.113E-02    6.61       1.7  T
  10    -50.7221532 -0.640449E-06  0.260E-03    6.61       7.6  T
  11    -50.7221533 -0.197520E-07  0.122E-03    6.61      16.1  T
  12    -50.7221533 -0.689197E-08  0.332E-04    6.61      59.2  T
  13    -50.7221533 -0.436131E-09  0.175E-04    6.61     112.1  T
speedup  0.97
cpu  time for SCC    0.01 s
wall time for SCC    0.02 s

   *** convergence criteria satisfied after 13 iterations ***

          eigenvalues
 #    :          28         29         30         31         32         33         34         35
 occ. :        2.000      2.000      2.000      2.000      2.000      2.000      2.000      2.000
 eps  :       -13.230    -13.061    -12.835    -12.708    -12.535    -12.386    -12.368    -12.202
 #    :          36         37         38         39         40         41         42         43
 occ. :        2.000      2.000      2.000      2.000      2.000      0.000      0.000      0.000
 eps  :       -12.007    -11.963    -11.773    -11.413    -11.084     -4.470     -1.765     -0.909
 #    :          44         45         46         47         48         49         50         51
 occ. :        0.000      0.000      0.000      0.000      0.000      0.000      0.000      0.000
 eps  :        -0.111      0.789      1.500      1.886      2.592      3.145      4.536      5.169


   #   Z            q   n(s)   n(p)   n(d)      C6AA      α(0)
   1  16 S      1.614  1.631  1.820  0.935    90.743    16.033
   2   8 O     -0.667  1.767  4.901  0.000    27.828     7.073
   3   8 O     -0.616  1.769  4.847  0.000    26.518     6.904
   4   8 O     -0.594  1.762  4.833  0.000    25.023     6.753
   5   8 O     -0.572  1.754  4.819  0.000    24.505     6.683
   6   1 H      0.388  0.612  0.000  0.000     0.505     1.115
   7   1 H      0.375  0.625  0.000  0.000     0.530     1.143
   8   8 O     -0.645  1.750  4.895  0.000    26.278     6.919
   9   1 H      0.320  0.680  0.000  0.000     0.663     1.279
  10   1 H      0.309  0.691  0.000  0.000     0.694     1.308
  11   8 O     -0.600  1.744  4.856  0.000    25.177     6.772
  12   1 H      0.317  0.683  0.000  0.000     0.671     1.287
  13   1 H      0.288  0.712  0.000  0.000     0.757     1.367
  14   8 O     -0.617  1.743  4.874  0.000    25.601     6.829
  15   1 H      0.298  0.702  0.000  0.000     0.728     1.340
  16   1 H      0.350  0.650  0.000  0.000     0.588     1.205
  17   8 O     -0.629  1.744  4.885  0.000    25.893     6.868
  18   1 H      0.342  0.658  0.000  0.000     0.608     1.225
  19   1 H      0.286  0.714  0.000  0.000     0.764     1.373
  20   8 O     -0.609  1.735  4.874  0.000    25.401     6.802
  21   1 H      0.335  0.665  0.000  0.000     0.624     1.241
  22   1 H      0.293  0.707  0.000  0.000     0.742     1.353
  23   7 N     -0.463  1.392  4.071  0.000    32.206     8.428
  24   1 H      0.151  0.849  0.000  0.000     1.396     1.851
  25   1 H      0.198  0.802  0.000  0.000     1.114     1.654
  26   1 H      0.147  0.853  0.000  0.000     1.422     1.868

 Mol. C6AA /au·bohr⁶  :       5431.507412
 Mol. C8AA /au·bohr⁸  :     117356.504605
 Mol. α(0) /au        :        106.670864

 
 Wiberg/Mayer (AO) data. WBOs > 0.1 written file <wbo>
 largest (>0.05) Wiberg bond orders for each atom
           total WBO             WBO to atom ...
     1  S   4.801    O    3 1.490    O    2 1.397    O    5 0.974    O    4 0.913
     2  O   1.763    S    1 1.397    O    3 0.142    O    4 0.097    O    5 0.096
     3  O   1.822    S    1 1.490    O    2 0.142    O    4 0.096    O    5 0.083
     4  O   1.973    S    1 0.913    H    7 0.781    O    2 0.097    O    3 0.096    O    5 0.055
     5  O   2.011    S    1 0.974    H    6 0.768    O    2 0.096    O    3 0.083    O    4 0.055
     6  H   0.849    O    5 0.768    O   17 0.063
     7  H   0.859    O    4 0.781    O   14 0.058
     8  O   1.845    H   10 0.858    H    9 0.850    H   18 0.062
     9  H   0.897    O    8 0.850
    10  H   0.904    O    8 0.858
    11  O   1.860    H   13 0.912    H   12 0.860
    12  H   0.899    O   11 0.860
    13  H   0.917    O   11 0.912
    14  O   1.884    H   15 0.901    H   16 0.823    H    7 0.058
    15  H   0.911    O   14 0.901
    16  H   0.878    O   14 0.823
    17  O   1.842    H   19 0.910    H   18 0.817    H    6 0.063
    18  H   0.883    O   17 0.817    O    8 0.062
    19  H   0.918    O   17 0.910
    20  O   1.888    H   22 0.904    H   21 0.824
    21  H   0.888    O   20 0.824    N   23 0.057
    22  H   0.914    O   20 0.904
    23  N   2.981    H   24 0.974    H   26 0.973    H   25 0.933    H   21 0.057
    24  H   0.977    N   23 0.974
    25  H   0.961    N   23 0.933
    26  H   0.978    N   23 0.973
 MOs/occ written to file <molden.input>
 
molecular dipole:
                 x           y           z       tot (Debye)
 q only:       -1.029      -1.978       0.265
   full:       -1.046      -2.297       0.027       6.415
molecular quadrupole (traceless):
                xx          xy          yy          xz          yz          zz
 q only:       11.046      -5.181      -6.356       7.206      13.634      -4.690
  q+dip:       13.890      -7.888      -8.541       7.691      16.772      -5.349
   full:       14.126      -7.795      -8.686       8.088      17.032      -5.440

SCC energy    :     -50.7221533
rep           :       0.2983168
ES            :       0.2339567
AES           :      -0.0380724
AXC           :      -0.0039091
disp          :      -0.0168834
XB            :       0.0000000
fix           :       0.0000000
total E       :     -50.4234108
atomizationE  :       4.9537150     3108.50
(atE without considering molecular charge,
 total energy contains solvation terms)
H-L gap (eV)  :          6.6134
           ------------------------------------------------- 
          |                 ===============                 |
          |                   A N C O P T                   |
          |                 ===============                 |
          |          Approximate Normal Coordinate          |
          |           Rational Function Optimizer           |
           ------------------------------------------------- 
dumping coords to <xtbopt.coord> and <xtbopt.log>
 optlevel               2
 Maxcycle             520
 Maxmicro              25
 Econv         1.000000000000000E-007
 Gconv         2.000000000000000E-004
 Maxdispl       1.00000000000000     
 Hlow          5.000000000000000E-003
 S6             20.0000000000000     
 Nvar               72

generating ANC from model Hessian ...
 Shifting diagonal of input Hessian by   5.037846142930478E-003
 Lowest  eigenvalues of input Hessian
    0.005000    0.005017   -0.000000   -0.000000   -0.000000   -0.000000
    0.000000    0.000000    0.005081    0.005314    0.005408    0.005885
    0.006015    0.006165    0.006330    0.006589    0.007018    0.007472
 Highest eigenvalues
    1.424595    1.426749    1.427607    1.950312    2.766286    3.589571
 
cpu  time for ANC gen    0.01 s
wall time for ANC gen    0.01 s
................................................................................
.............................. CYCLE    1 ......................................
................................................................................
   1    -50.7221533 -0.507222E+02  0.482E-05    6.61       0.0  T
   2    -50.7221533 -0.316192E-11  0.382E-05    6.61     514.0  T
   3    -50.7221533 -0.363798E-11  0.168E-05    6.61    1164.0  T
speedup  1.11
cpu  time for SCC    0.00 s
wall time for SCC    0.00 s
speedup  1.00
cpu  time for grad    0.01 s
wall time for grad    0.01 s
 E :    -50.42341082  G :  0.085037    pred/act E change:  0.000D+00  0.243D-07
Maxdispl :   0.1335   ||displ|| :   0.3280   Lambda : -0.104D-01
Largest |displ|/coords:  0.1335 (  33)  0.1217 (  27)  0.1205 (  32)
................................................................................
.............................. CYCLE    2 ......................................
................................................................................
   1    -50.7252554 -0.507253E+02  0.457E-01    7.18       0.0  T
   2    -50.7253403 -0.848440E-04  0.343E-01    7.17       1.0  T
   3    -50.7253933 -0.530368E-04  0.557E-02    7.15       1.0  T
   4    -50.7254045 -0.112276E-04  0.301E-02    7.15       1.0  T
   5    -50.7254054 -0.884320E-06  0.486E-03    7.15       4.0  T
   6    -50.7254055 -0.352503E-07  0.294E-03    7.15       6.7  T
speedup  1.13
cpu  time for SCC    0.01 s
wall time for SCC    0.01 s
speedup  1.02
cpu  time for grad    0.01 s
wall time for grad    0.01 s
 E :    -50.43084356  G :  0.053386    pred/act E change:  0.000D+00 -0.743D-02
Maxdispl :   0.0874   ||displ|| :   0.2368   Lambda : -0.424D-02
Largest |displ|/coords:  0.0874 (  16)  0.0834 (  30)  0.0729 (  27)
................................................................................
.............................. CYCLE    3 ......................................
................................................................................
   1    -50.7326354 -0.507326E+02  0.270E-01    7.74       0.0  T
   2    -50.7326668 -0.313099E-04  0.201E-01    7.74       1.0  T
   3    -50.7326842 -0.174845E-04  0.326E-02    7.75       1.0  T
   4    -50.7326884 -0.419842E-05  0.192E-02    7.75       1.0  T
   5    -50.7326888 -0.321853E-06  0.297E-03    7.75       6.6  T
   6    -50.7326888 -0.106545E-07  0.201E-03    7.75       9.8  T
speedup  0.93
cpu  time for SCC    0.00 s
wall time for SCC    0.01 s
speedup  1.01
cpu  time for grad    0.01 s
wall time for grad    0.01 s
 E :    -50.43414919  G :  0.035660    pred/act E change: -0.573D-02 -0.331D-02
Maxdispl :   0.1321   ||displ|| :   0.3615   Lambda : -0.402D-02
Largest |displ|/coords:  0.1321 (  27)  0.1058 (   5)  0.0951 (  30)
................................................................................
.............................. CYCLE    4 ......................................
................................................................................
   1    -50.7406349 -0.507406E+02  0.335E-01    8.57       0.0  T
   2    -50.7407200 -0.850653E-04  0.251E-01    8.58       1.0  T
   3    -50.7407552 -0.352201E-04  0.495E-02    8.61       1.0  T
   4    -50.7407670 -0.118079E-04  0.249E-02    8.61       1.0  T
   5    -50.7407677 -0.711664E-06  0.411E-03    8.61       4.8  T
   6    -50.7407677 -0.320782E-07  0.265E-03    8.61       7.4  T
speedup  1.11
cpu  time for SCC    0.01 s
wall time for SCC    0.01 s
speedup  1.00
cpu  time for grad    0.01 s
wall time for grad    0.01 s
 E :    -50.43619466  G :  0.022893    pred/act E change: -0.224D-02 -0.205D-02
Maxdispl :   0.1524   ||displ|| :   0.3773   Lambda : -0.169D-02
Largest |displ|/coords:  0.1524 (   7)  0.1386 (  16)  0.1318 (   5)
................................................................................
.............................. CYCLE    5 ......................................
................................................................................
   1    -50.7313695 -0.507314E+02  0.488E-01    8.68       0.0  T
   2    -50.7314638 -0.943675E-04  0.364E-01    8.69       1.0  T
   3    -50.7315271 -0.632231E-04  0.572E-02    8.70       1.0  T
   4    -50.7315395 -0.124607E-04  0.146E-02    8.70       1.3  T
   5    -50.7315398 -0.231159E-06  0.622E-03    8.70       3.2  T
   6    -50.7315398 -0.706177E-07  0.303E-03    8.70       6.5  T
   7    -50.7315398 -0.192500E-07  0.111E-03    8.70      17.6  T
speedup  1.15
cpu  time for SCC    0.01 s
wall time for SCC    0.01 s
speedup  1.02
cpu  time for grad    0.01 s
wall time for grad    0.01 s
 E :    -50.43562171  G :  0.051084    pred/act E change: -0.227D-02  0.573D-03
Maxdispl :   0.2068   ||displ|| :   0.4386   Lambda : -0.853D-02
Largest |displ|/coords:  0.2068 (   7)  0.1504 (  16)  0.1424 (   8)
................................................................................
.............................. CYCLE    6 ......................................
................................................................................
   1    -50.7411888 -0.507412E+02  0.700E-01    8.44       0.0  T
   2    -50.7414195 -0.230631E-03  0.527E-01    8.44       1.0  T
   3    -50.7415737 -0.154219E-03  0.900E-02    8.45       1.0  T
   4    -50.7416053 -0.315590E-04  0.219E-02    8.45       1.0  T
   5    -50.7416064 -0.114911E-05  0.931E-03    8.45       2.1  T
   6    -50.7416064 -0.323527E-07  0.458E-03    8.45       4.3  T
   7    -50.7416065 -0.436055E-07  0.110E-03    8.45      17.8  T
speedup  0.98
cpu  time for SCC    0.01 s
wall time for SCC    0.01 s
speedup  0.96
cpu  time for grad    0.01 s
wall time for grad    0.01 s
 E :    -50.43582273  G :  0.037813    pred/act E change: -0.966D-03 -0.201D-03
Maxdispl :   0.0705   ||displ|| :   0.1995   Lambda : -0.154D-02
Largest |displ|/coords:  0.0705 (  11)  0.0687 (   1)  0.0674 (  25)
................................................................................
.............................. CYCLE    7 ......................................
................................................................................
   1    -50.7393899 -0.507394E+02  0.190E-01    8.49       0.0  T
   2    -50.7393989 -0.902256E-05  0.142E-01    8.49       1.0  T
   3    -50.7394063 -0.741789E-05  0.206E-02    8.49       1.0  T
   4    -50.7394073 -0.930600E-06  0.596E-03    8.49       3.3  T
   5    -50.7394073 -0.510125E-07  0.205E-03    8.49       9.6  T
speedup  1.11
cpu  time for SCC    0.00 s
wall time for SCC    0.00 s
speedup  1.07
cpu  time for grad    0.01 s
wall time for grad    0.01 s
 E :    -50.43690405  G :  0.021538    pred/act E change: -0.508D-02 -0.108D-02
Maxdispl :   0.1286   ||displ|| :   0.3343   Lambda : -0.158D-02
Largest |displ|/coords:  0.1286 (   4)  0.1080 (   1)  0.1046 (  17)
................................................................................
.............................. CYCLE    8 ......................................
................................................................................
   1    -50.7342833 -0.507343E+02  0.312E-01    8.56       0.0  T
   2    -50.7343164 -0.331275E-04  0.232E-01    8.57       1.0  T
   3    -50.7343432 -0.267964E-04  0.371E-02    8.59       1.0  T
   4    -50.7343466 -0.343732E-05  0.109E-02    8.58       1.8  T
   5    -50.7343468 -0.144598E-06  0.383E-03    8.58       5.1  T
   6    -50.7343468 -0.223682E-07  0.202E-03    8.59       9.7  T
speedup  0.94
cpu  time for SCC    0.00 s
wall time for SCC    0.01 s
speedup  1.01
cpu  time for grad    0.01 s
wall time for grad    0.01 s
 E :    -50.43740439  G :  0.019420    pred/act E change: -0.802D-03 -0.500D-03
Maxdispl :   0.1373   ||displ|| :   0.2463   Lambda : -0.975D-03
Largest |displ|/coords:  0.1373 (   5)  0.1094 (   6)  0.0717 (   3)
................................................................................
.............................. CYCLE    9 ......................................
................................................................................
   1    -50.7303508 -0.507304E+02  0.203E-01    8.51       0.0  T
   2    -50.7303667 -0.159220E-04  0.153E-01    8.50       1.0  T
   3    -50.7303794 -0.127055E-04  0.238E-02    8.50       1.0  T
   4    -50.7303815 -0.206897E-05  0.765E-03    8.51       2.6  T
   5    -50.7303816 -0.120116E-06  0.310E-03    8.51       6.3  T
   6    -50.7303816 -0.112383E-07  0.164E-03    8.51      12.0  T
   7    -50.7303816 -0.650395E-08  0.383E-04    8.51      51.1  T
speedup  1.00
cpu  time for SCC    0.01 s
wall time for SCC    0.01 s
speedup  1.02
cpu  time for grad    0.01 s
wall time for grad    0.01 s
 E :    -50.43776835  G :  0.028279    pred/act E change: -0.877D-03 -0.364D-03
Maxdispl :   0.1108   ||displ|| :   0.2410   Lambda : -0.104D-02
Largest |displ|/coords:  0.1108 (  11)  0.0996 (   5)  0.0855 (   1)
................................................................................
.............................. CYCLE   10 ......................................
................................................................................
   1    -50.7359111 -0.507359E+02  0.184E-01    8.42       0.0  T
   2    -50.7359257 -0.146589E-04  0.137E-01    8.41       1.0  T
   3    -50.7359360 -0.102627E-04  0.224E-02    8.41       1.0  T
   4    -50.7359377 -0.174822E-05  0.807E-03    8.41       2.4  T
   5    -50.7359379 -0.112791E-06  0.276E-03    8.41       7.1  T
   6    -50.7359379 -0.700400E-08  0.142E-03    8.41      13.8  T
speedup  0.96
cpu  time for SCC    0.00 s
wall time for SCC    0.01 s
speedup  1.02
cpu  time for grad    0.01 s
wall time for grad    0.01 s
 E :    -50.43798602  G :  0.016655    pred/act E change: -0.517D-03 -0.218D-03
Maxdispl :   0.1297   ||displ|| :   0.2340   Lambda : -0.910D-03
Largest |displ|/coords:  0.1297 (   1)  0.0945 (   4)  0.0698 (   3)
................................................................................
.............................. CYCLE   11 ......................................
................................................................................
   1    -50.7350189 -0.507350E+02  0.152E-01    8.40       0.0  T
   2    -50.7350268 -0.792073E-05  0.112E-01    8.41       1.0  T
   3    -50.7350324 -0.555795E-05  0.205E-02    8.42       1.0  T
   4    -50.7350333 -0.869567E-06  0.571E-03    8.42       3.4  T
   5    -50.7350333 -0.533282E-07  0.198E-03    8.42       9.9  T
   6    -50.7350333 -0.406216E-08  0.103E-03    8.42      19.1  T
speedup  1.13
cpu  time for SCC    0.01 s
wall time for SCC    0.01 s
speedup  1.00
cpu  time for grad    0.01 s
wall time for grad    0.01 s
 E :    -50.43860060  G :  0.010834    pred/act E change: -0.551D-03 -0.615D-03
Maxdispl :   0.2590   ||displ|| :   0.4977   Lambda : -0.118D-02
Largest |displ|/coords:  0.2590 (   1)  0.2063 (   5)  0.1700 (   6)
................................................................................
.............................. CYCLE   12 ......................................
................................................................................
   1    -50.7235813 -0.507236E+02  0.407E-01    8.37       0.0  T
   2    -50.7236253 -0.440290E-04  0.305E-01    8.38       1.0  T
   3    -50.7236632 -0.379142E-04  0.425E-02    8.40       1.0  T
   4    -50.7236684 -0.515789E-05  0.107E-02    8.40       1.8  T
   5    -50.7236686 -0.179410E-06  0.507E-03    8.40       3.9  T
   6    -50.7236686 -0.374389E-07  0.263E-03    8.40       7.4  T
   7    -50.7236686 -0.169911E-07  0.761E-04    8.40      25.8  T
speedup  1.15
cpu  time for SCC    0.01 s
wall time for SCC    0.01 s
speedup  1.01
cpu  time for grad    0.01 s
wall time for grad    0.01 s
 E :    -50.43857501  G :  0.038348    pred/act E change: -0.480D-03  0.256D-04
Maxdispl :   0.0669   ||displ|| :   0.1584   Lambda : -0.180D-02
Largest |displ|/coords:  0.0669 (   5)  0.0668 (   3)  0.0439 (   1)
................................................................................
.............................. CYCLE   13 ......................................
................................................................................
   1    -50.7317474 -0.507317E+02  0.152E-01    8.42       0.0  T
   2    -50.7317671 -0.197714E-04  0.113E-01    8.42       1.0  T
   3    -50.7317794 -0.123154E-04  0.254E-02    8.43       1.0  T
   4    -50.7317816 -0.212241E-05  0.721E-03    8.43       2.7  T
   5    -50.7317817 -0.951644E-07  0.250E-03    8.43       7.8  T
   6    -50.7317817 -0.424977E-08  0.134E-03    8.43      14.6  T
speedup  0.94
cpu  time for SCC    0.01 s
wall time for SCC    0.01 s
speedup  1.00
cpu  time for grad    0.01 s
wall time for grad    0.01 s
 E :    -50.43945219  G :  0.019282    pred/act E change: -0.737D-03 -0.877D-03
Maxdispl :   0.1140   ||displ|| :   0.2154   Lambda : -0.959D-03
Largest |displ|/coords:  0.1140 (   5)  0.0867 (   1)  0.0840 (  19)
................................................................................
.............................. CYCLE   14 ......................................
................................................................................
   1    -50.7349633 -0.507350E+02  0.182E-01    8.42       0.0  T
   2    -50.7349776 -0.142519E-04  0.135E-01    8.42       1.0  T
   3    -50.7349857 -0.815149E-05  0.228E-02    8.42       1.0  T
   4    -50.7349877 -0.192245E-05  0.599E-03    8.42       3.3  T
   5    -50.7349877 -0.721155E-07  0.212E-03    8.42       9.2  T
   6    -50.7349877 -0.188020E-08  0.112E-03    8.42      17.6  T
speedup  1.13
cpu  time for SCC    0.01 s
wall time for SCC    0.01 s
speedup  1.00
cpu  time for grad    0.01 s
wall time for grad    0.01 s
 E :    -50.43960302  G :  0.019824    pred/act E change: -0.923D-03 -0.151D-03
Maxdispl :   0.2047   ||displ|| :   0.3621   Lambda : -0.120D-02
Largest |displ|/coords:  0.2047 (   5)  0.1585 (   1)  0.1287 (   6)
................................................................................
.............................. CYCLE   15 ......................................
................................................................................
   1    -50.7297965 -0.507298E+02  0.278E-01    8.33       0.0  T
   2    -50.7298247 -0.281595E-04  0.208E-01    8.34       1.0  T
   3    -50.7298454 -0.207350E-04  0.333E-02    8.35       1.0  T
   4    -50.7298491 -0.368583E-05  0.812E-03    8.35       2.4  T
   5    -50.7298492 -0.153249E-06  0.379E-03    8.35       5.2  T
   6    -50.7298493 -0.184033E-07  0.225E-03    8.35       8.7  T
   7    -50.7298493 -0.128656E-07  0.498E-04    8.35      39.4  T
speedup  0.97
cpu  time for SCC    0.01 s
wall time for SCC    0.01 s
speedup  0.94
cpu  time for grad    0.01 s
wall time for grad    0.01 s
 E :    -50.44026993  G :  0.019353    pred/act E change: -0.502D-03 -0.667D-03
Maxdispl :   0.1893   ||displ|| :   0.3450   Lambda : -0.127D-02
Largest |displ|/coords:  0.1893 (   1)  0.1340 (   6)  0.1226 (  16)
................................................................................
.............................. CYCLE   16 ......................................
................................................................................
   1    -50.7308302 -0.507308E+02  0.256E-01    8.54       0.0  T
   2    -50.7308460 -0.157850E-04  0.193E-01    8.54       1.0  T
   3    -50.7308621 -0.161064E-04  0.247E-02    8.54       1.0  T
   4    -50.7308635 -0.148389E-05  0.883E-03    8.54       2.2  T
   5    -50.7308637 -0.112089E-06  0.314E-03    8.54       6.2  T
   6    -50.7308637 -0.889435E-08  0.165E-03    8.55      11.9  T
   7    -50.7308637 -0.581432E-08  0.366E-04    8.54      53.5  T
speedup  0.98
cpu  time for SCC    0.01 s
wall time for SCC    0.01 s
speedup  1.01
cpu  time for grad    0.01 s
wall time for grad    0.01 s
 E :    -50.44044329  G :  0.025956    pred/act E change: -0.676D-03 -0.173D-03
Maxdispl :   0.1689   ||displ|| :   0.2174   Lambda : -0.110D-02
Largest |displ|/coords:  0.1689 (   5)  0.0699 (   1)  0.0576 (  11)
................................................................................
.............................. CYCLE   17 ......................................
................................................................................
   1    -50.7309333 -0.507309E+02  0.154E-01    8.39       0.0  T
   2    -50.7309394 -0.615195E-05  0.115E-01    8.39       1.0  T
   3    -50.7309435 -0.411132E-05  0.183E-02    8.40       1.1  T
   4    -50.7309443 -0.808703E-06  0.532E-03    8.40       3.7  T
   5    -50.7309444 -0.460618E-07  0.154E-03    8.40      12.8  T
speedup  1.14
cpu  time for SCC    0.00 s
wall time for SCC    0.00 s
speedup  0.99
cpu  time for grad    0.01 s
wall time for grad    0.01 s
 E :    -50.44110405  G :  0.016030    pred/act E change: -0.709D-03 -0.661D-03
Maxdispl :   0.1399   ||displ|| :   0.2831   Lambda : -0.801D-03
Largest |displ|/coords:  0.1399 (   5)  0.1158 (   1)  0.0898 (   2)
................................................................................
.............................. CYCLE   18 ......................................
................................................................................
   1    -50.7326470 -0.507326E+02  0.191E-01    8.42       0.0  T
   2    -50.7326545 -0.753370E-05  0.142E-01    8.41       1.0  T
   3    -50.7326604 -0.585732E-05  0.200E-02    8.40       1.0  T
   4    -50.7326612 -0.811738E-06  0.593E-03    8.41       3.3  T
   5    -50.7326612 -0.502680E-07  0.183E-03    8.41      10.7  T
   6    -50.7326612 -0.462796E-08  0.984E-04    8.41      19.9  T
speedup  0.93
cpu  time for SCC    0.01 s
wall time for SCC    0.01 s
speedup  0.99
cpu  time for grad    0.01 s
wall time for grad    0.01 s
 E :    -50.44133367  G :  0.016868    pred/act E change: -0.578D-03 -0.230D-03
Maxdispl :   0.1619   ||displ|| :   0.3206   Lambda : -0.826D-03
Largest |displ|/coords:  0.1619 (   5)  0.1398 (   1)  0.0965 (  11)
................................................................................
.............................. CYCLE   19 ......................................
................................................................................
   1    -50.7347507 -0.507348E+02  0.214E-01    8.44       0.0  T
   2    -50.7347594 -0.875325E-05  0.161E-01    8.44       1.0  T
   3    -50.7347683 -0.890131E-05  0.215E-02    8.44       1.0  T
   4    -50.7347691 -0.806226E-06  0.628E-03    8.44       3.1  T
   5    -50.7347692 -0.539249E-07  0.229E-03    8.44       8.6  T
   6    -50.7347692 -0.671918E-08  0.135E-03    8.44      14.6  T
speedup  0.94
cpu  time for SCC    0.00 s
wall time for SCC    0.01 s
speedup  0.99
cpu  time for grad    0.01 s
wall time for grad    0.01 s
 E :    -50.44182316  G :  0.013589    pred/act E change: -0.433D-03 -0.489D-03
Maxdispl :   0.2553   ||displ|| :   0.4258   Lambda : -0.897D-03
Largest |displ|/coords:  0.2553 (   5)  0.2102 (   1)  0.1204 (   6)
................................................................................
.............................. CYCLE   20 ......................................
................................................................................
   1    -50.7278589 -0.507279E+02  0.299E-01    8.18       0.0  T
   2    -50.7278810 -0.221080E-04  0.224E-01    8.19       1.0  T
   3    -50.7279005 -0.195025E-04  0.311E-02    8.20       1.0  T
   4    -50.7279032 -0.263192E-05  0.107E-02    8.20       1.8  T
   5    -50.7279033 -0.188419E-06  0.355E-03    8.20       5.5  T
   6    -50.7279034 -0.161336E-07  0.199E-03    8.20       9.9  T
   7    -50.7279034 -0.898989E-08  0.562E-04    8.20      34.9  T
speedup  0.98
cpu  time for SCC    0.01 s
wall time for SCC    0.01 s
speedup  0.99
cpu  time for grad    0.01 s
wall time for grad    0.01 s
 E :    -50.44192597  G :  0.028305    pred/act E change: -0.455D-03 -0.103D-03
Maxdispl :   0.1115   ||displ|| :   0.1784   Lambda : -0.113D-02
Largest |displ|/coords:  0.1115 (   4)  0.0641 (   5)  0.0417 (  25)
................................................................................
.............................. CYCLE   21 ......................................
................................................................................
   1    -50.7450044 -0.507450E+02  0.170E-01    8.55       0.0  T
   2    -50.7450231 -0.186735E-04  0.122E-01    8.53       1.0  T
   3    -50.7450357 -0.126140E-04  0.267E-02    8.51       1.0  T
   4    -50.7450373 -0.154229E-05  0.685E-03    8.51       2.9  T
   5    -50.7450374 -0.899909E-07  0.271E-03    8.51       7.2  T
   6    -50.7450374 -0.111962E-07  0.158E-03    8.51      12.4  T
speedup  0.94
cpu  time for SCC    0.00 s
wall time for SCC    0.01 s
speedup  1.00
cpu  time for grad    0.01 s
wall time for grad    0.01 s
 E :    -50.44205465  G :  0.028911    pred/act E change: -0.530D-03 -0.129D-03
Maxdispl :   0.1475   ||displ|| :   0.3622   Lambda : -0.181D-02
Largest |displ|/coords:  0.1475 (   5)  0.1300 (   6)  0.1100 (   1)
................................................................................
.............................. CYCLE   22 ......................................
................................................................................
   1    -50.7345277 -0.507345E+02  0.261E-01    8.54       0.0  T
   2    -50.7345600 -0.323342E-04  0.195E-01    8.54       1.0  T
   3    -50.7345834 -0.233825E-04  0.339E-02    8.55       1.0  T
   4    -50.7345875 -0.409617E-05  0.862E-03    8.55       2.3  T
   5    -50.7345876 -0.114076E-06  0.421E-03    8.55       4.7  T
   6    -50.7345876 -0.236304E-07  0.194E-03    8.55      10.1  T
speedup  1.15
cpu  time for SCC    0.01 s
wall time for SCC    0.01 s
speedup  1.00
cpu  time for grad    0.01 s
wall time for grad    0.01 s
 E :    -50.44198643  G :  0.034270    pred/act E change: -0.583D-03  0.682D-04
Maxdispl :   0.0692   ||displ|| :   0.1458   Lambda : -0.172D-02
Largest |displ|/coords:  0.0692 (   7)  0.0635 (   1)  0.0546 (   5)
................................................................................
.............................. CYCLE   23 ......................................
................................................................................
   1    -50.7354694 -0.507355E+02  0.138E-01    8.36       0.0  T
   2    -50.7354828 -0.134525E-04  0.103E-01    8.36       1.0  T
   3    -50.7354933 -0.104742E-04  0.215E-02    8.35       1.0  T
   4    -50.7354948 -0.149586E-05  0.826E-03    8.35       2.4  T
   5    -50.7354949 -0.124372E-06  0.259E-03    8.35       7.6  T
   6    -50.7354949 -0.108618E-07  0.129E-03    8.35      15.2  T
speedup  0.94
cpu  time for SCC    0.01 s
wall time for SCC    0.01 s
speedup  0.99
cpu  time for grad    0.01 s
wall time for grad    0.01 s
 E :    -50.44277908  G :  0.010230    pred/act E change: -0.102D-02 -0.793D-03
Maxdispl :   0.1855   ||displ|| :   0.3221   Lambda : -0.637D-03
Largest |displ|/coords:  0.1855 (   5)  0.1014 (   1)  0.0829 (   9)
................................................................................
.............................. CYCLE   24 ......................................
................................................................................
   1    -50.7339180 -0.507339E+02  0.210E-01    8.22       0.0  T
   2    -50.7339297 -0.117443E-04  0.156E-01    8.22       1.0  T
   3    -50.7339378 -0.809079E-05  0.239E-02    8.22       1.0  T
   4    -50.7339393 -0.155560E-05  0.706E-03    8.22       2.8  T
   5    -50.7339394 -0.832697E-07  0.243E-03    8.22       8.1  T
   6    -50.7339394 -0.725097E-08  0.125E-03    8.22      15.7  T
speedup  1.07
cpu  time for SCC    0.01 s
wall time for SCC    0.01 s
speedup  1.04
cpu  time for grad    0.01 s
wall time for grad    0.01 s
 E :    -50.44279148  G :  0.022684    pred/act E change: -0.880D-03 -0.124D-04
Maxdispl :   0.0503   ||displ|| :   0.1387   Lambda : -0.675D-03
Largest |displ|/coords:  0.0503 (  17)  0.0462 (   9)  0.0439 (  12)
................................................................................
.............................. CYCLE   25 ......................................
................................................................................
   1    -50.7374026 -0.507374E+02  0.964E-02    8.38       0.0  T
   2    -50.7374064 -0.378372E-05  0.709E-02    8.37       1.0  T
   3    -50.7374086 -0.214447E-05  0.127E-02    8.36       1.5  T
   4    -50.7374091 -0.528568E-06  0.371E-03    8.36       5.3  T
   5    -50.7374091 -0.202663E-07  0.125E-03    8.36      15.7  T
speedup  1.11
cpu  time for SCC    0.00 s
wall time for SCC    0.00 s
speedup  0.98
cpu  time for grad    0.01 s
wall time for grad    0.01 s
 E :    -50.44316472  G :  0.012017    pred/act E change: -0.351D-03 -0.373D-03
Maxdispl :   0.1529   ||displ|| :   0.3071   Lambda : -0.561D-03
Largest |displ|/coords:  0.1529 (   1)  0.1323 (   5)  0.0811 (   9)

generating ANC from model Hessian ...
 Shifting diagonal of input Hessian by   5.036393320086837E-003
 Lowest  eigenvalues of input Hessian
    0.005000   -0.000000   -0.000000   -0.000000    0.000000    0.000000
    0.000000    0.005193    0.005477    0.005703    0.006303    0.006514
    0.006643    0.007154    0.007415    0.007714    0.008295    0.008964
 Highest eigenvalues
    1.381584    1.410756    1.415451    2.518500    3.262268    3.881385
 
cpu  time for ANC gen    0.02 s
wall time for ANC gen    0.02 s
................................................................................
.............................. CYCLE   26 ......................................
................................................................................
   1    -50.7338974 -0.507339E+02  0.170E-01    8.31       0.0  T
   2    -50.7339077 -0.102471E-04  0.126E-01    8.31       1.0  T
   3    -50.7339149 -0.726958E-05  0.220E-02    8.31       1.0  T
   4    -50.7339161 -0.121591E-05  0.673E-03    8.31       2.9  T
   5    -50.7339162 -0.833517E-07  0.221E-03    8.31       8.9  T
   6    -50.7339162 -0.629984E-08  0.130E-03    8.31      15.1  T
   7    -50.7339162 -0.391175E-08  0.383E-04    8.31      51.2  T
   8    -50.7339162 -0.374897E-09  0.127E-04    8.31     154.7  T
speedup  0.96
cpu  time for SCC    0.01 s
wall time for SCC    0.01 s
speedup  1.02
cpu  time for grad    0.02 s
wall time for grad    0.02 s
 E :    -50.44319626  G :  0.017746    pred/act E change:  0.000D+00 -0.315D-04
Maxdispl :   0.1107   ||displ|| :   0.2424   Lambda : -0.100D-02
Largest |displ|/coords:  0.1107 (   6)  0.0765 (  10)  0.0719 (   2)
................................................................................
.............................. CYCLE   27 ......................................
................................................................................
   1    -50.7356735 -0.507357E+02  0.199E-01    8.34       0.0  T
   2    -50.7356789 -0.541280E-05  0.150E-01    8.34       1.0  T
   3    -50.7356846 -0.565796E-05  0.125E-02    8.33       1.6  T
   4    -50.7356851 -0.538324E-06  0.498E-03    8.34       3.9  T
   5    -50.7356851 -0.287452E-07  0.199E-03    8.34       9.8  T
   6    -50.7356852 -0.456341E-08  0.906E-04    8.34      21.6  T
speedup  1.11
cpu  time for SCC    0.01 s
wall time for SCC    0.01 s
speedup  0.98
cpu  time for grad    0.01 s
wall time for grad    0.01 s
 E :    -50.44385760  G :  0.008902    pred/act E change:  0.000D+00 -0.661D-03
Maxdispl :   0.1452   ||displ|| :   0.2823   Lambda : -0.583D-03
Largest |displ|/coords:  0.1452 (   6)  0.1099 (  10)  0.0926 (   7)
................................................................................
.............................. CYCLE   28 ......................................
................................................................................
   1    -50.7357999 -0.507358E+02  0.202E-01    8.33       0.0  T
   2    -50.7358052 -0.536888E-05  0.152E-01    8.33       1.0  T
   3    -50.7358113 -0.608308E-05  0.128E-02    8.32       1.5  T
   4    -50.7358117 -0.381527E-06  0.482E-03    8.33       4.1  T
   5    -50.7358117 -0.211003E-07  0.181E-03    8.33      10.8  T
   6    -50.7358117 -0.409408E-08  0.902E-04    8.33      21.8  T
speedup  0.94
cpu  time for SCC    0.01 s
wall time for SCC    0.01 s
speedup  0.98
cpu  time for grad    0.01 s
wall time for grad    0.01 s
 E :    -50.44420861  G :  0.013841    pred/act E change: -0.530D-03 -0.351D-03
Maxdispl :   0.1410   ||displ|| :   0.2352   Lambda : -0.375D-03
Largest |displ|/coords:  0.1410 (   6)  0.0722 (  10)  0.0706 (   2)
................................................................................
.............................. CYCLE   29 ......................................
................................................................................
   1    -50.7364873 -0.507365E+02  0.130E-01    8.32       0.0  T
   2    -50.7364895 -0.221962E-05  0.964E-02    8.32       1.0  T
   3    -50.7364916 -0.204163E-05  0.110E-02    8.32       1.8  T
   4    -50.7364918 -0.200939E-06  0.287E-03    8.32       6.8  T
   5    -50.7364918 -0.106653E-07  0.110E-03    8.32      17.9  T
speedup  1.11
cpu  time for SCC    0.00 s
wall time for SCC    0.00 s
speedup  1.06
cpu  time for grad    0.01 s
wall time for grad    0.01 s
 E :    -50.44450417  G :  0.011423    pred/act E change: -0.315D-03 -0.296D-03
Maxdispl :   0.2897   ||displ|| :   0.4430   Lambda : -0.651D-03
Largest |displ|/coords:  0.2897 (   6)  0.1327 (   7)  0.1230 (   2)
................................................................................
.............................. CYCLE   30 ......................................
................................................................................
   1    -50.7356282 -0.507356E+02  0.261E-01    8.29       0.0  T
   2    -50.7356370 -0.879619E-05  0.195E-01    8.29       1.0  T
   3    -50.7356455 -0.851568E-05  0.227E-02    8.29       1.0  T
   4    -50.7356462 -0.712247E-06  0.660E-03    8.29       3.0  T
   5    -50.7356463 -0.499464E-07  0.224E-03    8.29       8.8  T
   6    -50.7356463 -0.474615E-08  0.119E-03    8.29      16.4  T
speedup  0.94
cpu  time for SCC    0.00 s
wall time for SCC    0.01 s
speedup  0.98
cpu  time for grad    0.01 s
wall time for grad    0.01 s
 E :    -50.44493166  G :  0.008470    pred/act E change: -0.198D-03 -0.427D-03
Maxdispl :   0.1947   ||displ|| :   0.3955   Lambda : -0.554D-03
Largest |displ|/coords:  0.1947 (   6)  0.1582 (  12)  0.1464 (   2)
................................................................................
.............................. CYCLE   31 ......................................
................................................................................
   1    -50.7363558 -0.507364E+02  0.234E-01    8.27       0.0  T
   2    -50.7363694 -0.136053E-04  0.174E-01    8.26       1.0  T
   3    -50.7363798 -0.103377E-04  0.274E-02    8.24       1.0  T
   4    -50.7363815 -0.176376E-05  0.773E-03    8.25       2.5  T
   5    -50.7363816 -0.890592E-07  0.272E-03    8.25       7.2  T
   6    -50.7363816 -0.930223E-08  0.150E-03    8.25      13.1  T
speedup  0.93
cpu  time for SCC    0.01 s
wall time for SCC    0.01 s
speedup  0.98
cpu  time for grad    0.01 s
wall time for grad    0.01 s
 E :    -50.44516827  G :  0.016295    pred/act E change: -0.390D-03 -0.237D-03
Maxdispl :   0.1367   ||displ|| :   0.2266   Lambda : -0.404D-03
Largest |displ|/coords:  0.1367 (   6)  0.0873 (   2)  0.0752 (   8)
................................................................................
.............................. CYCLE   32 ......................................
................................................................................
   1    -50.7355077 -0.507355E+02  0.133E-01    8.23       0.0  T
   2    -50.7355110 -0.334165E-05  0.997E-02    8.23       1.0  T
   3    -50.7355143 -0.330050E-05  0.125E-02    8.23       1.6  T
   4    -50.7355146 -0.299508E-06  0.384E-03    8.23       5.1  T
   5    -50.7355146 -0.222646E-07  0.141E-03    8.23      13.9  T
   6    -50.7355146 -0.152124E-08  0.724E-04    8.23      27.1  T
speedup  0.94
cpu  time for SCC    0.00 s
wall time for SCC    0.01 s
speedup  0.98
cpu  time for grad    0.01 s
wall time for grad    0.01 s
 E :    -50.44531341  G :  0.009418    pred/act E change: -0.320D-03 -0.145D-03
Maxdispl :   0.1477   ||displ|| :   0.2152   Lambda : -0.393D-03
Largest |displ|/coords:  0.1477 (   8)  0.0687 (  11)  0.0590 (   5)
................................................................................
.............................. CYCLE   33 ......................................
................................................................................
   1    -50.7333054 -0.507333E+02  0.146E-01    8.22       0.0  T
   2    -50.7333106 -0.526198E-05  0.109E-01    8.22       1.0  T
   3    -50.7333140 -0.337553E-05  0.146E-02    8.22       1.3  T
   4    -50.7333148 -0.825063E-06  0.464E-03    8.22       4.2  T
   5    -50.7333149 -0.405322E-07  0.186E-03    8.22      10.6  T
   6    -50.7333149 -0.316054E-08  0.900E-04    8.22      21.8  T
speedup  0.96
cpu  time for SCC    0.00 s
wall time for SCC    0.01 s
speedup  0.99
cpu  time for grad    0.01 s
wall time for grad    0.01 s
 E :    -50.44543338  G :  0.013200    pred/act E change: -0.212D-03 -0.120D-03
Maxdispl :   0.1316   ||displ|| :   0.2060   Lambda : -0.514D-03
Largest |displ|/coords:  0.1316 (   6)  0.0839 (   5)  0.0650 (  11)
................................................................................
.............................. CYCLE   34 ......................................
................................................................................
   1    -50.7414028 -0.507414E+02  0.112E-01    8.38       0.0  T
   2    -50.7414070 -0.424571E-05  0.824E-02    8.37       1.0  T
   3    -50.7414088 -0.172036E-05  0.113E-02    8.34       1.7  T
   4    -50.7414095 -0.703046E-06  0.262E-03    8.35       7.5  T
   5    -50.7414095 -0.118827E-07  0.104E-03    8.35      18.9  T
speedup  1.14
cpu  time for SCC    0.00 s
wall time for SCC    0.00 s
speedup  0.98
cpu  time for grad    0.01 s
wall time for grad    0.01 s
 E :    -50.44540048  G :  0.015850    pred/act E change: -0.206D-03  0.329D-04
Maxdispl :   0.1205   ||displ|| :   0.2348   Lambda : -0.575D-03
Largest |displ|/coords:  0.1205 (   6)  0.0908 (   2)  0.0645 (  10)
................................................................................
.............................. CYCLE   35 ......................................
................................................................................
   1    -50.7349558 -0.507350E+02  0.155E-01    8.29       0.0  T
   2    -50.7349615 -0.572167E-05  0.117E-01    8.29       1.0  T
   3    -50.7349668 -0.528899E-05  0.141E-02    8.28       1.4  T
   4    -50.7349674 -0.585859E-06  0.393E-03    8.28       5.0  T
   5    -50.7349674 -0.178813E-07  0.185E-03    8.28      10.6  T
   6    -50.7349674 -0.463710E-08  0.785E-04    8.28      25.0  T
speedup  0.94
cpu  time for SCC    0.00 s
wall time for SCC    0.01 s
speedup  0.98
cpu  time for grad    0.01 s
wall time for grad    0.01 s
 E :    -50.44552704  G :  0.018022    pred/act E change: -0.268D-03 -0.127D-03
Maxdispl :   0.1408   ||displ|| :   0.2372   Lambda : -0.915D-03
Largest |displ|/coords:  0.1408 (   5)  0.1231 (   9)  0.0833 (   8)
................................................................................
.............................. CYCLE   36 ......................................
................................................................................
   1    -50.7367317 -0.507367E+02  0.175E-01    8.20       0.0  T
   2    -50.7367425 -0.108478E-04  0.131E-01    8.20       1.0  T
   3    -50.7367511 -0.852265E-05  0.186E-02    8.22       1.1  T
   4    -50.7367525 -0.140423E-05  0.642E-03    8.21       3.1  T
   5    -50.7367525 -0.514428E-07  0.256E-03    8.21       7.6  T
   6    -50.7367525 -0.690423E-08  0.118E-03    8.21      16.7  T
speedup  1.15
cpu  time for SCC    0.01 s
wall time for SCC    0.01 s
speedup  0.99
cpu  time for grad    0.01 s
wall time for grad    0.01 s
 E :    -50.44518041  G :  0.023514    pred/act E change: -0.303D-03  0.347D-03
Maxdispl :   0.1176   ||displ|| :   0.1813   Lambda : -0.113D-02
Largest |displ|/coords:  0.1176 (   5)  0.0863 (   9)  0.0546 (  11)
................................................................................
.............................. CYCLE   37 ......................................
................................................................................
   1    -50.7379206 -0.507379E+02  0.128E-01    8.29       0.0  T
   2    -50.7379239 -0.329887E-05  0.960E-02    8.28       1.0  T
   3    -50.7379266 -0.271822E-05  0.101E-02    8.27       2.0  T
   4    -50.7379271 -0.447403E-06  0.360E-03    8.28       5.4  T
   5    -50.7379271 -0.149966E-07  0.142E-03    8.28      13.8  T
speedup  0.89
cpu  time for SCC    0.00 s
wall time for SCC    0.00 s
speedup  0.98
cpu  time for grad    0.01 s
wall time for grad    0.01 s
 E :    -50.44579773  G :  0.005863    pred/act E change: -0.483D-03 -0.617D-03
Maxdispl :   0.0677   ||displ|| :   0.1766   Lambda : -0.112D-03
Largest |displ|/coords:  0.0677 (   2)  0.0639 (  11)  0.0604 (   8)
................................................................................
.............................. CYCLE   38 ......................................
................................................................................
   1    -50.7366116 -0.507366E+02  0.109E-01    8.27       0.0  T
   2    -50.7366136 -0.205427E-05  0.816E-02    8.27       1.0  T
   3    -50.7366156 -0.198993E-05  0.104E-02    8.26       1.9  T
   4    -50.7366158 -0.220929E-06  0.329E-03    8.26       6.0  T
   5    -50.7366159 -0.123243E-07  0.108E-03    8.26      18.2  T
   6    -50.7366159 -0.127811E-08  0.574E-04    8.26      34.2  T
speedup  0.96
cpu  time for SCC    0.00 s
wall time for SCC    0.01 s
speedup  0.99
cpu  time for grad    0.01 s
wall time for grad    0.01 s
 E :    -50.44586651  G :  0.007248    pred/act E change: -0.584D-03 -0.688D-04
Maxdispl :   0.0593   ||displ|| :   0.1480   Lambda : -0.109D-03
Largest |displ|/coords:  0.0593 (   8)  0.0546 (   2)  0.0486 (   3)
................................................................................
.............................. CYCLE   39 ......................................
................................................................................
   1    -50.7369157 -0.507369E+02  0.830E-02    8.28       0.0  T
   2    -50.7369168 -0.112606E-05  0.622E-02    8.28       1.0  T
   3    -50.7369178 -0.102951E-05  0.757E-03    8.27       2.6  T
   4    -50.7369180 -0.124138E-06  0.255E-03    8.27       7.7  T
   5    -50.7369180 -0.695609E-08  0.695E-04    8.27      28.2  T
speedup  1.11
cpu  time for SCC    0.00 s
wall time for SCC    0.00 s
speedup  1.04
cpu  time for grad    0.01 s
wall time for grad    0.01 s
 E :    -50.44595009  G :  0.006086    pred/act E change: -0.577D-04 -0.836D-04
Maxdispl :   0.0901   ||displ|| :   0.2224   Lambda : -0.166D-03
Largest |displ|/coords:  0.0901 (   8)  0.0740 (  11)  0.0719 (   9)
................................................................................
.............................. CYCLE   40 ......................................
................................................................................
   1    -50.7384437 -0.507384E+02  0.131E-01    8.29       0.0  T
   2    -50.7384473 -0.358332E-05  0.977E-02    8.29       1.0  T
   3    -50.7384502 -0.289261E-05  0.135E-02    8.28       1.5  T
   4    -50.7384506 -0.423253E-06  0.442E-03    8.28       4.4  T
   5    -50.7384506 -0.242864E-07  0.116E-03    8.28      16.9  T
   6    -50.7384506 -0.147023E-08  0.693E-04    8.28      28.3  T
speedup  0.96
cpu  time for SCC    0.01 s
wall time for SCC    0.01 s
speedup  1.00
cpu  time for grad    0.01 s
wall time for grad    0.01 s
 E :    -50.44605293  G :  0.004013    pred/act E change: -0.558D-04 -0.103D-03
Maxdispl :   0.0473   ||displ|| :   0.1229   Lambda : -0.712D-04
Largest |displ|/coords:  0.0473 (   8)  0.0393 (  13)  0.0380 (   3)
................................................................................
.............................. CYCLE   41 ......................................
................................................................................
   1    -50.7384385 -0.507384E+02  0.885E-02    8.27       0.0  T
   2    -50.7384397 -0.124097E-05  0.666E-02    8.27       1.0  T
   3    -50.7384410 -0.125314E-05  0.769E-03    8.27       2.5  T
   4    -50.7384411 -0.115638E-06  0.299E-03    8.27       6.6  T
   5    -50.7384411 -0.701608E-08  0.649E-04    8.27      30.2  T
speedup  0.91
cpu  time for SCC    0.00 s
wall time for SCC    0.00 s
speedup  0.98
cpu  time for grad    0.01 s
wall time for grad    0.01 s
 E :    -50.44609191  G :  0.003575    pred/act E change: -0.870D-04 -0.390D-04
Maxdispl :   0.0512   ||displ|| :   0.1019   Lambda : -0.553D-04
Largest |displ|/coords:  0.0512 (   6)  0.0476 (   2)  0.0356 (  13)
................................................................................
.............................. CYCLE   42 ......................................
................................................................................
   1    -50.7392707 -0.507393E+02  0.727E-02    8.29       0.0  T
   2    -50.7392714 -0.771391E-06  0.547E-02    8.29       1.0  T
   3    -50.7392723 -0.810683E-06  0.511E-03    8.29       3.8  T
   4    -50.7392723 -0.732602E-07  0.187E-03    8.29      10.5  T
   5    -50.7392723 -0.440100E-08  0.703E-04    8.29      27.9  T
   6    -50.7392723 -0.837318E-09  0.399E-04    8.29      49.2  T
speedup  0.96
cpu  time for SCC    0.01 s
wall time for SCC    0.01 s
speedup  0.95
cpu  time for grad    0.01 s
wall time for grad    0.01 s
 E :    -50.44612653  G :  0.003886    pred/act E change: -0.361D-04 -0.346D-04
Maxdispl :   0.0753   ||displ|| :   0.1477   Lambda : -0.719D-04
Largest |displ|/coords:  0.0753 (  12)  0.0514 (   9)  0.0512 (   6)
................................................................................
.............................. CYCLE   43 ......................................
................................................................................
   1    -50.7382803 -0.507383E+02  0.109E-01    8.26       0.0  T
   2    -50.7382822 -0.187694E-05  0.819E-02    8.26       1.0  T
   3    -50.7382841 -0.194065E-05  0.103E-02    8.26       1.9  T
   4    -50.7382843 -0.168259E-06  0.311E-03    8.26       6.3  T
   5    -50.7382843 -0.136485E-07  0.105E-03    8.26      18.7  T
   6    -50.7382843 -0.138483E-08  0.589E-04    8.26      33.3  T
   7    -50.7382843 -0.718963E-09  0.182E-04    8.26     107.6  T
speedup  0.98
cpu  time for SCC    0.01 s
wall time for SCC    0.01 s
speedup  1.03
cpu  time for grad    0.01 s
wall time for grad    0.01 s
 E :    -50.44615876  G :  0.003858    pred/act E change: -0.279D-04 -0.322D-04
Maxdispl :   0.0812   ||displ|| :   0.1579   Lambda : -0.575D-04
Largest |displ|/coords:  0.0812 (   2)  0.0634 (   6)  0.0478 (  11)
................................................................................
.............................. CYCLE   44 ......................................
................................................................................
   1    -50.7390990 -0.507391E+02  0.778E-02    8.29       0.0  T
   2    -50.7391001 -0.106560E-05  0.582E-02    8.29       1.0  T
   3    -50.7391009 -0.784134E-06  0.764E-03    8.30       2.6  T
   4    -50.7391010 -0.147541E-06  0.219E-03    8.30       8.9  T
   5    -50.7391010 -0.683211E-08  0.762E-04    8.30      25.7  T
   6    -50.7391010 -0.706265E-09  0.366E-04    8.30      53.5  T
speedup  1.11
cpu  time for SCC    0.01 s
wall time for SCC    0.01 s
speedup  1.01
cpu  time for grad    0.01 s
wall time for grad    0.01 s
 E :    -50.44617805  G :  0.003664    pred/act E change: -0.367D-04 -0.193D-04
Maxdispl :   0.0178   ||displ|| :   0.0413   Lambda : -0.359D-04
Largest |displ|/coords:  0.0178 (   3)  0.0158 (   9)  0.0124 (  16)
................................................................................
.............................. CYCLE   45 ......................................
................................................................................
   1    -50.7383081 -0.507383E+02  0.306E-02    8.28       0.0  T
   2    -50.7383083 -0.262429E-06  0.227E-02    8.28       1.0  T
   3    -50.7383085 -0.189985E-06  0.364E-03    8.28       5.4  T
   4    -50.7383085 -0.327975E-07  0.863E-04    8.28      22.7  T
   5    -50.7383086 -0.125068E-08  0.381E-04    8.28      51.5  T
speedup  0.91
cpu  time for SCC    0.00 s
wall time for SCC    0.00 s
speedup  1.01
cpu  time for grad    0.01 s
wall time for grad    0.01 s
 E :    -50.44619283  G :  0.002903    pred/act E change: -0.295D-04 -0.148D-04
Maxdispl :   0.0144   ||displ|| :   0.0333   Lambda : -0.135D-04
Largest |displ|/coords:  0.0144 (   9)  0.0131 (  12)  0.0115 (   3)
................................................................................
.............................. CYCLE   46 ......................................
................................................................................
   1    -50.7381276 -0.507381E+02  0.201E-02    8.28       0.0  T
   2    -50.7381277 -0.133291E-06  0.151E-02    8.28       1.3  T
   3    -50.7381278 -0.894053E-07  0.231E-03    8.28       8.5  T
   4    -50.7381278 -0.196349E-07  0.607E-04    8.28      32.3  T
   5    -50.7381278 -0.731490E-09  0.253E-04    8.28      77.4  T
speedup  1.09
cpu  time for SCC    0.01 s
wall time for SCC    0.00 s
speedup  1.00
cpu  time for grad    0.01 s
wall time for grad    0.01 s
 E :    -50.44620291  G :  0.001883    pred/act E change: -0.180D-04 -0.101D-04
Maxdispl :   0.0266   ||displ|| :   0.0664   Lambda : -0.171D-04
Largest |displ|/coords:  0.0266 (   3)  0.0257 (   9)  0.0248 (  12)
................................................................................
.............................. CYCLE   47 ......................................
................................................................................
   1    -50.7377821 -0.507378E+02  0.421E-02    8.27       0.0  T
   2    -50.7377825 -0.425621E-06  0.314E-02    8.27       1.0  T
   3    -50.7377828 -0.268071E-06  0.435E-03    8.27       4.5  T
   4    -50.7377828 -0.660379E-07  0.116E-03    8.27      17.0  T
   5    -50.7377828 -0.299463E-08  0.487E-04    8.27      40.3  T
   6    -50.7377828 -0.280160E-09  0.248E-04    8.27      79.0  T
speedup  1.13
cpu  time for SCC    0.01 s
wall time for SCC    0.01 s
speedup  1.01
cpu  time for grad    0.01 s
wall time for grad    0.01 s
 E :    -50.44621375  G :  0.001694    pred/act E change: -0.674D-05 -0.108D-04
Maxdispl :   0.0240   ||displ|| :   0.0633   Lambda : -0.105D-04
Largest |displ|/coords:  0.0240 (   1)  0.0239 (   2)  0.0231 (   3)
................................................................................
.............................. CYCLE   48 ......................................
................................................................................
   1    -50.7377919 -0.507378E+02  0.436E-02    8.28       0.0  T
   2    -50.7377921 -0.199290E-06  0.326E-02    8.28       1.0  T
   3    -50.7377922 -0.184459E-06  0.299E-03    8.28       6.6  T
   4    -50.7377923 -0.236017E-07  0.119E-03    8.28      16.4  T
   5    -50.7377923 -0.177037E-08  0.382E-04    8.28      51.3  T
   6    -50.7377923 -0.170814E-09  0.221E-04    8.28      88.7  T
speedup  0.94
cpu  time for SCC    0.00 s
wall time for SCC    0.01 s
speedup  1.02
cpu  time for grad    0.01 s
wall time for grad    0.01 s
 E :    -50.44621968  G :  0.002256    pred/act E change: -0.857D-05 -0.592D-05
Maxdispl :   0.0285   ||displ|| :   0.0650   Lambda : -0.953D-05
Largest |displ|/coords:  0.0285 (   3)  0.0275 (   2)  0.0209 (   1)
................................................................................
.............................. CYCLE   49 ......................................
................................................................................
   1    -50.7377663 -0.507378E+02  0.440E-02    8.28       0.0  T
   2    -50.7377665 -0.195243E-06  0.329E-02    8.28       1.0  T
   3    -50.7377667 -0.204831E-06  0.301E-03    8.28       6.5  T
   4    -50.7377667 -0.190120E-07  0.121E-03    8.28      16.2  T
   5    -50.7377667 -0.167557E-08  0.378E-04    8.28      51.9  T
   6    -50.7377667 -0.167063E-09  0.233E-04    8.28      84.1  T
speedup  0.94
cpu  time for SCC    0.00 s
wall time for SCC    0.01 s
speedup  0.94
cpu  time for grad    0.01 s
wall time for grad    0.01 s
 E :    -50.44622621  G :  0.001852    pred/act E change: -0.526D-05 -0.654D-05
Maxdispl :   0.0330   ||displ|| :   0.0704   Lambda : -0.104D-04
Largest |displ|/coords:  0.0330 (   3)  0.0303 (   1)  0.0284 (   2)
................................................................................
.............................. CYCLE   50 ......................................
................................................................................
   1    -50.7379831 -0.507380E+02  0.476E-02    8.28       0.0  T
   2    -50.7379833 -0.211994E-06  0.357E-02    8.28       1.0  T
   3    -50.7379835 -0.212404E-06  0.306E-03    8.28       6.4  T
   4    -50.7379836 -0.230525E-07  0.136E-03    8.28      14.4  T
   5    -50.7379836 -0.199548E-08  0.393E-04    8.28      49.9  T
   6    -50.7379836 -0.169848E-09  0.247E-04    8.28      79.6  T
speedup  1.13
cpu  time for SCC    0.01 s
wall time for SCC    0.01 s
speedup  1.01
cpu  time for grad    0.01 s
wall time for grad    0.01 s
 E :    -50.44623363  G :  0.001275    pred/act E change: -0.479D-05 -0.742D-05
Maxdispl :   0.0298   ||displ|| :   0.0644   Lambda : -0.755D-05
Largest |displ|/coords:  0.0298 (   1)  0.0292 (   2)  0.0267 (   3)
................................................................................
.............................. CYCLE   51 ......................................
................................................................................
   1    -50.7381903 -0.507382E+02  0.423E-02    8.29       0.0  T
   2    -50.7381905 -0.177257E-06  0.318E-02    8.29       1.0  T
   3    -50.7381906 -0.164242E-06  0.282E-03    8.29       7.0  T
   4    -50.7381906 -0.226294E-07  0.117E-03    8.29      16.8  T
   5    -50.7381906 -0.172170E-08  0.356E-04    8.29      55.1  T
   6    -50.7381906 -0.171120E-09  0.218E-04    8.29      90.1  T
speedup  0.94
cpu  time for SCC    0.00 s
wall time for SCC    0.01 s
speedup  1.01
cpu  time for grad    0.01 s
wall time for grad    0.01 s
 E :    -50.44623889  G :  0.001375    pred/act E change: -0.521D-05 -0.526D-05
Maxdispl :   0.0291   ||displ|| :   0.0560   Lambda : -0.505D-05
Largest |displ|/coords:  0.0291 (   1)  0.0248 (   3)  0.0217 (   2)
................................................................................
.............................. CYCLE   52 ......................................
................................................................................
   1    -50.7383840 -0.507384E+02  0.374E-02    8.29       0.0  T
   2    -50.7383842 -0.120737E-06  0.280E-02    8.29       1.0  T
   3    -50.7383843 -0.118836E-06  0.240E-03    8.29       8.2  T
   4    -50.7383843 -0.135584E-07  0.849E-04    8.29      23.1  T
   5    -50.7383843 -0.104362E-08  0.307E-04    8.29      63.9  T
speedup  1.14
cpu  time for SCC    0.00 s
wall time for SCC    0.00 s
speedup  0.99
cpu  time for grad    0.01 s
wall time for grad    0.01 s
 E :    -50.44624247  G :  0.001508    pred/act E change: -0.379D-05 -0.358D-05
Maxdispl :   0.0289   ||displ|| :   0.0545   Lambda : -0.400D-05
Largest |displ|/coords:  0.0289 (   1)  0.0207 (   3)  0.0203 (   2)

generating ANC from model Hessian ...
 Shifting diagonal of input Hessian by   5.363003192074943E-003
 Lowest  eigenvalues of input Hessian
    0.005000   -0.000000   -0.000000    0.000000    0.000000    0.000000
    0.000000    0.005512    0.005708    0.005813    0.006061    0.006427
    0.006743    0.006901    0.007427    0.007857    0.008813    0.009349
 Highest eigenvalues
    1.389971    1.399477    1.418309    2.572439    3.244620    3.846191
 
cpu  time for ANC gen    0.03 s
wall time for ANC gen    0.03 s
................................................................................
.............................. CYCLE   53 ......................................
................................................................................
   1    -50.7384123 -0.507384E+02  0.355E-02    8.29       0.0  T
   2    -50.7384125 -0.114751E-06  0.265E-02    8.29       1.0  T
   3    -50.7384126 -0.106592E-06  0.270E-03    8.29       7.3  T
   4    -50.7384126 -0.134812E-07  0.730E-04    8.29      26.9  T
   5    -50.7384126 -0.900620E-09  0.306E-04    8.29      64.2  T
speedup  0.89
cpu  time for SCC    0.00 s
wall time for SCC    0.00 s
speedup  1.01
cpu  time for grad    0.01 s
wall time for grad    0.01 s
 E :    -50.44624513  G :  0.001303    pred/act E change:  0.000D+00 -0.266D-05
Maxdispl :   0.0056   ||displ|| :   0.0129   Lambda : -0.263D-05
Largest |displ|/coords:  0.0056 (  10)  0.0053 (   5)  0.0049 (   4)
................................................................................
.............................. CYCLE   54 ......................................
................................................................................
   1    -50.7384817 -0.507385E+02  0.970E-03    8.29       0.0  T
   2    -50.7384818 -0.204212E-07  0.716E-03    8.29       2.7  T
   3    -50.7384818 -0.168814E-07  0.130E-03    8.29      15.1  T
   4    -50.7384818 -0.230703E-08  0.318E-04    8.29      61.7  T
   5    -50.7384818 -0.152454E-09  0.882E-05    8.29     222.3  T
speedup  0.91
cpu  time for SCC    0.00 s
wall time for SCC    0.00 s
speedup  0.93
cpu  time for grad    0.01 s
wall time for grad    0.01 s
 E :    -50.44624715  G :  0.000898    pred/act E change:  0.000D+00 -0.201D-05
Maxdispl :   0.0136   ||displ|| :   0.0292   Lambda : -0.390D-05
Largest |displ|/coords:  0.0136 (   5)  0.0128 (   4)  0.0113 (  10)
................................................................................
.............................. CYCLE   55 ......................................
................................................................................
   1    -50.7385792 -0.507386E+02  0.188E-02    8.29       0.0  T
   2    -50.7385792 -0.721828E-07  0.138E-02    8.29       1.4  T
   3    -50.7385793 -0.569089E-07  0.237E-03    8.29       8.3  T
   4    -50.7385793 -0.776323E-08  0.616E-04    8.29      31.8  T
   5    -50.7385793 -0.554941E-09  0.172E-04    8.29     114.1  T
speedup  1.11
cpu  time for SCC    0.00 s
wall time for SCC    0.00 s
speedup  1.01
cpu  time for grad    0.01 s
wall time for grad    0.01 s
 E :    -50.44624941  G :  0.000562    pred/act E change: -0.132D-05 -0.227D-05
Maxdispl :   0.0068   ||displ|| :   0.0153   Lambda : -0.114D-05
Largest |displ|/coords:  0.0068 (   5)  0.0061 (   4)  0.0059 (   6)
................................................................................
.............................. CYCLE   56 ......................................
................................................................................
   1    -50.7385718 -0.507386E+02  0.102E-02    8.29       0.0  T
   2    -50.7385718 -0.191357E-07  0.755E-03    8.29       2.6  T
   3    -50.7385718 -0.197611E-07  0.116E-03    8.29      16.9  T
   4    -50.7385718 -0.171022E-08  0.315E-04    8.29      62.2  T
   5    -50.7385718 -0.147068E-09  0.907E-05    8.29     216.2  T
speedup  0.89
cpu  time for SCC    0.00 s
wall time for SCC    0.00 s
speedup  1.00
cpu  time for grad    0.01 s
wall time for grad    0.01 s
 E :    -50.44625016  G :  0.000512    pred/act E change: -0.195D-05 -0.753D-06
Maxdispl :   0.0084   ||displ|| :   0.0211   Lambda : -0.134D-05
Largest |displ|/coords:  0.0084 (   5)  0.0080 (   4)  0.0062 (   6)
................................................................................
.............................. CYCLE   57 ......................................
................................................................................
   1    -50.7385367 -0.507385E+02  0.133E-02    8.29       0.0  T
   2    -50.7385367 -0.288321E-07  0.990E-03    8.29       2.0  T
   3    -50.7385367 -0.314953E-07  0.143E-03    8.29      13.7  T
   4    -50.7385367 -0.232593E-08  0.396E-04    8.29      49.5  T
   5    -50.7385367 -0.239844E-09  0.116E-04    8.29     168.7  T
speedup  0.91
cpu  time for SCC    0.00 s
wall time for SCC    0.00 s
speedup  1.01
cpu  time for grad    0.01 s
wall time for grad    0.01 s
 E :    -50.44625097  G :  0.000474    pred/act E change: -0.571D-06 -0.803D-06
Maxdispl :   0.0041   ||displ|| :   0.0107   Lambda : -0.650D-06
Largest |displ|/coords:  0.0041 (   1)  0.0039 (   3)  0.0038 (   5)
................................................................................
.............................. CYCLE   58 ......................................
................................................................................
   1    -50.7385318 -0.507385E+02  0.674E-03    8.29       0.0  T
   2    -50.7385318 -0.719434E-08  0.506E-03    8.29       3.9  T
   3    -50.7385318 -0.803850E-08  0.519E-04    8.29      37.8  T
   4    -50.7385318 -0.582631E-09  0.188E-04    8.29     104.6  T
speedup  1.11
cpu  time for SCC    0.00 s
wall time for SCC    0.00 s
speedup  0.99
cpu  time for grad    0.01 s
wall time for grad    0.01 s
 E :    -50.44625145  G :  0.000405    pred/act E change: -0.670D-06 -0.478D-06
Maxdispl :   0.0062   ||displ|| :   0.0145   Lambda : -0.730D-06
Largest |displ|/coords:  0.0062 (   3)  0.0055 (   1)  0.0053 (   5)
................................................................................
.............................. CYCLE   59 ......................................
................................................................................
   1    -50.7385518 -0.507386E+02  0.926E-03    8.29       0.0  T
   2    -50.7385518 -0.139224E-07  0.695E-03    8.29       2.8  T
   3    -50.7385518 -0.150020E-07  0.700E-04    8.29      28.0  T
   4    -50.7385518 -0.125309E-08  0.253E-04    8.29      77.5  T
speedup  1.11
cpu  time for SCC    0.00 s
wall time for SCC    0.00 s
speedup  1.00
cpu  time for grad    0.01 s
wall time for grad    0.01 s
 E :    -50.44625197  G :  0.000348    pred/act E change: -0.325D-06 -0.522D-06
Maxdispl :   0.0064   ||displ|| :   0.0153   Lambda : -0.556D-06
Largest |displ|/coords:  0.0064 (   3)  0.0062 (   5)  0.0060 (   1)
................................................................................
.............................. CYCLE   60 ......................................
................................................................................
   1    -50.7385839 -0.507386E+02  0.961E-03    8.29       0.0  T
   2    -50.7385839 -0.152425E-07  0.720E-03    8.29       2.7  T
   3    -50.7385839 -0.167468E-07  0.806E-04    8.29      24.3  T
   4    -50.7385839 -0.133567E-08  0.260E-04    8.29      75.3  T
speedup  0.86
cpu  time for SCC    0.00 s
wall time for SCC    0.00 s
speedup  1.00
cpu  time for grad    0.01 s
wall time for grad    0.01 s
 E :    -50.44625240  G :  0.000321    pred/act E change: -0.365D-06 -0.430D-06
Maxdispl :   0.0091   ||displ|| :   0.0209   Lambda : -0.639D-06
Largest |displ|/coords:  0.0091 (   5)  0.0082 (   1)  0.0074 (   3)
................................................................................
.............................. CYCLE   61 ......................................
................................................................................
   1    -50.7386273 -0.507386E+02  0.127E-02    8.29       0.0  T
   2    -50.7386274 -0.276921E-07  0.946E-03    8.29       2.1  T
   3    -50.7386274 -0.295606E-07  0.122E-03    8.29      16.1  T
   4    -50.7386274 -0.265589E-08  0.321E-04    8.29      61.1  T
   5    -50.7386274 -0.149406E-09  0.962E-05    8.29     203.8  T
speedup  1.14
cpu  time for SCC    0.00 s
wall time for SCC    0.00 s
speedup  1.02
cpu  time for grad    0.01 s
wall time for grad    0.01 s
 E :    -50.44625288  G :  0.000316    pred/act E change: -0.278D-06 -0.481D-06
Maxdispl :   0.0103   ||displ|| :   0.0227   Lambda : -0.583D-06
Largest |displ|/coords:  0.0103 (   5)  0.0090 (   1)  0.0077 (  10)
................................................................................
.............................. CYCLE   62 ......................................
................................................................................
   1    -50.7386560 -0.507387E+02  0.135E-02    8.29       0.0  T
   2    -50.7386560 -0.340722E-07  0.101E-02    8.29       2.0  T
   3    -50.7386561 -0.341744E-07  0.147E-03    8.29      13.4  T
   4    -50.7386561 -0.364731E-08  0.327E-04    8.29      60.0  T
   5    -50.7386561 -0.168598E-09  0.963E-05    8.29     203.6  T
speedup  0.91
cpu  time for SCC    0.00 s
wall time for SCC    0.00 s
speedup  1.01
cpu  time for grad    0.01 s
wall time for grad    0.01 s
 E :    -50.44625328  G :  0.000274    pred/act E change: -0.320D-06 -0.401D-06
Maxdispl :   0.0055   ||displ|| :   0.0125   Lambda : -0.330D-06
Largest |displ|/coords:  0.0055 (  10)  0.0053 (   5)  0.0047 (   1)
................................................................................
.............................. CYCLE   63 ......................................
................................................................................
   1    -50.7386615 -0.507387E+02  0.741E-03    8.29       0.0  T
   2    -50.7386615 -0.113068E-07  0.552E-03    8.29       3.6  T
   3    -50.7386615 -0.103726E-07  0.904E-04    8.29      21.7  T
   4    -50.7386615 -0.130965E-08  0.177E-04    8.29     111.1  T
speedup  0.83
cpu  time for SCC    0.00 s
wall time for SCC    0.00 s
speedup  0.99
cpu  time for grad    0.01 s
wall time for grad    0.01 s
 E :    -50.44625352  G :  0.000182    pred/act E change: -0.292D-06 -0.236D-06
Maxdispl :   0.0033   ||displ|| :   0.0062   Lambda : -0.173D-06
Largest |displ|/coords:  0.0033 (  10)  0.0022 (  13)  0.0015 (   5)
................................................................................
.............................. CYCLE   64 ......................................
................................................................................
   1    -50.7386445 -0.507386E+02  0.418E-03    8.29       0.0  T
   2    -50.7386446 -0.299703E-08  0.312E-03    8.29       6.3  T
   3    -50.7386446 -0.295926E-08  0.444E-04    8.29      44.2  T
   4    -50.7386446 -0.303800E-09  0.111E-04    8.29     176.7  T
speedup  1.11
cpu  time for SCC    0.00 s
wall time for SCC    0.00 s
speedup  0.99
cpu  time for grad    0.01 s
wall time for grad    0.01 s
 E :    -50.44625363  G :  0.000115    pred/act E change: -0.165D-06 -0.117D-06
Maxdispl :   0.0019   ||displ|| :   0.0034   Lambda : -0.745D-07
Largest |displ|/coords:  0.0019 (  10)  0.0011 (   9)  0.0010 (   2)
................................................................................
.............................. CYCLE   65 ......................................
................................................................................
   1    -50.7386225 -0.507386E+02  0.253E-03    8.29       0.0  T
   2    -50.7386225 -0.856474E-09  0.191E-03    8.29      10.3  T
   3    -50.7386225 -0.103389E-08  0.194E-04    8.29     101.3  T
   4    -50.7386225 -0.519336E-10  0.583E-05    8.29     336.1  T
speedup  1.11
cpu  time for SCC    0.00 s
wall time for SCC    0.00 s
speedup  0.99
cpu  time for grad    0.01 s
wall time for grad    0.01 s
 E :    -50.44625369  G :  0.000086    pred/act E change: -0.866D-07 -0.522D-07
Maxdispl :   0.0020   ||displ|| :   0.0036   Lambda : -0.584D-07
Largest |displ|/coords:  0.0020 (  10)  0.0014 (   9)  0.0010 (   2)

   *** GEOMETRY OPTIMIZATION CONVERGED AFTER 65 ITERATIONS ***

------------------------------------------------------------------------
 total energy gain (kcal):     -0.0054
------------------------------------------------------------------------
================
 final structure:
================
$coord
        0.99388095790146        3.96981122517414       -2.17996889500738      S 
        0.35418682203316        1.89058666629410       -3.83027156930211      O 
        0.63425481024795        6.43831896859359       -3.14069976040273      O 
       -0.54765757665038        3.56971342324568        0.31225459555449      O 
        3.73361853790036        3.68393198613219       -1.24136344923763      O 
        3.85330384769669        2.14206975126816       -0.13420653301080      H 
       -1.87021966997424        2.27219255422617       -0.11942690755456      H 
       -0.10357373816822       -1.51076208128915        3.95916837548666      O 
       -1.43582295673978       -0.27129866969437        4.26382121888734      H 
       -0.82801709549029       -2.74917733395360        2.81984941059969      H 
       -4.00116623629127        1.91181333137616        4.07960102819530      O 
       -4.95108852917224        1.44905730247454        2.59846537480783      H 
       -3.13719378016070        3.45773872526521        3.67278385705663      H 
       -3.74539214214708        0.30524622880664       -1.28969175887475      O 
       -2.90995220106766        0.56585709380429       -2.89868432122471      H 
       -3.26851253452958       -1.41662759148403       -0.76849942661240      H 
        4.06345344702903       -0.13064388872409        1.74142739245245      O 
        2.43206001130885       -0.59122387772568        2.58931274379509      H 
        5.18686569059438        0.35956850597756        3.07676686323251      H 
       -1.88754925152039       -4.25512619889481       -0.11430871870694      O 
       -0.29256025271263       -3.97251296166500       -1.13129276167332      H 
       -2.56111279905678       -5.86196499595976       -0.60177122176067      H 
        2.16914891090749       -3.07290058986389       -2.69933569061008      N 
        3.54351237195297       -2.69991240604772       -1.41636001412493      H 
        1.63633727671282       -1.37295374804853       -3.43886614841038      H 
        2.93919607936361       -4.11080145709897       -4.10870368353850      H 
$end
 
 Bond Distances (Angstroems)
 ---------------------------
S1-O2=1.4449         S1-O3=1.4146         S1-O4=1.5651         S1-O5=1.5400         O2-S1=1.4449         O3-S1=1.4146         
O4-S1=1.5651         O4-H7=1.0067         O5-S1=1.5400         O5-H6=1.0065         H6-O5=1.0065         H7-O4=1.0067         
O8-H9=0.9763         O8-H10=0.9695        H9-O8=0.9763         H10-O8=0.9695        O11-H12=0.9628       O11-H13=0.9616       
H12-O11=0.9628       H13-O11=0.9616       O14-H15=0.9692       O14-H16=0.9849       H15-O14=0.9692       H16-O14=0.9849       
O17-H18=1.0030       O17-H19=0.9592       H18-O17=1.0030       H19-O17=0.9592       O20-H21=1.0121       O20-H22=0.9574       
H21-O20=1.0121       H22-O20=0.9574       N23-H24=1.0143       N23-H25=1.0207       N23-H26=1.0119       H24-N23=1.0143       
H25-N23=1.0207       H26-N23=1.0119       
 N  H  Rav=1.0156 sigma=0.0037  Rmin=1.0119  Rmax=1.0207     3
 O  H  Rav=0.9808 sigma=0.0200  Rmin=0.9574  Rmax=1.0121    12
 S  O  Rav=1.4912 sigma=0.0630  Rmin=1.4146  Rmax=1.5651     4
 
 selected bond angles (degree)
 --------------------
O3-S1-O2=117.03                O4-S1-O2=106.51                O4-S1-O3=110.96                O5-S1-O2=109.92                
O5-S1-O3=109.47                O5-S1-O4=101.87                H7-O4-S1=105.27                H6-O5-S1=109.06                
H10-O8-H9=105.74               
 
 selected dihedral angles (degree)
 ---------------------------------
H7-O4-S1-O2=345.20            H7-O4-S1-O3=113.59            H7-O4-S1-O5=230.02            H6-O5-S1-O2=294.04            
H6-O5-S1-O3=164.19            H6-O5-S1-O4= 46.68            
 
 CMA Distance (Angstroems)
 ---------------------------
R(CMA):  3.1885

========================================================================
 FINAL SINGLEPOINT CALCULATION ON OPTIMIZED GEOMETRY
========================================================================

 Ncao       : 65
 Nao        : 64
 Nshell     : 38
 Nel        : 80
 T(el)      :   300.0
 intcut     :    25.0
 scfconv/Eh :  0.100E-05
   qconv/e  :  0.100E-03
 intneglect :  0.100E-07
 broydamp   :      0.250
 iter      E             dE          RMSdq      gap      omega  full diag
   1    -50.7386225 -0.507386E+02  0.265E-05    8.29       0.0  T
   2    -50.7386225 -0.305533E-12  0.180E-05    8.29    1090.8  T
   3    -50.7386225 -0.426326E-12  0.436E-06    8.29    4497.6  T
speedup  1.11
cpu  time for SCC    0.00 s
wall time for SCC    0.00 s

   *** convergence criteria satisfied after 3 iterations ***

          eigenvalues
 #    :          28         29         30         31         32         33         34         35
 occ. :        2.000      2.000      2.000      2.000      2.000      2.000      2.000      2.000
 eps  :       -13.721    -13.587    -13.081    -12.779    -12.681    -12.598    -12.554    -12.465
 #    :          36         37         38         39         40         41         42         43
 occ. :        2.000      2.000      2.000      2.000      2.000      0.000      0.000      0.000
 eps  :       -12.358    -12.314    -12.074    -12.001    -11.299     -3.009     -0.954     -0.734
 #    :          44         45         46         47         48         49         50         51
 occ. :        0.000      0.000      0.000      0.000      0.000      0.000      0.000      0.000
 eps  :        -0.103      0.984      1.150      1.574      2.551      3.332      4.655      5.267


   #   Z            q   n(s)   n(p)   n(d)      C6AA      α(0)
   1  16 S      1.678  1.581  1.792  0.948    89.263    15.901
   2   8 O     -0.721  1.761  4.960  0.000    29.294     7.257
   3   8 O     -0.639  1.752  4.887  0.000    27.088     6.978
   4   8 O     -0.637  1.759  4.878  0.000    26.063     6.892
   5   8 O     -0.602  1.753  4.849  0.000    25.203     6.777
   6   1 H      0.390  0.610  0.000  0.000     0.500     1.109
   7   1 H      0.389  0.611  0.000  0.000     0.500     1.108
   8   8 O     -0.628  1.755  4.873  0.000    25.878     6.866
   9   1 H      0.324  0.676  0.000  0.000     0.652     1.269
  10   1 H      0.319  0.681  0.000  0.000     0.667     1.283
  11   8 O     -0.585  1.740  4.845  0.000    24.839     6.727
  12   1 H      0.311  0.689  0.000  0.000     0.689     1.304
  13   1 H      0.306  0.694  0.000  0.000     0.704     1.318
  14   8 O     -0.628  1.757  4.871  0.000    25.859     6.863
  15   1 H      0.317  0.683  0.000  0.000     0.671     1.287
  16   1 H      0.343  0.657  0.000  0.000     0.606     1.223
  17   8 O     -0.626  1.757  4.869  0.000    25.812     6.857
  18   1 H      0.354  0.646  0.000  0.000     0.580     1.197
  19   1 H      0.295  0.705  0.000  0.000     0.735     1.346
  20   8 O     -0.634  1.749  4.885  0.000    26.030     6.886
  21   1 H      0.325  0.675  0.000  0.000     0.647     1.262
  22   1 H      0.282  0.718  0.000  0.000     0.777     1.385
  23   7 N     -0.462  1.370  4.092  0.000    32.181     8.425
  24   1 H      0.180  0.820  0.000  0.000     1.214     1.726
  25   1 H      0.195  0.805  0.000  0.000     1.131     1.666
  26   1 H      0.154  0.846  0.000  0.000     1.375     1.837

 Mol. C6AA /au·bohr⁶  :       5447.804548
 Mol. C8AA /au·bohr⁸  :     117689.023404
 Mol. α(0) /au        :        106.746891

 
 Wiberg/Mayer (AO) data. WBOs > 0.1 written file <wbo>
 largest (>0.05) Wiberg bond orders for each atom
           total WBO             WBO to atom ...
     1  S   4.862    O    3 1.511    O    2 1.349    O    5 1.013    O    4 0.956
     2  O   1.733    S    1 1.349    O    3 0.124    O    4 0.089    O    5 0.088
     3  O   1.820    S    1 1.511    O    2 0.124    O    4 0.088    O    5 0.079
     4  O   1.947    S    1 0.956    H    7 0.697    O    2 0.089    O    3 0.088    O    5 0.059
     5  O   1.990    S    1 1.013    H    6 0.701    O    2 0.088    O    3 0.079    O    4 0.059
     6  H   0.848    O    5 0.701    O   17 0.128
     7  H   0.848    O    4 0.697    O   14 0.129
     8  O   1.893    H   10 0.862    H    9 0.840    H   18 0.101
     9  H   0.895    O    8 0.840
    10  H   0.898    O    8 0.862
    11  O   1.882    H   13 0.899    H   12 0.893
    12  H   0.903    O   11 0.893
    13  H   0.906    O   11 0.899
    14  O   1.920    H   15 0.869    H   16 0.815    H    7 0.129
    15  H   0.899    O   14 0.869
    16  H   0.883    O   14 0.815    O   20 0.064
    17  O   1.913    H   19 0.908    H   18 0.770    H    6 0.128
    18  H   0.875    O   17 0.770    O    8 0.101
    19  H   0.913    O   17 0.908
    20  O   1.872    H   22 0.910    H   21 0.764    H   16 0.064    N   23 0.055
    21  H   0.894    O   20 0.764    N   23 0.128
    22  H   0.920    O   20 0.910
    23  N   3.071    H   26 0.971    H   24 0.956    H   25 0.929    H   21 0.128    O   20 0.055
    24  H   0.968    N   23 0.956
    25  H   0.962    N   23 0.929
    26  H   0.976    N   23 0.971
 MOs/occ written to file <molden.input>
 
molecular dipole:
                 x           y           z       tot (Debye)
 q only:        0.005      -1.943       0.481
   full:        0.315      -2.056       0.127       5.296
molecular quadrupole (traceless):
                xx          xy          yy          xz          yz          zz
 q only:        8.373      -2.279      -4.537       4.846      14.084      -3.836
  q+dip:        9.195      -2.069      -3.968       5.804      17.273      -5.227
   full:        9.382      -1.731      -4.078       5.853      17.323      -5.304

SCC energy    :     -50.7386225
rep           :       0.2919647
ES            :       0.2344455
AES           :      -0.0517500
AXC           :      -0.0067737
disp          :      -0.0190498
XB            :       0.0000000
fix           :       0.0000000
total E       :     -50.4462537
atomizationE  :       4.9765578     3122.84
(atE without considering molecular charge,
 total energy contains solvation terms)
H-L gap (eV)  :          8.2908
optimized geometry written to: xtbopt.xyz


------------------------------------------------------------------------
 * finished run on 2019/09/16 at 11:39:53.323     
------------------------------------------------------------------------
 total:
 * wall-time:     0 d,  0 h,  0 min,  1.613 sec
 *  cpu-time:     0 d,  0 h,  0 min,  1.576 sec
 * ratio c/w:     0.977 speedup
 SCF:
 * wall-time:     0 d,  0 h,  0 min,  0.166 sec
 *  cpu-time:     0 d,  0 h,  0 min,  0.152 sec
 * ratio c/w:     0.916 speedup
 ANC optimizer:
 * wall-time:     0 d,  0 h,  0 min,  1.422 sec
 *  cpu-time:     0 d,  0 h,  0 min,  1.401 sec
 * ratio c/w:     0.985 speedup

