      -----------------------------------------------------------      
     |                   =====================                   |     
     |                           x T B                           |     
     |                   =====================                   |     
     |                         S. Grimme                         |     
     |          Mulliken Center for Theoretical Chemistry        |     
     |                    University of Bonn                     |     
     |                 Version 6.0.1 (SAW181210)                 |     
      -----------------------------------------------------------      

   This program is distributed in the hope that it will be useful,
   but WITHOUT ANY WARRANTY; without even the implied warranty of
   MERCHANTABILITY or FITNESS FOR A PARTICULAR PURPOSE.
   
   FOR NON-COMMERCIAL, ACADEMIA USE ONLY.
   
   Cite this work as:
   S. Grimme, C. Bannwarth, P. Shushkov, J. Comput. Theory Chem., 2017,
   13, 1989-2009.
   C. Bannwarth, S. Ehlert and S. Grimme., ChemRxiv, 2018, preprint.
   http://doi.org/10.26434/chemrxiv.7246238.v1
   
   for sTDA-xTB:
   S. Grimme and C. Bannwarth, J. Chem. Phys., 2016, 145, 054103.
   
   in the mass-spec context:
   V. Asgeirsson, C. Bauer and S. Grimme, Chem. Sci., 2017, 8, 4879.
   
   if GBSA is used:
   P. Shushkov, F. März and S. Grimme, unpublished.
   
   for ANC optimizer:
   S. Grimme, unpublished.
   Rational Function algorithm used in ANCopt:
   F. Eckert, P. Pulay, H.-J. Werner, J. Comput. Chem., 1997, 18, 1473.
   
   with help from (in alphabetical order)
   C. Bannwarth, F. Bohle, G. Brandenburg, E. Caldeweyher, M. Checinski,
   S. Dohm, S. Ehlert, S. Ehrlich, F. März, H. Neugebauer, J. Pisarek,
   P. Pracht, P. Shushkov, and S. Spicher.
   
 * started run on 2019/09/16 at 11:31:51.237     
========================================================================
 # omp threads = 1
========================================================================
number of atoms            : 26
number of electrons        : 80
charge                     : 0
spin                       : .0
first test random number   : .2734

########################################################################
# WARNING! Please study the warnings concerning your input carefully
#  - XTBPATH is not set, using XTBHOME instead
#  - the use of '-opt' is discouraged, please use '--opt' next time
#  - the use of '-chrg' is discouraged, please use '--chrg' next time
#  - the use of '-uhf' is discouraged, please use '--uhf' next time
########################################################################

           ------------------------------------------------- 
          |                 G F N 2 - x T B                 |
          | Geometry, Frequencies, Noncovalent interactions |
          |            JCTC 2018 parametrisation            |
           ------------------------------------------------- 
      method parameters     
 k(s)        :  1.8500
 k(p)        :  2.2300
 k(d)        :  2.2300
 k(f)        :  2.0000
 kEN (H0ij)  : -2.0000
 D4 a1       :  0.5200
 D4 a2       :  5.0000
 D4 s6       :  1.0000
 D4 s8       :  2.7000
 D4 s9       :  5.0000
 alphaj      :  2.0000


            Z     q(EN)     CN     RAES       Cart. coordinates
     1  S   6.0    0.58    4.29    4.22     2.20579     2.57398     2.56894
     2  O   6.0   -0.32    1.13    1.80     0.67000     0.79848     4.00784
     3  O   6.0   -0.28    1.09    1.80     2.17050     5.26474     3.01186
     4  O   6.0   -0.23    2.04    1.83     5.10985     1.52210     2.64252
     5  O   6.0   -0.25    2.10    1.84     1.72646     2.22725    -0.41731
     6  H   1.0    0.18    1.31    1.50     1.58271     0.43430    -0.80592
     7  H   1.0    0.16    1.18    1.46     5.34227     0.67970     4.26199
     8  O   6.0   -0.39    1.68    1.81     1.11340    -2.27022    -1.28836
     9  H   1.0    0.18    0.94    1.42     2.50382    -3.49747    -1.07782
    10  O   6.0   -0.28    2.02    1.83     4.81249    -0.71034     7.16145
    11  H   1.0    0.14    0.97    1.43     5.48754    -1.51522     8.64842
    12  H   1.0    0.15    0.98    1.43     3.04241    -1.13597     7.14516
    13  O   6.0   -0.30    2.05    1.83    -5.96002    -2.57678    -1.99565
    14  H   1.0    0.16    1.04    1.44    -4.96001    -2.69261    -0.47869
    15  H   1.0    0.15    0.97    1.43    -7.62456    -3.13970    -1.51916
    16  O   6.0   -0.29    2.05    1.83    -2.53548    -2.62589     1.62665
    17  H   1.0    0.18    1.12    1.45    -1.09424    -2.74786     0.52095
    18  H   1.0    0.17    1.00    1.43    -1.95694    -1.67723     3.06886
    19  O   6.0   -0.23    2.92    2.59    -1.90931    -1.50197    -4.54677
    20  H   1.0    0.16    1.22    1.47    -0.54698    -2.00027    -3.36967
    21  H   1.0    0.14    1.06    1.44    -3.60062    -1.94424    -3.88806
    22  H   1.0    0.12    1.06    1.44    -1.79526     0.30063    -5.02542
    23  N   5.0   -0.22    3.04    1.93    -1.17310     3.55232    -5.16271
    24  H   1.0    0.12    1.01    1.43    -0.00196     3.56277    -3.63320
    25  H   1.0    0.11    0.99    1.43    -2.49225     4.91394    -4.82081
    26  H   1.0    0.10    0.99    1.43    -0.11649     4.20557    -6.63508

  Z AO/shell   Hii/eV     exponent
  1     Wed Apr 25 08:07:45 CEST 2018   EN: 2.200 GM2: 0.406  GM3: 0.0800  RAES: 1.40
     1s    -10.707211    1.230000
  7     Wed Apr 25 08:07:45 CEST 2018   EN: 3.040 GM2: 0.461  GM3:-0.0640  RAES: 1.90
     2s    -16.686243    2.339881
     2p    -12.523956    2.014332
  8     Wed Apr 25 08:07:45 CEST 2018   EN: 3.440 GM2: 0.452  GM3:-0.0517  RAES: 1.80
     2s    -20.229985    2.439742
     2p    -15.503117    2.137023
 16     Tue Apr 24 11:44:34 CEST 2018   EN: 2.580 GM2: 0.340  GM3:-0.0502  RAES: 3.10
     3s    -20.029654    1.981333
     3p    -11.377694    2.025643
     3d     -0.420282    1.702555
 no old-style atom pair restraining (fixing) potential

molecular fragmentation (1/2 indicates fragments):
11111112222222222222222222
# atoms in fragment 1/2:     7    19
 fragment masses (1/2) :       98.07      107.11
CMA distance (Bohr)    :   5.693
constraining FC (au)   :  0.0500
           ------------------------------------------------- 
          |        Self-Consistent Charge Iterations        |
           ------------------------------------------------- 

 Ncao       : 65
 Nao        : 64
 Nshell     : 38
 Nel        : 80
 T(el)      :   300.0
 intcut     :    25.0
 scfconv/Eh :  0.100E-05
   qconv/e  :  0.100E-03
 intneglect :  0.100E-07
 broydamp   :      0.250
 iter      E             dE          RMSdq      gap      omega  full diag
   1    -50.5794310 -0.505794E+02  0.707E+00    8.02       0.0  T
   2    -50.6278524 -0.484214E-01  0.497E+00    7.39       1.0  T
   3    -50.6654544 -0.376021E-01  0.117E+00    5.21       1.0  T
   4    -50.6693919 -0.393742E-02  0.632E-01    5.41       1.0  T
   5    -50.6706794 -0.128752E-02  0.268E-01    5.48       1.0  T
   6    -50.6710071 -0.327724E-03  0.157E-01    5.52       1.0  T
   7    -50.6711494 -0.142256E-03  0.562E-02    5.51       1.0  T
   8    -50.6711698 -0.204149E-04  0.239E-02    5.50       1.0  T
   9    -50.6711727 -0.292349E-05  0.123E-02    5.51       1.6  T
  10    -50.6711735 -0.822606E-06  0.302E-03    5.52       6.5  T
  11    -50.6711736 -0.264936E-07  0.125E-03    5.52      15.7  T
  12    -50.6711736 -0.529576E-08  0.489E-04    5.52      40.1  T
  13    -50.6711736 -0.109095E-08  0.208E-04    5.52      94.4  T
speedup  1.04
cpu  time for SCC    0.02 s
wall time for SCC    0.02 s

   *** convergence criteria satisfied after 13 iterations ***

          eigenvalues
 #    :          28         29         30         31         32         33         34         35
 occ. :        2.000      2.000      2.000      2.000      2.000      2.000      2.000      2.000
 eps  :       -12.796    -12.678    -12.541    -12.388    -12.175    -12.147    -12.110    -11.990
 #    :          36         37         38         39         40         41         42         43
 occ. :        2.000      2.000      2.000      2.000      2.000      0.000      0.000      0.000
 eps  :       -11.785    -11.652    -10.813    -10.063     -9.751     -4.234     -1.525     -0.799
 #    :          44         45         46         47         48         49         50         51
 occ. :        0.000      0.000      0.000      0.000      0.000      0.000      0.000      0.000
 eps  :        -0.423      0.930      1.358      1.661      2.792      3.935      4.747      4.812


   #   Z            q   n(s)   n(p)   n(d)      C6AA      α(0)
   1  16 S      1.630  1.632  1.810  0.929    90.368    16.000
   2   8 O     -0.673  1.771  4.903  0.000    27.987     7.093
   3   8 O     -0.632  1.770  4.862  0.000    26.921     6.957
   4   8 O     -0.592  1.762  4.830  0.000    24.968     6.746
   5   8 O     -0.618  1.757  4.861  0.000    25.594     6.830
   6   1 H      0.389  0.611  0.000  0.000     0.501     1.109
   7   1 H      0.372  0.628  0.000  0.000     0.537     1.149
   8   8 O     -0.863  1.831  5.032  0.000    33.497     7.762
   9   1 H      0.215  0.785  0.000  0.000     1.047     1.607
  10   8 O     -0.590  1.739  4.850  0.000    24.938     6.740
  11   1 H      0.300  0.700  0.000  0.000     0.721     1.333
  12   1 H      0.315  0.685  0.000  0.000     0.679     1.294
  13   8 O     -0.623  1.730  4.893  0.000    25.744     6.848
  14   1 H      0.345  0.655  0.000  0.000     0.600     1.217
  15   1 H      0.284  0.716  0.000  0.000     0.770     1.378
  16   8 O     -0.672  1.748  4.924  0.000    26.973     7.009
  17   1 H      0.329  0.671  0.000  0.000     0.638     1.254
  18   1 H      0.291  0.709  0.000  0.000     0.749     1.359
  19   8 O     -0.455  1.657  4.798  0.000    21.884     6.318
  20   1 H      0.410  0.590  0.000  0.000     0.459     1.061
  21   1 H      0.403  0.597  0.000  0.000     0.478     1.087
  22   1 H      0.377  0.623  0.000  0.000     0.530     1.144
  23   7 N     -0.451  1.379  4.072  0.000    31.836     8.380
  24   1 H      0.196  0.804  0.000  0.000     1.127     1.663
  25   1 H      0.157  0.843  0.000  0.000     1.352     1.821
  26   1 H      0.155  0.845  0.000  0.000     1.366     1.831

 Mol. C6AA /au·bohr⁶  :       5477.526728
 Mol. C8AA /au·bohr⁸  :     118407.179733
 Mol. α(0) /au        :        106.989288

 
 Wiberg/Mayer (AO) data. WBOs > 0.1 written file <wbo>
 largest (>0.05) Wiberg bond orders for each atom
           total WBO             WBO to atom ...
     1  S   4.781    O    3 1.475    O    2 1.389    O    5 0.979    O    4 0.908
     2  O   1.760    S    1 1.389    O    3 0.141    O    5 0.098    O    4 0.096
     3  O   1.809    S    1 1.475    O    2 0.141    O    4 0.094    O    5 0.087
     4  O   1.974    S    1 0.908    H    7 0.796    O    2 0.096    O    3 0.094    O    5 0.055
     5  O   1.971    S    1 0.979    H    6 0.668    O    2 0.098    O    3 0.087    O    4 0.055    O    8 0.051
     6  H   0.849    O    5 0.668    O    8 0.166
     7  H   0.861    O    4 0.796
     8  O   1.593    H    9 0.937    H   20 0.202    H    6 0.166    H   17 0.112    O   19 0.061    O    5 0.051
     9  H   0.954    O    8 0.937
    10  O   1.858    H   11 0.900    H   12 0.893
    11  H   0.910    O   10 0.900
    12  H   0.901    O   10 0.893
    13  O   1.847    H   15 0.904    H   14 0.820    H   21 0.070
    14  H   0.881    O   13 0.820    O   16 0.058
    15  H   0.919    O   13 0.904
    16  O   1.813    H   18 0.888    H   17 0.778    H   14 0.058
    17  H   0.892    O   16 0.778    O    8 0.112
    18  H   0.915    O   16 0.888
    19  O   2.286    H   22 0.760    H   21 0.759    H   20 0.626    O    8 0.061
    20  H   0.832    O   19 0.626    O    8 0.202
    21  H   0.837    O   19 0.759    O   13 0.070
    22  H   0.858    O   19 0.760    N   23 0.092
    23  N   3.030    H   26 0.973    H   25 0.971    H   24 0.943    H   22 0.092
    24  H   0.962    N   23 0.943
    25  H   0.975    N   23 0.971
    26  H   0.976    N   23 0.973
 MOs/occ written to file <molden.input>
 
molecular dipole:
                 x           y           z       tot (Debye)
 q only:       -1.130      -0.838      -1.280
   full:       -0.786      -0.832      -0.550       3.227
molecular quadrupole (traceless):
                xx          xy          yy          xz          yz          zz
 q only:       -1.297      -6.007     -16.093      11.737     -12.241      17.390
  q+dip:       -2.165      -8.337     -14.939      10.297     -18.362      17.105
   full:       -1.636      -8.589     -15.772      10.599     -18.482      17.407

SCC energy    :     -50.6711736
rep           :       0.2848719
ES            :       0.2708122
AES           :      -0.0533696
AXC           :      -0.0038142
disp          :      -0.0165914
XB            :       0.0000000
fix           :       0.0000000
total E       :     -50.3860964
atomizationE  :       4.9164006     3085.09
(atE without considering molecular charge,
 total energy contains solvation terms)
H-L gap (eV)  :          5.5172
           ------------------------------------------------- 
          |                 ===============                 |
          |                   A N C O P T                   |
          |                 ===============                 |
          |          Approximate Normal Coordinate          |
          |           Rational Function Optimizer           |
           ------------------------------------------------- 
dumping coords to <xtbopt.coord> and <xtbopt.log>
 optlevel               2
 Maxcycle             520
 Maxmicro              25
 Econv         1.000000000000000E-007
 Gconv         2.000000000000000E-004
 Maxdispl       1.00000000000000     
 Hlow          5.000000000000000E-003
 S6             20.0000000000000     
 Nvar               72

generating ANC from model Hessian ...
 Shifting diagonal of input Hessian by   5.241068636407837E-003
 Lowest  eigenvalues of input Hessian
    0.005000    0.005085    0.005191   -0.000000   -0.000000   -0.000000
   -0.000000    0.000000    0.000000    0.005443    0.005647    0.005898
    0.006056    0.006420    0.006568    0.006955    0.007115    0.007427
 Highest eigenvalues
    1.439693    1.557696    1.593256    1.952042    2.766854    3.589045
 
cpu  time for ANC gen    0.01 s
wall time for ANC gen    0.01 s
................................................................................
.............................. CYCLE    1 ......................................
................................................................................
   1    -50.6711736 -0.506712E+02  0.500E-05    5.52       0.0  T
   2    -50.6711736 -0.343903E-11  0.383E-05    5.52     511.7  T
   3    -50.6711736 -0.404299E-11  0.143E-05    5.52    1367.5  T
speedup  0.67
cpu  time for SCC    0.00 s
wall time for SCC    0.00 s
speedup  0.90
cpu  time for grad    0.01 s
wall time for grad    0.01 s
 E :    -50.38609639  G :  0.156085    pred/act E change:  0.000D+00  0.287D-07
Maxdispl :   0.1607   ||displ|| :   0.3067   Lambda : -0.238D-01
Largest |displ|/coords:  0.1607 (  22)  0.0762 (  54)  0.0760 (  28)
................................................................................
.............................. CYCLE    2 ......................................
................................................................................
   1    -50.6814079 -0.506814E+02  0.348E-01    6.31       0.0  T
   2    -50.6815593 -0.151356E-03  0.258E-01    6.39       1.0  T
   3    -50.6816394 -0.801071E-04  0.596E-02    6.55       1.0  T
   4    -50.6816541 -0.147604E-04  0.228E-02    6.53       1.0  T
   5    -50.6816550 -0.869699E-06  0.581E-03    6.52       3.4  T
   6    -50.6816551 -0.681617E-07  0.324E-03    6.52       6.0  T
speedup  1.09
cpu  time for SCC    0.01 s
wall time for SCC    0.01 s
speedup  1.01
cpu  time for grad    0.01 s
wall time for grad    0.01 s
 E :    -50.40454609  G :  0.089712    pred/act E change:  0.000D+00 -0.184D-01
Maxdispl :   0.1680   ||displ|| :   0.3493   Lambda : -0.112D-01
Largest |displ|/coords:  0.1680 (  22)  0.1400 (  15)  0.0832 (  27)
................................................................................
.............................. CYCLE    3 ......................................
................................................................................
   1    -50.6868523 -0.506869E+02  0.335E-01    7.16       0.0  T
   2    -50.6870374 -0.185127E-03  0.248E-01    7.26       1.0  T
   3    -50.6871183 -0.809100E-04  0.645E-02    7.46       1.0  T
   4    -50.6871365 -0.182087E-04  0.196E-02    7.42       1.0  T
   5    -50.6871373 -0.823211E-06  0.483E-03    7.41       4.1  T
   6    -50.6871374 -0.349084E-07  0.286E-03    7.41       6.9  T
speedup  0.91
cpu  time for SCC    0.00 s
wall time for SCC    0.01 s
speedup  1.01
cpu  time for grad    0.01 s
wall time for grad    0.01 s
 E :    -50.41379471  G :  0.062177    pred/act E change: -0.130D-01 -0.925D-02
Maxdispl :   0.1485   ||displ|| :   0.3702   Lambda : -0.686D-02
Largest |displ|/coords:  0.1485 (  22)  0.1162 (   6)  0.1046 (  15)
................................................................................
.............................. CYCLE    4 ......................................
................................................................................
   1    -50.6912428 -0.506912E+02  0.267E-01    7.88       0.0  T
   2    -50.6914197 -0.176956E-03  0.194E-01    7.98       1.0  T
   3    -50.6914962 -0.765002E-04  0.600E-02    8.14       1.0  T
   4    -50.6915075 -0.112715E-04  0.159E-02    8.12       1.2  T
   5    -50.6915081 -0.609716E-06  0.447E-03    8.12       4.4  T
   6    -50.6915081 -0.297310E-07  0.263E-03    8.12       7.5  T
speedup  1.03
cpu  time for SCC    0.01 s
wall time for SCC    0.01 s
speedup  0.98
cpu  time for grad    0.01 s
wall time for grad    0.01 s
 E :    -50.41956159  G :  0.046122    pred/act E change: -0.629D-02 -0.577D-02
Maxdispl :   0.2426   ||displ|| :   0.5617   Lambda : -0.953D-02
Largest |displ|/coords:  0.2426 (  22)  0.2123 (  15)  0.1827 (  27)
................................................................................
.............................. CYCLE    5 ......................................
................................................................................
   1    -50.6930859 -0.506931E+02  0.540E-01    8.93       0.0  T
   2    -50.6939370 -0.851113E-03  0.388E-01    9.04       1.0  T
   3    -50.6942921 -0.355021E-03  0.132E-01    9.19       1.0  T
   4    -50.6943389 -0.468764E-04  0.330E-02    9.19       1.0  T
   5    -50.6943417 -0.279174E-05  0.107E-02    9.18       1.8  T
   6    -50.6943420 -0.239229E-06  0.578E-03    9.18       3.4  T
   7    -50.6943420 -0.643359E-07  0.184E-03    9.18      10.7  T
speedup  0.92
cpu  time for SCC    0.01 s
wall time for SCC    0.01 s
speedup  0.99
cpu  time for grad    0.01 s
wall time for grad    0.01 s
 E :    -50.42532855  G :  0.039828    pred/act E change: -0.390D-02 -0.577D-02
Maxdispl :   0.2451   ||displ|| :   0.6101   Lambda : -0.716D-02
Largest |displ|/coords:  0.2451 (   6)  0.2370 (  13)  0.2210 (   2)
................................................................................
.............................. CYCLE    6 ......................................
................................................................................
   1    -50.7075670 -0.507076E+02  0.628E-01    9.46       0.0  T
   2    -50.7082067 -0.639719E-03  0.468E-01    9.45       1.0  T
   3    -50.7084763 -0.269613E-03  0.131E-01    9.41       1.0  T
   4    -50.7085495 -0.731621E-04  0.299E-02    9.42       1.0  T
   5    -50.7085522 -0.269387E-05  0.101E-02    9.42       2.0  T
   6    -50.7085523 -0.993804E-07  0.545E-03    9.42       3.6  T
   7    -50.7085523 -0.351662E-07  0.157E-03    9.42      12.5  T
speedup  1.04
cpu  time for SCC    0.01 s
wall time for SCC    0.01 s
speedup  1.05
cpu  time for grad    0.01 s
wall time for grad    0.01 s
 E :    -50.42466582  G :  0.075648    pred/act E change: -0.627D-02  0.663D-03
Maxdispl :   0.2160   ||displ|| :   0.4630   Lambda : -0.129D-01
Largest |displ|/coords:  0.2160 (  15)  0.1780 (  13)  0.1558 (  12)
................................................................................
.............................. CYCLE    7 ......................................
................................................................................
   1    -50.6888026 -0.506888E+02  0.729E-01    9.00       0.0  T
   2    -50.6893045 -0.501878E-03  0.547E-01    9.00       1.0  T
   3    -50.6895474 -0.242941E-03  0.122E-01    9.00       1.0  T
   4    -50.6896193 -0.719135E-04  0.342E-02    8.99       1.0  T
   5    -50.6896218 -0.249358E-05  0.104E-02    8.99       1.9  T
   6    -50.6896220 -0.121081E-06  0.575E-03    8.99       3.4  T
   7    -50.6896220 -0.524207E-07  0.170E-03    8.99      11.5  T
speedup  1.09
cpu  time for SCC    0.01 s
wall time for SCC    0.01 s
speedup  1.00
cpu  time for grad    0.01 s
wall time for grad    0.01 s
 E :    -50.42656291  G :  0.064232    pred/act E change: -0.491D-02 -0.190D-02
Maxdispl :   0.2354   ||displ|| :   0.5045   Lambda : -0.140D-01
Largest |displ|/coords:  0.2354 (  13)  0.1616 (  15)  0.1585 (  10)
................................................................................
.............................. CYCLE    8 ......................................
................................................................................
   1    -50.7101540 -0.507102E+02  0.761E-01    9.18       0.0  T
   2    -50.7106826 -0.528601E-03  0.571E-01    9.19       1.0  T
   3    -50.7109607 -0.278085E-03  0.125E-01    9.14       1.0  T
   4    -50.7110379 -0.772002E-04  0.252E-02    9.16       1.0  T
   5    -50.7110391 -0.123282E-05  0.124E-02    9.16       1.6  T
   6    -50.7110393 -0.144209E-06  0.568E-03    9.16       3.5  T
   7    -50.7110393 -0.469488E-07  0.154E-03    9.16      12.8  T
speedup  0.94
cpu  time for SCC    0.01 s
wall time for SCC    0.01 s
speedup  1.00
cpu  time for grad    0.01 s
wall time for grad    0.01 s
 E :    -50.42796531  G :  0.062082    pred/act E change: -0.784D-02 -0.140D-02
Maxdispl :   0.1469   ||displ|| :   0.3306   Lambda : -0.525D-02
Largest |displ|/coords:  0.1469 (   4)  0.1384 (  23)  0.0986 (   5)
................................................................................
.............................. CYCLE    9 ......................................
................................................................................
   1    -50.7054055 -0.507054E+02  0.342E-01    8.97       0.0  T
   2    -50.7054645 -0.589895E-04  0.257E-01    8.96       1.0  T
   3    -50.7055055 -0.409313E-04  0.431E-02    8.93       1.0  T
   4    -50.7055135 -0.803014E-05  0.104E-02    8.93       1.9  T
   5    -50.7055137 -0.151002E-06  0.483E-03    8.93       4.1  T
   6    -50.7055137 -0.330779E-07  0.225E-03    8.93       8.7  T
speedup  0.91
cpu  time for SCC    0.00 s
wall time for SCC    0.01 s
speedup  0.99
cpu  time for grad    0.01 s
wall time for grad    0.01 s
 E :    -50.42971384  G :  0.042035    pred/act E change: -0.880D-02 -0.175D-02
Maxdispl :   0.1424   ||displ|| :   0.3522   Lambda : -0.435D-02
Largest |displ|/coords:  0.1424 (   5)  0.1236 (  11)  0.1021 (  24)
................................................................................
.............................. CYCLE   10 ......................................
................................................................................
   1    -50.7011168 -0.507011E+02  0.385E-01    8.80       0.0  T
   2    -50.7012015 -0.846758E-04  0.290E-01    8.79       1.0  T
   3    -50.7012551 -0.536328E-04  0.556E-02    8.78       1.0  T
   4    -50.7012663 -0.111882E-04  0.168E-02    8.78       1.2  T
   5    -50.7012670 -0.691639E-06  0.527E-03    8.78       3.7  T
   6    -50.7012670 -0.187340E-07  0.312E-03    8.78       6.3  T
speedup  1.07
cpu  time for SCC    0.01 s
wall time for SCC    0.01 s
speedup  0.98
cpu  time for grad    0.01 s
wall time for grad    0.01 s
 E :    -50.43075378  G :  0.041328    pred/act E change: -0.291D-02 -0.104D-02
Maxdispl :   0.1513   ||displ|| :   0.2952   Lambda : -0.292D-02
Largest |displ|/coords:  0.1513 (  22)  0.1419 (   4)  0.1069 (   5)
................................................................................
.............................. CYCLE   11 ......................................
................................................................................
   1    -50.7009686 -0.507010E+02  0.282E-01    8.82       0.0  T
   2    -50.7010606 -0.919655E-04  0.209E-01    8.81       1.0  T
   3    -50.7011039 -0.433242E-04  0.520E-02    8.76       1.0  T
   4    -50.7011161 -0.122690E-04  0.117E-02    8.77       1.7  T
   5    -50.7011164 -0.289299E-06  0.487E-03    8.77       4.0  T
   6    -50.7011165 -0.229857E-07  0.249E-03    8.77       7.9  T
speedup  1.05
cpu  time for SCC    0.01 s
wall time for SCC    0.01 s
speedup  0.98
cpu  time for grad    0.01 s
wall time for grad    0.01 s
 E :    -50.43190750  G :  0.039605    pred/act E change: -0.244D-02 -0.115D-02
Maxdispl :   0.1011   ||displ|| :   0.2538   Lambda : -0.361D-02
Largest |displ|/coords:  0.1011 (   2)  0.0892 (   4)  0.0705 (   3)
................................................................................
.............................. CYCLE   12 ......................................
................................................................................
   1    -50.7229966 -0.507230E+02  0.255E-01    8.93       0.0  T
   2    -50.7230765 -0.798573E-04  0.190E-01    8.91       1.0  T
   3    -50.7231210 -0.445155E-04  0.474E-02    8.86       1.0  T
   4    -50.7231297 -0.865912E-05  0.133E-02    8.87       1.5  T
   5    -50.7231299 -0.254069E-06  0.456E-03    8.87       4.3  T
   6    -50.7231299 -0.203122E-07  0.215E-03    8.87       9.1  T
speedup  1.03
cpu  time for SCC    0.01 s
wall time for SCC    0.01 s
speedup  1.03
cpu  time for grad    0.01 s
wall time for grad    0.01 s
 E :    -50.43237721  G :  0.042151    pred/act E change: -0.159D-02 -0.470D-03
Maxdispl :   0.0860   ||displ|| :   0.2600   Lambda : -0.294D-02
Largest |displ|/coords:  0.0860 (   4)  0.0725 (   8)  0.0646 (  12)
................................................................................
.............................. CYCLE   13 ......................................
................................................................................
   1    -50.7116994 -0.507117E+02  0.245E-01    8.71       0.0  T
   2    -50.7117305 -0.310994E-04  0.184E-01    8.70       1.0  T
   3    -50.7117550 -0.244623E-04  0.309E-02    8.66       1.0  T
   4    -50.7117586 -0.362536E-05  0.108E-02    8.66       1.8  T
   5    -50.7117588 -0.159646E-06  0.343E-03    8.66       5.7  T
   6    -50.7117588 -0.184073E-07  0.201E-03    8.66       9.8  T
speedup  1.05
cpu  time for SCC    0.01 s
wall time for SCC    0.01 s
speedup  1.04
cpu  time for grad    0.01 s
wall time for grad    0.01 s
 E :    -50.43396915  G :  0.031007    pred/act E change: -0.192D-02 -0.159D-02
Maxdispl :   0.1099   ||displ|| :   0.2902   Lambda : -0.277D-02
Largest |displ|/coords:  0.1099 (  18)  0.1094 (  17)  0.0865 (   2)
................................................................................
.............................. CYCLE   14 ......................................
................................................................................
   1    -50.7082011 -0.507082E+02  0.303E-01    8.38       0.0  T
   2    -50.7083156 -0.114432E-03  0.226E-01    8.35       1.0  T
   3    -50.7083775 -0.619786E-04  0.574E-02    8.29       1.0  T
   4    -50.7083912 -0.136366E-04  0.201E-02    8.29       1.0  T
   5    -50.7083920 -0.794064E-06  0.639E-03    8.29       3.1  T
   6    -50.7083920 -0.416148E-07  0.335E-03    8.29       5.9  T
   7    -50.7083920 -0.156142E-07  0.103E-03    8.29      19.1  T
speedup  0.97
cpu  time for SCC    0.01 s
wall time for SCC    0.01 s
speedup  1.01
cpu  time for grad    0.01 s
wall time for grad    0.01 s
 E :    -50.43362932  G :  0.051130    pred/act E change: -0.157D-02  0.340D-03
Maxdispl :   0.1120   ||displ|| :   0.3365   Lambda : -0.708D-02
Largest |displ|/coords:  0.1120 (  20)  0.1066 (   4)  0.1036 (  27)
................................................................................
.............................. CYCLE   15 ......................................
................................................................................
   1    -50.7195683 -0.507196E+02  0.447E-01    8.54       0.0  T
   2    -50.7198304 -0.262091E-03  0.331E-01    8.52       1.0  T
   3    -50.7199637 -0.133325E-03  0.884E-02    8.49       1.0  T
   4    -50.7199941 -0.303567E-04  0.206E-02    8.50       1.0  T
   5    -50.7199949 -0.803194E-06  0.849E-03    8.50       2.3  T
   6    -50.7199950 -0.899988E-07  0.414E-03    8.50       4.7  T
   7    -50.7199950 -0.217951E-07  0.119E-03    8.50      16.4  T
speedup  0.97
cpu  time for SCC    0.01 s
wall time for SCC    0.01 s
speedup  1.01
cpu  time for grad    0.01 s
wall time for grad    0.01 s
 E :    -50.43376968  G :  0.055998    pred/act E change: -0.150D-02 -0.140D-03
Maxdispl :   0.0831   ||displ|| :   0.2839   Lambda : -0.623D-02
Largest |displ|/coords:  0.0831 (  21)  0.0788 (  27)  0.0786 (  17)
................................................................................
.............................. CYCLE   16 ......................................
................................................................................
   1    -50.7121519 -0.507122E+02  0.362E-01    8.22       0.0  T
   2    -50.7123445 -0.192585E-03  0.266E-01    8.21       1.0  T
   3    -50.7124470 -0.102454E-03  0.742E-02    8.18       1.0  T
   4    -50.7124663 -0.192819E-04  0.216E-02    8.17       1.0  T
   5    -50.7124673 -0.105037E-05  0.789E-03    8.17       2.5  T
   6    -50.7124673 -0.438166E-07  0.398E-03    8.17       4.9  T
   7    -50.7124674 -0.305944E-07  0.115E-03    8.17      17.1  T
speedup  0.95
cpu  time for SCC    0.01 s
wall time for SCC    0.01 s
speedup  0.93
cpu  time for grad    0.01 s
wall time for grad    0.01 s
 E :    -50.43502167  G :  0.042721    pred/act E change: -0.394D-02 -0.125D-02
Maxdispl :   0.1864   ||displ|| :   0.2918   Lambda : -0.320D-02
Largest |displ|/coords:  0.1864 (  11)  0.1123 (   1)  0.0943 (  23)
................................................................................
.............................. CYCLE   17 ......................................
................................................................................
   1    -50.7187641 -0.507188E+02  0.385E-01    8.17       0.0  T
   2    -50.7188260 -0.619223E-04  0.292E-01    8.16       1.0  T
   3    -50.7188744 -0.484494E-04  0.460E-02    8.13       1.0  T
   4    -50.7188829 -0.843008E-05  0.129E-02    8.14       1.5  T
   5    -50.7188833 -0.464849E-06  0.513E-03    8.14       3.8  T
   6    -50.7188834 -0.167821E-07  0.273E-03    8.14       7.2  T
speedup  1.09
cpu  time for SCC    0.01 s
wall time for SCC    0.01 s
speedup  0.98
cpu  time for grad    0.01 s
wall time for grad    0.01 s
 E :    -50.43548859  G :  0.038078    pred/act E change: -0.337D-02 -0.467D-03
Maxdispl :   0.1305   ||displ|| :   0.2365   Lambda : -0.268D-02
Largest |displ|/coords:  0.1305 (  11)  0.0793 (   5)  0.0789 (  23)
................................................................................
.............................. CYCLE   18 ......................................
................................................................................
   1    -50.7228515 -0.507229E+02  0.277E-01    8.29       0.0  T
   2    -50.7229205 -0.690607E-04  0.208E-01    8.27       1.0  T
   3    -50.7229605 -0.400188E-04  0.462E-02    8.22       1.0  T
   4    -50.7229708 -0.102265E-04  0.110E-02    8.23       1.8  T
   5    -50.7229709 -0.135645E-06  0.430E-03    8.23       4.6  T
   6    -50.7229709 -0.200792E-07  0.209E-03    8.23       9.4  T
speedup  1.09
cpu  time for SCC    0.01 s
wall time for SCC    0.01 s
speedup  0.98
cpu  time for grad    0.01 s
wall time for grad    0.01 s
 E :    -50.43630568  G :  0.032908    pred/act E change: -0.173D-02 -0.817D-03
Maxdispl :   0.0487   ||displ|| :   0.1391   Lambda : -0.129D-02
Largest |displ|/coords:  0.0487 (   2)  0.0486 (  10)  0.0465 (  19)
................................................................................
.............................. CYCLE   19 ......................................
................................................................................
   1    -50.7215845 -0.507216E+02  0.123E-01    8.14       0.0  T
   2    -50.7216055 -0.210032E-04  0.891E-02    8.14       1.0  T
   3    -50.7216166 -0.110774E-04  0.236E-02    8.13       1.0  T
   4    -50.7216187 -0.204253E-05  0.693E-03    8.12       2.8  T
   5    -50.7216188 -0.928799E-07  0.279E-03    8.12       7.0  T
   6    -50.7216188 -0.900885E-08  0.142E-03    8.12      13.8  T
speedup  1.09
cpu  time for SCC    0.01 s
wall time for SCC    0.01 s
speedup  0.98
cpu  time for grad    0.01 s
wall time for grad    0.01 s
 E :    -50.43713534  G :  0.015090    pred/act E change: -0.141D-02 -0.830D-03
Maxdispl :   0.1182   ||displ|| :   0.2397   Lambda : -0.962D-03
Largest |displ|/coords:  0.1182 (   1)  0.0885 (  10)  0.0677 (   4)
................................................................................
.............................. CYCLE   20 ......................................
................................................................................
   1    -50.7256986 -0.507257E+02  0.176E-01    8.05       0.0  T
   2    -50.7257268 -0.282106E-04  0.132E-01    8.02       1.0  T
   3    -50.7257425 -0.156751E-04  0.302E-02    7.94       1.0  T
   4    -50.7257463 -0.383469E-05  0.962E-03    7.94       2.0  T
   5    -50.7257465 -0.176320E-06  0.333E-03    7.95       5.9  T
   6    -50.7257465 -0.118710E-07  0.193E-03    7.95      10.1  T
   7    -50.7257465 -0.620960E-08  0.503E-04    7.95      39.0  T
speedup  0.95
cpu  time for SCC    0.01 s
wall time for SCC    0.01 s
speedup  1.00
cpu  time for grad    0.01 s
wall time for grad    0.01 s
 E :    -50.43758731  G :  0.021064    pred/act E change: -0.659D-03 -0.452D-03
Maxdispl :   0.1340   ||displ|| :   0.3247   Lambda : -0.111D-02
Largest |displ|/coords:  0.1340 (  10)  0.1230 (   4)  0.1228 (   2)
................................................................................
.............................. CYCLE   21 ......................................
................................................................................
   1    -50.7273015 -0.507273E+02  0.221E-01    7.89       0.0  T
   2    -50.7273274 -0.259012E-04  0.164E-01    7.88       1.0  T
   3    -50.7273447 -0.172871E-04  0.306E-02    7.84       1.0  T
   4    -50.7273480 -0.330565E-05  0.113E-02    7.82       1.7  T
   5    -50.7273482 -0.174184E-06  0.363E-03    7.83       5.4  T
   6    -50.7273482 -0.196274E-07  0.201E-03    7.83       9.7  T
speedup  0.91
cpu  time for SCC    0.00 s
wall time for SCC    0.01 s
speedup  0.92
cpu  time for grad    0.01 s
wall time for grad    0.01 s
 E :    -50.43820432  G :  0.018606    pred/act E change: -0.509D-03 -0.617D-03
Maxdispl :   0.0909   ||displ|| :   0.1846   Lambda : -0.659D-03
Largest |displ|/coords:  0.0909 (   1)  0.0827 (   4)  0.0756 (  10)
................................................................................
.............................. CYCLE   22 ......................................
................................................................................
   1    -50.7330128 -0.507330E+02  0.125E-01    7.88       0.0  T
   2    -50.7330211 -0.826805E-05  0.933E-02    7.87       1.0  T
   3    -50.7330255 -0.442006E-05  0.188E-02    7.83       1.0  T
   4    -50.7330267 -0.117743E-05  0.605E-03    7.83       3.2  T
   5    -50.7330268 -0.754692E-07  0.183E-03    7.84      10.7  T
   6    -50.7330268 -0.341556E-08  0.108E-03    7.84      18.2  T
speedup  0.93
cpu  time for SCC    0.01 s
wall time for SCC    0.01 s
speedup  1.00
cpu  time for grad    0.01 s
wall time for grad    0.01 s
 E :    -50.43855269  G :  0.010161    pred/act E change: -0.616D-03 -0.348D-03
Maxdispl :   0.0764   ||displ|| :   0.1610   Lambda : -0.306D-03
Largest |displ|/coords:  0.0764 (  10)  0.0567 (   1)  0.0497 (   4)
................................................................................
.............................. CYCLE   23 ......................................
................................................................................
   1    -50.7326407 -0.507326E+02  0.136E-01    7.89       0.0  T
   2    -50.7326504 -0.968683E-05  0.102E-01    7.88       1.0  T
   3    -50.7326560 -0.561070E-05  0.187E-02    7.85       1.0  T
   4    -50.7326575 -0.145684E-05  0.588E-03    7.86       3.3  T
   5    -50.7326576 -0.588154E-07  0.193E-03    7.86      10.1  T
   6    -50.7326576 -0.340347E-08  0.111E-03    7.86      17.7  T
speedup  1.07
cpu  time for SCC    0.01 s
wall time for SCC    0.01 s
speedup  1.06
cpu  time for grad    0.01 s
wall time for grad    0.01 s
 E :    -50.43866367  G :  0.010861    pred/act E change: -0.341D-03 -0.111D-03
Maxdispl :   0.0384   ||displ|| :   0.1030   Lambda : -0.230D-03
Largest |displ|/coords:  0.0384 (  10)  0.0321 (   5)  0.0286 (   1)
................................................................................
.............................. CYCLE   24 ......................................
................................................................................
   1    -50.7342516 -0.507343E+02  0.699E-02    7.86       0.0  T
   2    -50.7342533 -0.165524E-05  0.525E-02    7.87       1.0  T
   3    -50.7342549 -0.163572E-05  0.852E-03    7.87       2.3  T
   4    -50.7342551 -0.160425E-06  0.262E-03    7.87       7.5  T
   5    -50.7342551 -0.104715E-07  0.853E-04    7.87      23.0  T
speedup  1.06
cpu  time for SCC    0.01 s
wall time for SCC    0.00 s
speedup  0.98
cpu  time for grad    0.01 s
wall time for grad    0.01 s
 E :    -50.43877295  G :  0.009431    pred/act E change: -0.157D-03 -0.109D-03
Maxdispl :   0.1069   ||displ|| :   0.2351   Lambda : -0.364D-03
Largest |displ|/coords:  0.1069 (  10)  0.0834 (   4)  0.0660 (  11)
................................................................................
.............................. CYCLE   25 ......................................
................................................................................
   1    -50.7312140 -0.507312E+02  0.253E-01    7.84       0.0  T
   2    -50.7312323 -0.182605E-04  0.190E-01    7.84       1.0  T
   3    -50.7312451 -0.128190E-04  0.268E-02    7.85       1.0  T
   4    -50.7312476 -0.247934E-05  0.744E-03    7.85       2.6  T
   5    -50.7312477 -0.115912E-06  0.306E-03    7.85       6.4  T
   6    -50.7312477 -0.846678E-08  0.173E-03    7.85      11.3  T
   7    -50.7312477 -0.705158E-08  0.428E-04    7.85      45.8  T
speedup  1.08
cpu  time for SCC    0.01 s
wall time for SCC    0.01 s
speedup  0.98
cpu  time for grad    0.01 s
wall time for grad    0.01 s
 E :    -50.43869263  G :  0.022164    pred/act E change: -0.116D-03  0.803D-04
Maxdispl :   0.0467   ||displ|| :   0.1089   Lambda : -0.677D-03
Largest |displ|/coords:  0.0467 (   7)  0.0442 (   6)  0.0420 (  11)

generating ANC from model Hessian ...
 Shifting diagonal of input Hessian by   5.048911281186464E-003
 Lowest  eigenvalues of input Hessian
    0.005000   -0.000000   -0.000000    0.000000    0.000000    0.000000
    0.000000    0.005069    0.005242    0.005358    0.005676    0.006012
    0.006211    0.006327    0.006704    0.007378    0.007532    0.007919
 Highest eigenvalues
    1.400365    1.402944    1.433871    2.555083    3.289798    3.834660
 
cpu  time for ANC gen    0.01 s
wall time for ANC gen    0.01 s
................................................................................
.............................. CYCLE   26 ......................................
................................................................................
   1    -50.7331696 -0.507332E+02  0.142E-01    7.85       0.0  T
   2    -50.7331793 -0.962449E-05  0.107E-01    7.86       1.0  T
   3    -50.7331863 -0.706505E-05  0.179E-02    7.87       1.1  T
   4    -50.7331875 -0.121963E-05  0.481E-03    7.87       4.1  T
   5    -50.7331876 -0.465996E-07  0.209E-03    7.87       9.4  T
   6    -50.7331876 -0.461172E-08  0.109E-03    7.87      18.0  T
   7    -50.7331876 -0.255108E-08  0.294E-04    7.87      66.8  T
   8    -50.7331876 -0.219785E-09  0.108E-04    7.87     181.7  T
speedup  0.93
cpu  time for SCC    0.01 s
wall time for SCC    0.01 s
speedup  1.02
cpu  time for grad    0.02 s
wall time for grad    0.02 s
 E :    -50.43895106  G :  0.009631    pred/act E change:  0.000D+00 -0.258D-03
Maxdispl :   0.0499   ||displ|| :   0.1201   Lambda : -0.260D-03
Largest |displ|/coords:  0.0499 (  12)  0.0406 (  13)  0.0380 (  11)
................................................................................
.............................. CYCLE   27 ......................................
................................................................................
   1    -50.7326937 -0.507327E+02  0.110E-01    7.87       0.0  T
   2    -50.7326965 -0.278058E-05  0.834E-02    7.87       1.0  T
   3    -50.7326993 -0.280412E-05  0.984E-03    7.87       2.0  T
   4    -50.7326996 -0.299159E-06  0.305E-03    7.87       6.4  T
   5    -50.7326996 -0.155681E-07  0.113E-03    7.87      17.3  T
   6    -50.7326996 -0.134659E-08  0.599E-04    7.87      32.8  T
speedup  1.03
cpu  time for SCC    0.01 s
wall time for SCC    0.01 s
speedup  1.04
cpu  time for grad    0.01 s
wall time for grad    0.01 s
 E :    -50.43913050  G :  0.003518    pred/act E change:  0.000D+00 -0.179D-03
Maxdispl :   0.0825   ||displ|| :   0.2071   Lambda : -0.227D-03
Largest |displ|/coords:  0.0825 (   5)  0.0765 (   9)  0.0743 (  12)
................................................................................
.............................. CYCLE   28 ......................................
................................................................................
   1    -50.7312375 -0.507312E+02  0.172E-01    7.87       0.0  T
   2    -50.7312417 -0.415822E-05  0.130E-01    7.86       1.0  T
   3    -50.7312462 -0.454356E-05  0.118E-02    7.87       1.7  T
   4    -50.7312466 -0.393766E-06  0.430E-03    7.87       4.6  T
   5    -50.7312466 -0.262665E-07  0.167E-03    7.87      11.7  T
   6    -50.7312466 -0.347948E-08  0.778E-04    7.87      25.2  T
   7    -50.7312467 -0.227756E-08  0.184E-04    7.87     106.8  T
speedup  1.06
cpu  time for SCC    0.01 s
wall time for SCC    0.01 s
speedup  1.01
cpu  time for grad    0.01 s
wall time for grad    0.01 s
 E :    -50.43925175  G :  0.007428    pred/act E change: -0.132D-03 -0.121D-03
Maxdispl :   0.0603   ||displ|| :   0.1128   Lambda : -0.892D-04
Largest |displ|/coords:  0.0603 (   5)  0.0420 (  22)  0.0355 (   4)
................................................................................
.............................. CYCLE   29 ......................................
................................................................................
   1    -50.7309870 -0.507310E+02  0.870E-02    7.86       0.0  T
   2    -50.7309882 -0.121296E-05  0.656E-02    7.86       1.0  T
   3    -50.7309893 -0.108838E-05  0.790E-03    7.87       2.5  T
   4    -50.7309895 -0.151237E-06  0.224E-03    7.87       8.8  T
   5    -50.7309895 -0.900580E-08  0.871E-04    7.87      22.5  T
speedup  1.04
cpu  time for SCC    0.00 s
wall time for SCC    0.00 s
speedup  0.97
cpu  time for grad    0.01 s
wall time for grad    0.01 s
 E :    -50.43932465  G :  0.007097    pred/act E change: -0.118D-03 -0.729D-04
Maxdispl :   0.1576   ||displ|| :   0.3175   Lambda : -0.242D-03
Largest |displ|/coords:  0.1576 (   5)  0.1408 (   4)  0.1095 (  22)
................................................................................
.............................. CYCLE   30 ......................................
................................................................................
   1    -50.7306208 -0.507306E+02  0.207E-01    7.84       0.0  T
   2    -50.7306286 -0.783881E-05  0.156E-01    7.85       1.0  T
   3    -50.7306355 -0.688572E-05  0.210E-02    7.85       1.0  T
   4    -50.7306365 -0.101152E-05  0.572E-03    7.85       3.4  T
   5    -50.7306366 -0.566759E-07  0.240E-03    7.85       8.2  T
   6    -50.7306366 -0.632955E-08  0.113E-03    7.85      17.4  T
speedup  1.02
cpu  time for SCC    0.01 s
wall time for SCC    0.01 s
speedup  1.04
cpu  time for grad    0.01 s
wall time for grad    0.01 s
 E :    -50.43946472  G :  0.006449    pred/act E change: -0.452D-04 -0.140D-03
Maxdispl :   0.0952   ||displ|| :   0.1973   Lambda : -0.117D-03
Largest |displ|/coords:  0.0952 (   5)  0.0917 (   4)  0.0638 (   6)
................................................................................
.............................. CYCLE   31 ......................................
................................................................................
   1    -50.7303282 -0.507303E+02  0.105E-01    7.84       0.0  T
   2    -50.7303296 -0.141858E-05  0.788E-02    7.85       1.0  T
   3    -50.7303313 -0.166112E-05  0.795E-03    7.85       2.5  T
   4    -50.7303314 -0.101699E-06  0.254E-03    7.85       7.7  T
   5    -50.7303314 -0.999916E-08  0.948E-04    7.85      20.7  T
speedup  0.85
cpu  time for SCC    0.00 s
wall time for SCC    0.00 s
speedup  0.98
cpu  time for grad    0.01 s
wall time for grad    0.01 s
 E :    -50.43951909  G :  0.005017    pred/act E change: -0.133D-03 -0.544D-04
Maxdispl :   0.1120   ||displ|| :   0.2226   Lambda : -0.102D-03
Largest |displ|/coords:  0.1120 (   4)  0.1097 (   5)  0.0702 (   2)
................................................................................
.............................. CYCLE   32 ......................................
................................................................................
   1    -50.7285290 -0.507285E+02  0.140E-01    7.84       0.0  T
   2    -50.7285335 -0.452403E-05  0.105E-01    7.84       1.0  T
   3    -50.7285378 -0.433589E-05  0.158E-02    7.84       1.2  T
   4    -50.7285383 -0.515336E-06  0.439E-03    7.84       4.5  T
   5    -50.7285384 -0.367009E-07  0.181E-03    7.84      10.8  T
   6    -50.7285384 -0.397458E-08  0.969E-04    7.84      20.2  T
speedup  1.07
cpu  time for SCC    0.01 s
wall time for SCC    0.01 s
speedup  1.05
cpu  time for grad    0.01 s
wall time for grad    0.01 s
 E :    -50.43958199  G :  0.007086    pred/act E change: -0.607D-04 -0.629D-04
Maxdispl :   0.1235   ||displ|| :   0.2389   Lambda : -0.182D-03
Largest |displ|/coords:  0.1235 (   4)  0.0912 (   6)  0.0865 (   5)
................................................................................
.............................. CYCLE   33 ......................................
................................................................................
   1    -50.7302424 -0.507302E+02  0.119E-01    7.87       0.0  T
   2    -50.7302450 -0.258373E-05  0.885E-02    7.87       1.0  T
   3    -50.7302479 -0.292542E-05  0.141E-02    7.88       1.4  T
   4    -50.7302481 -0.174916E-06  0.321E-03    7.88       6.1  T
   5    -50.7302481 -0.206456E-07  0.145E-03    7.88      13.5  T
   6    -50.7302481 -0.258296E-08  0.817E-04    7.88      24.0  T
speedup  0.89
cpu  time for SCC    0.00 s
wall time for SCC    0.01 s
speedup  0.97
cpu  time for grad    0.01 s
wall time for grad    0.01 s
 E :    -50.43962827  G :  0.005444    pred/act E change: -0.535D-04 -0.463D-04
Maxdispl :   0.0918   ||displ|| :   0.1654   Lambda : -0.125D-03
Largest |displ|/coords:  0.0918 (   5)  0.0707 (   4)  0.0637 (   1)
................................................................................
.............................. CYCLE   34 ......................................
................................................................................
   1    -50.7288267 -0.507288E+02  0.993E-02    7.89       0.0  T
   2    -50.7288283 -0.159354E-05  0.748E-02    7.89       1.0  T
   3    -50.7288303 -0.197334E-05  0.802E-03    7.90       2.4  T
   4    -50.7288304 -0.112731E-06  0.222E-03    7.89       8.8  T
   5    -50.7288304 -0.667043E-08  0.118E-03    7.89      16.6  T
speedup  0.87
cpu  time for SCC    0.00 s
wall time for SCC    0.00 s
speedup  0.98
cpu  time for grad    0.01 s
wall time for grad    0.01 s
 E :    -50.43970648  G :  0.004486    pred/act E change: -0.964D-04 -0.782D-04
Maxdispl :   0.0620   ||displ|| :   0.1337   Lambda : -0.662D-04
Largest |displ|/coords:  0.0620 (   5)  0.0586 (   1)  0.0579 (   4)
................................................................................
.............................. CYCLE   35 ......................................
................................................................................
   1    -50.7290367 -0.507290E+02  0.638E-02    7.91       0.0  T
   2    -50.7290375 -0.763559E-06  0.478E-02    7.91       1.0  T
   3    -50.7290383 -0.784921E-06  0.584E-03    7.91       3.4  T
   4    -50.7290383 -0.664915E-07  0.217E-03    7.91       9.0  T
   5    -50.7290383 -0.545814E-08  0.664E-04    7.91      29.5  T
speedup  1.04
cpu  time for SCC    0.00 s
wall time for SCC    0.00 s
speedup  0.95
cpu  time for grad    0.01 s
wall time for grad    0.01 s
 E :    -50.43975257  G :  0.003671    pred/act E change: -0.645D-04 -0.461D-04
Maxdispl :   0.1391   ||displ|| :   0.2880   Lambda : -0.710D-04
Largest |displ|/coords:  0.1391 (   5)  0.1355 (   4)  0.1270 (   1)
................................................................................
.............................. CYCLE   36 ......................................
................................................................................
   1    -50.7281247 -0.507281E+02  0.134E-01    7.91       0.0  T
   2    -50.7281273 -0.260461E-05  0.100E-01    7.91       1.0  T
   3    -50.7281307 -0.342896E-05  0.124E-02    7.91       1.6  T
   4    -50.7281308 -0.123228E-06  0.280E-03    7.91       7.0  T
   5    -50.7281309 -0.118256E-07  0.149E-03    7.91      13.1  T
   6    -50.7281309 -0.279731E-08  0.638E-04    7.91      30.7  T
   7    -50.7281309 -0.676415E-09  0.170E-04    7.91     115.2  T
speedup  1.06
cpu  time for SCC    0.01 s
wall time for SCC    0.01 s
speedup  0.99
cpu  time for grad    0.01 s
wall time for grad    0.02 s
 E :    -50.43980529  G :  0.005002    pred/act E change: -0.337D-04 -0.527D-04
Maxdispl :   0.1879   ||displ|| :   0.3899   Lambda : -0.128D-03
Largest |displ|/coords:  0.1879 (   4)  0.1756 (   1)  0.1677 (   5)
................................................................................
.............................. CYCLE   37 ......................................
................................................................................
   1    -50.7299741 -0.507300E+02  0.170E-01    7.95       0.0  T
   2    -50.7299789 -0.478953E-05  0.127E-01    7.95       1.0  T
   3    -50.7299845 -0.553280E-05  0.154E-02    7.94       1.3  T
   4    -50.7299848 -0.319957E-06  0.349E-03    7.94       5.6  T
   5    -50.7299848 -0.166015E-07  0.190E-03    7.94      10.3  T
   6    -50.7299848 -0.580466E-08  0.872E-04    7.94      22.5  T
speedup  1.02
cpu  time for SCC    0.01 s
wall time for SCC    0.01 s
speedup  1.02
cpu  time for grad    0.01 s
wall time for grad    0.01 s
 E :    -50.43988257  G :  0.005585    pred/act E change: -0.384D-04 -0.773D-04
Maxdispl :   0.2038   ||displ|| :   0.4171   Lambda : -0.112D-03
Largest |displ|/coords:  0.2038 (   4)  0.1919 (   5)  0.1864 (   1)
................................................................................
.............................. CYCLE   38 ......................................
................................................................................
   1    -50.7283359 -0.507283E+02  0.177E-01    7.90       0.0  T
   2    -50.7283412 -0.533023E-05  0.133E-01    7.90       1.0  T
   3    -50.7283473 -0.610634E-05  0.173E-02    7.90       1.1  T
   4    -50.7283477 -0.432795E-06  0.526E-03    7.90       3.7  T
   5    -50.7283478 -0.423183E-07  0.197E-03    7.90      10.0  T
   6    -50.7283478 -0.498927E-08  0.105E-03    7.90      18.6  T
speedup  0.86
cpu  time for SCC    0.00 s
wall time for SCC    0.01 s
speedup  0.96
cpu  time for grad    0.01 s
wall time for grad    0.01 s
 E :    -50.43996503  G :  0.006726    pred/act E change: -0.737D-04 -0.825D-04
Maxdispl :   0.1552   ||displ|| :   0.3351   Lambda : -0.184D-03
Largest |displ|/coords:  0.1552 (   1)  0.1510 (   4)  0.1314 (   5)
................................................................................
.............................. CYCLE   39 ......................................
................................................................................
   1    -50.7313281 -0.507313E+02  0.136E-01    7.97       0.0  T
   2    -50.7313324 -0.424716E-05  0.101E-01    7.97       1.0  T
   3    -50.7313358 -0.342458E-05  0.149E-02    7.96       1.3  T
   4    -50.7313362 -0.440828E-06  0.432E-03    7.96       4.5  T
   5    -50.7313363 -0.253875E-07  0.136E-03    7.96      14.5  T
   6    -50.7313363 -0.203702E-08  0.804E-04    7.96      24.4  T
speedup  0.82
cpu  time for SCC    0.01 s
wall time for SCC    0.01 s
speedup  0.94
cpu  time for grad    0.01 s
wall time for grad    0.01 s
 E :    -50.44001691  G :  0.010693    pred/act E change: -0.658D-04 -0.519D-04
Maxdispl :   0.2772   ||displ|| :   0.4830   Lambda : -0.301D-03
Largest |displ|/coords:  0.2772 (   4)  0.2194 (   5)  0.1975 (   1)
................................................................................
.............................. CYCLE   40 ......................................
................................................................................
   1    -50.7281807 -0.507282E+02  0.221E-01    7.90       0.0  T
   2    -50.7281955 -0.147825E-04  0.165E-01    7.90       1.0  T
   3    -50.7282078 -0.123456E-04  0.257E-02    7.90       1.0  T
   4    -50.7282097 -0.187020E-05  0.908E-03    7.90       2.2  T
   5    -50.7282098 -0.139672E-06  0.312E-03    7.90       6.3  T
   6    -50.7282099 -0.124264E-07  0.179E-03    7.90      11.0  T
   7    -50.7282099 -0.745199E-08  0.459E-04    7.90      42.7  T
speedup  0.92
cpu  time for SCC    0.01 s
wall time for SCC    0.01 s
speedup  0.99
cpu  time for grad    0.01 s
wall time for grad    0.01 s
 E :    -50.44012889  G :  0.010876    pred/act E change: -0.102D-03 -0.112D-03
Maxdispl :   0.0265   ||displ|| :   0.0612   Lambda : -0.155D-03
Largest |displ|/coords:  0.0265 (   2)  0.0210 (  11)  0.0191 (   8)
................................................................................
.............................. CYCLE   41 ......................................
................................................................................
   1    -50.7303724 -0.507304E+02  0.497E-02    7.90       0.0  T
   2    -50.7303739 -0.154659E-05  0.370E-02    7.90       1.0  T
   3    -50.7303750 -0.105640E-05  0.783E-03    7.91       2.5  T
   4    -50.7303752 -0.185501E-06  0.194E-03    7.91      10.1  T
   5    -50.7303752 -0.817965E-08  0.831E-04    7.90      23.6  T
speedup  0.85
cpu  time for SCC    0.00 s
wall time for SCC    0.00 s
speedup  0.97
cpu  time for grad    0.01 s
wall time for grad    0.01 s
 E :    -50.44020794  G :  0.004482    pred/act E change: -0.186D-03 -0.791D-04
Maxdispl :   0.1814   ||displ|| :   0.3860   Lambda : -0.149D-03
Largest |displ|/coords:  0.1814 (   5)  0.1687 (   1)  0.1633 (   4)
................................................................................
.............................. CYCLE   42 ......................................
................................................................................
   1    -50.7293745 -0.507294E+02  0.161E-01    7.93       0.0  T
   2    -50.7293781 -0.362603E-05  0.120E-01    7.93       1.0  T
   3    -50.7293824 -0.426343E-05  0.147E-02    7.92       1.3  T
   4    -50.7293826 -0.215320E-06  0.418E-03    7.92       4.7  T
   5    -50.7293826 -0.287993E-07  0.155E-03    7.92      12.7  T
   6    -50.7293826 -0.258583E-08  0.901E-04    7.92      21.8  T
speedup  0.81
cpu  time for SCC    0.00 s
wall time for SCC    0.01 s
speedup  0.86
cpu  time for grad    0.01 s
wall time for grad    0.01 s
 E :    -50.44027623  G :  0.007262    pred/act E change: -0.775D-04 -0.683D-04
Maxdispl :   0.1562   ||displ|| :   0.3168   Lambda : -0.145D-03
Largest |displ|/coords:  0.1562 (   4)  0.1464 (   5)  0.1168 (   1)
................................................................................
.............................. CYCLE   43 ......................................
................................................................................
   1    -50.7294782 -0.507295E+02  0.131E-01    7.97       0.0  T
   2    -50.7294812 -0.299354E-05  0.981E-02    7.96       1.0  T
   3    -50.7294849 -0.363826E-05  0.123E-02    7.95       1.6  T
   4    -50.7294851 -0.200565E-06  0.469E-03    7.95       4.2  T
   5    -50.7294851 -0.239088E-07  0.148E-03    7.95      13.3  T
   6    -50.7294851 -0.199220E-08  0.870E-04    7.95      22.5  T
speedup  1.00
cpu  time for SCC    0.01 s
wall time for SCC    0.01 s
speedup  0.97
cpu  time for grad    0.01 s
wall time for grad    0.01 s
 E :    -50.44037191  G :  0.006849    pred/act E change: -0.854D-04 -0.957D-04
Maxdispl :   0.2123   ||displ|| :   0.4337   Lambda : -0.220D-03
Largest |displ|/coords:  0.2123 (   4)  0.2085 (   5)  0.1408 (   1)
................................................................................
.............................. CYCLE   44 ......................................
................................................................................
   1    -50.7318667 -0.507319E+02  0.161E-01    7.99       0.0  T
   2    -50.7318732 -0.654392E-05  0.120E-01    7.98       1.0  T
   3    -50.7318788 -0.556905E-05  0.175E-02    7.97       1.1  T
   4    -50.7318796 -0.780087E-06  0.627E-03    7.97       3.1  T
   5    -50.7318796 -0.569178E-07  0.213E-03    7.97       9.2  T
   6    -50.7318797 -0.515570E-08  0.127E-03    7.97      15.4  T
speedup  1.09
cpu  time for SCC    0.01 s
wall time for SCC    0.01 s
speedup  0.98
cpu  time for grad    0.01 s
wall time for grad    0.01 s
 E :    -50.44043787  G :  0.011869    pred/act E change: -0.795D-04 -0.660D-04
Maxdispl :   0.2374   ||displ|| :   0.4826   Lambda : -0.285D-03
Largest |displ|/coords:  0.2374 (   4)  0.2166 (   1)  0.2129 (   5)
................................................................................
.............................. CYCLE   45 ......................................
................................................................................
   1    -50.7271384 -0.507271E+02  0.209E-01    7.79       0.0  T
   2    -50.7271476 -0.928257E-05  0.155E-01    7.79       1.0  T
   3    -50.7271551 -0.741765E-05  0.245E-02    7.79       1.0  T
   4    -50.7271563 -0.119283E-05  0.726E-03    7.79       2.7  T
   5    -50.7271563 -0.705202E-07  0.221E-03    7.79       8.9  T
   6    -50.7271563 -0.633516E-08  0.124E-03    7.79      15.8  T
speedup  1.07
cpu  time for SCC    0.01 s
wall time for SCC    0.01 s
speedup  1.05
cpu  time for grad    0.01 s
wall time for grad    0.01 s
 E :    -50.44049398  G :  0.014418    pred/act E change: -0.131D-03 -0.561D-04
Maxdispl :   0.0970   ||displ|| :   0.1724   Lambda : -0.423D-03
Largest |displ|/coords:  0.0970 (   4)  0.0727 (   1)  0.0596 (   2)
................................................................................
.............................. CYCLE   46 ......................................
................................................................................
   1    -50.7330862 -0.507331E+02  0.124E-01    7.99       0.0  T
   2    -50.7330962 -0.994864E-05  0.895E-02    7.99       1.0  T
   3    -50.7331016 -0.545699E-05  0.223E-02    7.98       1.0  T
   4    -50.7331025 -0.876650E-06  0.672E-03    7.98       2.9  T
   5    -50.7331026 -0.936210E-07  0.193E-03    7.98      10.2  T
   6    -50.7331026 -0.417999E-08  0.109E-03    7.98      18.0  T
speedup  1.03
cpu  time for SCC    0.01 s
wall time for SCC    0.01 s
speedup  1.04
cpu  time for grad    0.01 s
wall time for grad    0.01 s
 E :    -50.44050515  G :  0.014913    pred/act E change: -0.176D-03 -0.112D-04
Maxdispl :   0.2321   ||displ|| :   0.4028   Lambda : -0.628D-03
Largest |displ|/coords:  0.2321 (   5)  0.1743 (   4)  0.1223 (   6)
................................................................................
.............................. CYCLE   47 ......................................
................................................................................
   1    -50.7283318 -0.507283E+02  0.176E-01    8.00       0.0  T
   2    -50.7283443 -0.125581E-04  0.131E-01    8.01       1.0  T
   3    -50.7283562 -0.118929E-04  0.218E-02    8.01       1.0  T
   4    -50.7283576 -0.136827E-05  0.672E-03    8.01       2.9  T
   5    -50.7283577 -0.705874E-07  0.296E-03    8.01       6.6  T
   6    -50.7283577 -0.148733E-07  0.137E-03    8.01      14.3  T
speedup  0.89
cpu  time for SCC    0.00 s
wall time for SCC    0.01 s
speedup  0.98
cpu  time for grad    0.01 s
wall time for grad    0.01 s
 E :    -50.44056364  G :  0.017018    pred/act E change: -0.218D-03 -0.585D-04
Maxdispl :   0.1066   ||displ|| :   0.2100   Lambda : -0.559D-03
Largest |displ|/coords:  0.1066 (   9)  0.0729 (   1)  0.0721 (   4)
................................................................................
.............................. CYCLE   48 ......................................
................................................................................
   1    -50.7303579 -0.507304E+02  0.126E-01    7.96       0.0  T
   2    -50.7303630 -0.510186E-05  0.936E-02    7.95       1.0  T
   3    -50.7303671 -0.415944E-05  0.137E-02    7.93       1.4  T
   4    -50.7303677 -0.607211E-06  0.503E-03    7.94       3.9  T
   5    -50.7303678 -0.323181E-07  0.169E-03    7.94      11.6  T
   6    -50.7303678 -0.479177E-08  0.899E-04    7.94      21.8  T
speedup  0.88
cpu  time for SCC    0.00 s
wall time for SCC    0.01 s
speedup  0.96
cpu  time for grad    0.01 s
wall time for grad    0.01 s
 E :    -50.44079829  G :  0.009970    pred/act E change: -0.365D-03 -0.235D-03
Maxdispl :   0.1620   ||displ|| :   0.3498   Lambda : -0.329D-03
Largest |displ|/coords:  0.1620 (   5)  0.1463 (   4)  0.1203 (  11)
................................................................................
.............................. CYCLE   49 ......................................
................................................................................
   1    -50.7277357 -0.507277E+02  0.147E-01    7.86       0.0  T
   2    -50.7277418 -0.615646E-05  0.109E-01    7.87       1.0  T
   3    -50.7277451 -0.333199E-05  0.169E-02    7.89       1.2  T
   4    -50.7277462 -0.105556E-05  0.430E-03    7.88       4.6  T
   5    -50.7277462 -0.286575E-07  0.186E-03    7.88      10.5  T
   6    -50.7277462 -0.447543E-08  0.897E-04    7.88      21.9  T
speedup  0.91
cpu  time for SCC    0.01 s
wall time for SCC    0.01 s
speedup  0.96
cpu  time for grad    0.01 s
wall time for grad    0.01 s
 E :    -50.44082638  G :  0.014164    pred/act E change: -0.292D-03 -0.281D-04
Maxdispl :   0.1643   ||displ|| :   0.3014   Lambda : -0.415D-03
Largest |displ|/coords:  0.1643 (   5)  0.1163 (   4)  0.1085 (   1)
................................................................................
.............................. CYCLE   50 ......................................
................................................................................
   1    -50.7297993 -0.507298E+02  0.116E-01    7.90       0.0  T
   2    -50.7298049 -0.562396E-05  0.861E-02    7.89       1.0  T
   3    -50.7298084 -0.347887E-05  0.165E-02    7.87       1.2  T
   4    -50.7298092 -0.860975E-06  0.405E-03    7.88       4.8  T
   5    -50.7298092 -0.258136E-07  0.186E-03    7.88      10.5  T
   6    -50.7298093 -0.591839E-08  0.817E-04    7.88      24.0  T
speedup  0.91
cpu  time for SCC    0.00 s
wall time for SCC    0.01 s
speedup  0.98
cpu  time for grad    0.01 s
wall time for grad    0.01 s
 E :    -50.44098049  G :  0.012391    pred/act E change: -0.185D-03 -0.154D-03
Maxdispl :   0.1415   ||displ|| :   0.2630   Lambda : -0.415D-03
Largest |displ|/coords:  0.1415 (   5)  0.0890 (   4)  0.0868 (   3)
................................................................................
.............................. CYCLE   51 ......................................
................................................................................
   1    -50.7288126 -0.507288E+02  0.111E-01    8.03       0.0  T
   2    -50.7288173 -0.473281E-05  0.832E-02    8.03       1.0  T
   3    -50.7288202 -0.290664E-05  0.150E-02    8.02       1.3  T
   4    -50.7288209 -0.687300E-06  0.492E-03    8.02       4.0  T
   5    -50.7288209 -0.391263E-07  0.163E-03    8.02      12.0  T
   6    -50.7288209 -0.246308E-08  0.836E-04    8.02      23.5  T
speedup  0.89
cpu  time for SCC    0.00 s
wall time for SCC    0.01 s
speedup  0.98
cpu  time for grad    0.01 s
wall time for grad    0.01 s
 E :    -50.44104813  G :  0.014449    pred/act E change: -0.226D-03 -0.676D-04
Maxdispl :   0.0680   ||displ|| :   0.1649   Lambda : -0.355D-03
Largest |displ|/coords:  0.0680 (  11)  0.0639 (   5)  0.0520 (   1)
................................................................................
.............................. CYCLE   52 ......................................
................................................................................
   1    -50.7307523 -0.507308E+02  0.747E-02    7.95       0.0  T
   2    -50.7307547 -0.247551E-05  0.554E-02    7.96       1.0  T
   3    -50.7307560 -0.126140E-05  0.114E-02    7.97       1.7  T
   4    -50.7307564 -0.360784E-06  0.263E-03    7.97       7.5  T
   5    -50.7307564 -0.153396E-07  0.974E-04    7.97      20.1  T
speedup  0.87
cpu  time for SCC    0.00 s
wall time for SCC    0.00 s
speedup  0.88
cpu  time for grad    0.01 s
wall time for grad    0.01 s
 E :    -50.44125469  G :  0.007736    pred/act E change: -0.222D-03 -0.207D-03
Maxdispl :   0.3151   ||displ|| :   0.6277   Lambda : -0.354D-03
Largest |displ|/coords:  0.3151 (   5)  0.2815 (   4)  0.2546 (   1)

generating ANC from model Hessian ...
 Shifting diagonal of input Hessian by   5.120617497072016E-003
 Lowest  eigenvalues of input Hessian
    0.005000   -0.000000   -0.000000   -0.000000   -0.000000    0.000000
    0.000000    0.005178    0.005384    0.005567    0.005817    0.006288
    0.006385    0.006605    0.007136    0.007669    0.008770    0.009161
 Highest eigenvalues
    1.369700    1.407814    1.418830    2.551277    3.207809    3.777745
 
cpu  time for ANC gen    0.01 s
wall time for ANC gen    0.01 s
................................................................................
.............................. CYCLE   53 ......................................
................................................................................
   1    -50.7253932 -0.507254E+02  0.243E-01    7.84       0.0  T
   2    -50.7254072 -0.140338E-04  0.181E-01    7.84       1.0  T
   3    -50.7254210 -0.137762E-04  0.276E-02    7.85       1.0  T
   4    -50.7254226 -0.161374E-05  0.976E-03    7.85       2.0  T
   5    -50.7254227 -0.134507E-06  0.300E-03    7.84       6.5  T
   6    -50.7254227 -0.122111E-07  0.172E-03    7.84      11.4  T
   7    -50.7254227 -0.479593E-08  0.490E-04    7.84      40.0  T
   8    -50.7254227 -0.479901E-09  0.129E-04    7.84     152.3  T
speedup  0.96
cpu  time for SCC    0.01 s
wall time for SCC    0.01 s
speedup  0.96
cpu  time for grad    0.01 s
wall time for grad    0.02 s
 E :    -50.44124924  G :  0.018362    pred/act E change:  0.000D+00  0.546D-05
Maxdispl :   0.1078   ||displ|| :   0.1856   Lambda : -0.667D-03
Largest |displ|/coords:  0.1078 (  12)  0.0572 (  11)  0.0559 (   2)
................................................................................
.............................. CYCLE   54 ......................................
................................................................................
   1    -50.7291222 -0.507291E+02  0.130E-01    7.92       0.0  T
   2    -50.7291255 -0.324962E-05  0.978E-02    7.92       1.0  T
   3    -50.7291292 -0.376291E-05  0.916E-03    7.93       2.1  T
   4    -50.7291295 -0.271735E-06  0.393E-03    7.93       5.0  T
   5    -50.7291295 -0.201295E-07  0.149E-03    7.93      13.2  T
   6    -50.7291295 -0.351417E-08  0.719E-04    7.93      27.3  T
speedup  1.07
cpu  time for SCC    0.01 s
wall time for SCC    0.01 s
speedup  1.04
cpu  time for grad    0.01 s
wall time for grad    0.01 s
 E :    -50.44172633  G :  0.008392    pred/act E change:  0.000D+00 -0.477D-03
Maxdispl :   0.1267   ||displ|| :   0.2499   Lambda : -0.464D-03
Largest |displ|/coords:  0.1267 (  12)  0.1026 (   2)  0.0793 (   4)
................................................................................
.............................. CYCLE   55 ......................................
................................................................................
   1    -50.7316159 -0.507316E+02  0.160E-01    8.03       0.0  T
   2    -50.7316208 -0.490512E-05  0.121E-01    8.03       1.0  T
   3    -50.7316263 -0.550951E-05  0.118E-02    8.03       1.7  T
   4    -50.7316268 -0.472244E-06  0.513E-03    8.03       3.8  T
   5    -50.7316268 -0.303510E-07  0.195E-03    8.03      10.1  T
   6    -50.7316268 -0.582364E-08  0.899E-04    8.03      21.8  T
speedup  1.15
cpu  time for SCC    0.01 s
wall time for SCC    0.01 s
speedup  1.07
cpu  time for grad    0.01 s
wall time for grad    0.01 s
 E :    -50.44196512  G :  0.011720    pred/act E change: -0.345D-03 -0.239D-03
Maxdispl :   0.0976   ||displ|| :   0.1394   Lambda : -0.225D-03
Largest |displ|/coords:  0.0976 (   2)  0.0465 (   1)  0.0435 (   4)
................................................................................
.............................. CYCLE   56 ......................................
................................................................................
   1    -50.7335531 -0.507336E+02  0.751E-02    8.08       0.0  T
   2    -50.7335541 -0.986636E-06  0.565E-02    8.08       1.0  T
   3    -50.7335551 -0.102500E-05  0.664E-03    8.09       3.0  T
   4    -50.7335552 -0.819730E-07  0.241E-03    8.09       8.2  T
   5    -50.7335552 -0.609361E-08  0.711E-04    8.09      27.6  T
speedup  1.04
cpu  time for SCC    0.00 s
wall time for SCC    0.00 s
speedup  1.03
cpu  time for grad    0.01 s
wall time for grad    0.01 s
 E :    -50.44212638  G :  0.008007    pred/act E change: -0.247D-03 -0.161D-03
Maxdispl :   0.2445   ||displ|| :   0.3660   Lambda : -0.352D-03
Largest |displ|/coords:  0.2445 (   2)  0.1425 (   4)  0.1050 (   8)
................................................................................
.............................. CYCLE   57 ......................................
................................................................................
   1    -50.7329439 -0.507329E+02  0.186E-01    8.12       0.0  T
   2    -50.7329498 -0.587023E-05  0.139E-01    8.12       1.0  T
   3    -50.7329574 -0.765253E-05  0.170E-02    8.14       1.2  T
   4    -50.7329578 -0.342087E-06  0.440E-03    8.13       4.5  T
   5    -50.7329578 -0.280597E-07  0.222E-03    8.13       8.8  T
   6    -50.7329578 -0.647986E-08  0.959E-04    8.13      20.5  T
speedup  1.05
cpu  time for SCC    0.01 s
wall time for SCC    0.01 s
speedup  0.95
cpu  time for grad    0.01 s
wall time for grad    0.01 s
 E :    -50.44241365  G :  0.006705    pred/act E change: -0.115D-03 -0.287D-03
Maxdispl :   0.4245   ||displ|| :   0.6381   Lambda : -0.507D-03
Largest |displ|/coords:  0.4245 (   2)  0.2321 (   4)  0.1766 (   1)
................................................................................
.............................. CYCLE   58 ......................................
................................................................................
   1    -50.7288927 -0.507289E+02  0.287E-01    8.09       0.0  T
   2    -50.7289080 -0.152627E-04  0.214E-01    8.10       1.0  T
   3    -50.7289263 -0.183309E-04  0.298E-02    8.13       1.0  T
   4    -50.7289275 -0.118072E-05  0.838E-03    8.12       2.3  T
   5    -50.7289276 -0.116399E-06  0.360E-03    8.12       5.5  T
   6    -50.7289276 -0.174240E-07  0.187E-03    8.12      10.5  T
   7    -50.7289276 -0.531887E-08  0.437E-04    8.12      44.9  T
speedup  1.06
cpu  time for SCC    0.01 s
wall time for SCC    0.01 s
speedup  1.03
cpu  time for grad    0.01 s
wall time for grad    0.01 s
 E :    -50.44276445  G :  0.012428    pred/act E change: -0.200D-03 -0.351D-03
Maxdispl :   0.2997   ||displ|| :   0.4245   Lambda : -0.442D-03
Largest |displ|/coords:  0.2997 (   2)  0.1418 (   4)  0.1294 (   1)
................................................................................
.............................. CYCLE   59 ......................................
................................................................................
   1    -50.7302225 -0.507302E+02  0.166E-01    8.04       0.0  T
   2    -50.7302290 -0.649509E-05  0.123E-01    8.04       1.0  T
   3    -50.7302353 -0.622837E-05  0.217E-02    8.05       1.0  T
   4    -50.7302359 -0.625173E-06  0.538E-03    8.05       3.6  T
   5    -50.7302360 -0.593251E-07  0.207E-03    8.05       9.5  T
   6    -50.7302360 -0.634851E-08  0.121E-03    8.05      16.2  T
speedup  1.05
cpu  time for SCC    0.01 s
wall time for SCC    0.01 s
speedup  1.02
cpu  time for grad    0.01 s
wall time for grad    0.01 s
 E :    -50.44290916  G :  0.013077    pred/act E change: -0.357D-03 -0.145D-03
Maxdispl :   0.2223   ||displ|| :   0.3477   Lambda : -0.503D-03
Largest |displ|/coords:  0.2223 (   2)  0.1092 (   4)  0.1061 (   5)
................................................................................
.............................. CYCLE   60 ......................................
................................................................................
   1    -50.7291865 -0.507292E+02  0.172E-01    8.05       0.0  T
   2    -50.7291950 -0.851324E-05  0.129E-01    8.05       1.0  T
   3    -50.7292045 -0.952619E-05  0.184E-02    8.04       1.1  T
   4    -50.7292054 -0.845860E-06  0.624E-03    8.04       3.1  T
   5    -50.7292054 -0.617614E-07  0.251E-03    8.04       7.8  T
   6    -50.7292054 -0.103633E-07  0.129E-03    8.04      15.2  T
speedup  0.87
cpu  time for SCC    0.01 s
wall time for SCC    0.01 s
speedup  0.94
cpu  time for grad    0.01 s
wall time for grad    0.01 s
 E :    -50.44317980  G :  0.013552    pred/act E change: -0.261D-03 -0.271D-03
Maxdispl :   0.0810   ||displ|| :   0.2230   Lambda : -0.580D-03
Largest |displ|/coords:  0.0810 (   6)  0.0750 (  10)  0.0709 (   8)
................................................................................
.............................. CYCLE   61 ......................................
................................................................................
   1    -50.7338364 -0.507338E+02  0.138E-01    8.18       0.0  T
   2    -50.7338423 -0.586629E-05  0.101E-01    8.18       1.0  T
   3    -50.7338461 -0.381876E-05  0.216E-02    8.16       1.0  T
   4    -50.7338468 -0.640874E-06  0.469E-03    8.16       4.2  T
   5    -50.7338468 -0.461659E-07  0.161E-03    8.16      12.1  T
   6    -50.7338468 -0.232662E-08  0.807E-04    8.16      24.3  T
speedup  1.05
cpu  time for SCC    0.01 s
wall time for SCC    0.01 s
speedup  1.00
cpu  time for grad    0.01 s
wall time for grad    0.01 s
 E :    -50.44337448  G :  0.011205    pred/act E change: -0.282D-03 -0.195D-03
Maxdispl :   0.3141   ||displ|| :   0.4259   Lambda : -0.407D-03
Largest |displ|/coords:  0.3141 (   2)  0.1427 (   6)  0.1307 (   4)
................................................................................
.............................. CYCLE   62 ......................................
................................................................................
   1    -50.7295896 -0.507296E+02  0.177E-01    8.05       0.0  T
   2    -50.7295968 -0.717245E-05  0.132E-01    8.06       1.0  T
   3    -50.7296038 -0.699616E-05  0.201E-02    8.07       1.0  T
   4    -50.7296046 -0.846135E-06  0.574E-03    8.06       3.4  T
   5    -50.7296047 -0.575997E-07  0.240E-03    8.06       8.2  T
   6    -50.7296047 -0.106139E-07  0.120E-03    8.06      16.3  T
speedup  1.03
cpu  time for SCC    0.01 s
wall time for SCC    0.01 s
speedup  1.01
cpu  time for grad    0.01 s
wall time for grad    0.01 s
 E :    -50.44363168  G :  0.012155    pred/act E change: -0.304D-03 -0.257D-03
Maxdispl :   0.2985   ||displ|| :   0.4074   Lambda : -0.414D-03
Largest |displ|/coords:  0.2985 (   2)  0.1289 (   3)  0.1124 (   5)
................................................................................
.............................. CYCLE   63 ......................................
................................................................................
   1    -50.7312785 -0.507313E+02  0.143E-01    8.00       0.0  T
   2    -50.7312839 -0.542529E-05  0.107E-01    7.99       1.0  T
   3    -50.7312895 -0.561358E-05  0.173E-02    7.98       1.1  T
   4    -50.7312901 -0.573281E-06  0.493E-03    7.98       4.0  T
   5    -50.7312901 -0.434237E-07  0.195E-03    7.98      10.1  T
   6    -50.7312901 -0.620862E-08  0.103E-03    7.98      19.1  T
speedup  1.07
cpu  time for SCC    0.01 s
wall time for SCC    0.01 s
speedup  1.01
cpu  time for grad    0.01 s
wall time for grad    0.01 s
 E :    -50.44386804  G :  0.010259    pred/act E change: -0.240D-03 -0.236D-03
Maxdispl :   0.3308   ||displ|| :   0.4374   Lambda : -0.356D-03
Largest |displ|/coords:  0.3308 (   2)  0.1391 (   6)  0.1025 (   5)
................................................................................
.............................. CYCLE   64 ......................................
................................................................................
   1    -50.7300549 -0.507301E+02  0.168E-01    7.99       0.0  T
   2    -50.7300597 -0.477777E-05  0.126E-01    7.99       1.0  T
   3    -50.7300650 -0.527645E-05  0.129E-02    7.98       1.5  T
   4    -50.7300654 -0.406273E-06  0.545E-03    7.98       3.6  T
   5    -50.7300654 -0.419949E-07  0.177E-03    7.98      11.1  T
   6    -50.7300654 -0.409008E-08  0.101E-03    7.98      19.4  T
speedup  1.02
cpu  time for SCC    0.01 s
wall time for SCC    0.01 s
speedup  1.00
cpu  time for grad    0.01 s
wall time for grad    0.01 s
 E :    -50.44410589  G :  0.012285    pred/act E change: -0.242D-03 -0.238D-03
Maxdispl :   0.2893   ||displ|| :   0.4959   Lambda : -0.784D-03
Largest |displ|/coords:  0.2893 (   2)  0.1887 (   6)  0.1386 (   8)
................................................................................
.............................. CYCLE   65 ......................................
................................................................................
   1    -50.7377106 -0.507377E+02  0.230E-01    8.18       0.0  T
   2    -50.7377268 -0.162283E-04  0.170E-01    8.16       1.0  T
   3    -50.7377342 -0.736539E-05  0.345E-02    8.14       1.0  T
[...]
................................................................................
   1    -50.7395706 -0.507396E+02  0.119E-02    8.01       0.0  T
   2    -50.7395706 -0.266335E-07  0.883E-03    8.01       2.2  T
   3    -50.7395706 -0.249711E-07  0.133E-03    8.01      14.8  T
   4    -50.7395706 -0.197986E-08  0.384E-04    8.01      51.1  T
   5    -50.7395706 -0.242210E-09  0.808E-05    8.01     242.8  T
speedup  0.77
cpu  time for SCC    0.00 s
wall time for SCC    0.01 s
speedup  0.92
cpu  time for grad    0.01 s
wall time for grad    0.01 s
 E :    -50.44995027  G :  0.000605    pred/act E change: -0.108D-05 -0.134D-05
Maxdispl :   0.0109   ||displ|| :   0.0239   Lambda : -0.188D-05
Largest |displ|/coords:  0.0109 (   9)  0.0100 (  11)  0.0092 (   1)
................................................................................
.............................. CYCLE  130 ......................................
................................................................................
   1    -50.7395855 -0.507396E+02  0.141E-02    8.01       0.0  T
   2    -50.7395855 -0.289144E-07  0.105E-02    8.01       1.9  T
   3    -50.7395855 -0.257561E-07  0.135E-03    8.01      14.5  T
   4    -50.7395855 -0.243590E-08  0.407E-04    8.01      48.2  T
   5    -50.7395855 -0.286747E-09  0.976E-05    8.01     200.9  T
speedup  0.85
cpu  time for SCC    0.00 s
wall time for SCC    0.00 s
speedup  0.98
cpu  time for grad    0.01 s
wall time for grad    0.01 s
 E :    -50.44995153  G :  0.000718    pred/act E change: -0.939D-06 -0.127D-05
Maxdispl :   0.0128   ||displ|| :   0.0245   Lambda : -0.174D-05
Largest |displ|/coords:  0.0128 (   1)  0.0101 (   9)  0.0078 (   4)
................................................................................
.............................. CYCLE  131 ......................................
................................................................................
   1    -50.7395108 -0.507395E+02  0.131E-02    8.01       0.0  T
   2    -50.7395108 -0.372415E-07  0.989E-03    8.01       2.0  T
   3    -50.7395109 -0.298491E-07  0.118E-03    8.01      16.6  T
   4    -50.7395109 -0.499290E-08  0.535E-04    8.01      36.7  T
   5    -50.7395109 -0.223459E-09  0.110E-04    8.01     178.5  T
speedup  1.04
cpu  time for SCC    0.00 s
wall time for SCC    0.00 s
speedup  1.04
cpu  time for grad    0.01 s
wall time for grad    0.01 s
 E :    -50.44995269  G :  0.000541    pred/act E change: -0.943D-06 -0.115D-05
Maxdispl :   0.0105   ||displ|| :   0.0216   Lambda : -0.142D-05
Largest |displ|/coords:  0.0105 (   1)  0.0095 (  11)  0.0079 (   9)
................................................................................
.............................. CYCLE  132 ......................................
................................................................................
   1    -50.7395166 -0.507395E+02  0.126E-02    8.01       0.0  T
   2    -50.7395166 -0.270239E-07  0.948E-03    8.01       2.1  T
   3    -50.7395167 -0.229440E-07  0.107E-03    8.01      18.3  T
   4    -50.7395167 -0.348400E-08  0.438E-04    8.01      44.8  T
   5    -50.7395167 -0.178900E-09  0.110E-04    8.01     177.9  T
speedup  1.04
cpu  time for SCC    0.00 s
wall time for SCC    0.00 s
speedup  0.97
cpu  time for grad    0.01 s
wall time for grad    0.01 s
 E :    -50.44995370  G :  0.000496    pred/act E change: -0.868D-06 -0.102D-05
Maxdispl :   0.0087   ||displ|| :   0.0174   Lambda : -0.116D-05
Largest |displ|/coords:  0.0087 (   1)  0.0077 (  11)  0.0054 (   4)
................................................................................
.............................. CYCLE  133 ......................................
................................................................................
   1    -50.7395312 -0.507395E+02  0.109E-02    8.01       0.0  T
   2    -50.7395312 -0.215598E-07  0.809E-03    8.01       2.4  T
   3    -50.7395312 -0.185308E-07  0.131E-03    8.01      15.0  T
   4    -50.7395312 -0.228265E-08  0.390E-04    8.01      50.2  T
   5    -50.7395312 -0.187811E-09  0.973E-05    8.01     201.6  T
speedup  1.06
cpu  time for SCC    0.00 s
wall time for SCC    0.00 s
speedup  0.90
cpu  time for grad    0.01 s
wall time for grad    0.01 s
 E :    -50.44995451  G :  0.000418    pred/act E change: -0.711D-06 -0.810D-06
Maxdispl :   0.0076   ||displ|| :   0.0155   Lambda : -0.750D-06
Largest |displ|/coords:  0.0076 (   4)  0.0064 (   1)  0.0059 (  11)
................................................................................
.............................. CYCLE  134 ......................................
................................................................................
   1    -50.7395329 -0.507395E+02  0.942E-03    8.01       0.0  T
   2    -50.7395329 -0.159430E-07  0.700E-03    8.01       2.8  T
   3    -50.7395329 -0.145444E-07  0.116E-03    8.01      16.9  T
   4    -50.7395329 -0.155294E-08  0.314E-04    8.01      62.4  T
   5    -50.7395329 -0.135273E-09  0.790E-05    8.01     248.3  T
speedup  0.85
cpu  time for SCC    0.00 s
wall time for SCC    0.00 s
speedup  0.97
cpu  time for grad    0.01 s
wall time for grad    0.01 s
 E :    -50.44995505  G :  0.000360    pred/act E change: -0.582D-06 -0.535D-06
Maxdispl :   0.0063   ||displ|| :   0.0132   Lambda : -0.580D-06
Largest |displ|/coords:  0.0063 (   6)  0.0056 (   4)  0.0051 (  11)
................................................................................
.............................. CYCLE  135 ......................................
................................................................................
   1    -50.7395679 -0.507396E+02  0.742E-03    8.01       0.0  T
   2    -50.7395679 -0.117182E-07  0.549E-03    8.01       3.6  T
   3    -50.7395679 -0.966876E-08  0.949E-04    8.01      20.7  T
   4    -50.7395679 -0.118369E-08  0.286E-04    8.01      68.7  T
speedup  1.00
cpu  time for SCC    0.00 s
wall time for SCC    0.00 s
speedup  1.03
cpu  time for grad    0.01 s
wall time for grad    0.01 s
 E :    -50.44995545  G :  0.000247    pred/act E change: -0.371D-06 -0.406D-06
Maxdispl :   0.0057   ||displ|| :   0.0109   Lambda : -0.352D-06
Largest |displ|/coords:  0.0057 (   4)  0.0053 (   6)  0.0033 (   8)
................................................................................
.............................. CYCLE  136 ......................................
................................................................................
   1    -50.7395840 -0.507396E+02  0.612E-03    8.01       0.0  T
   2    -50.7395840 -0.638067E-08  0.458E-03    8.01       4.3  T
   3    -50.7395840 -0.636957E-08  0.587E-04    8.01      33.4  T
   4    -50.7395840 -0.561286E-09  0.215E-04    8.01      91.0  T
speedup  0.98
cpu  time for SCC    0.00 s
wall time for SCC    0.00 s
speedup  0.94
cpu  time for grad    0.01 s
wall time for grad    0.01 s
 E :    -50.44995571  G :  0.000234    pred/act E change: -0.290D-06 -0.254D-06
Maxdispl :   0.0038   ||displ|| :   0.0083   Lambda : -0.211D-06
Largest |displ|/coords:  0.0038 (   6)  0.0038 (   4)  0.0028 (   8)
................................................................................
.............................. CYCLE  137 ......................................
................................................................................
   1    -50.7396108 -0.507396E+02  0.485E-03    8.01       0.0  T
   2    -50.7396108 -0.309298E-08  0.364E-03    8.01       5.4  T
   3    -50.7396108 -0.363893E-08  0.363E-04    8.01      54.0  T
   4    -50.7396108 -0.188635E-09  0.136E-04    8.01     144.7  T
speedup  1.03
cpu  time for SCC    0.00 s
wall time for SCC    0.00 s
speedup  1.04
cpu  time for grad    0.01 s
wall time for grad    0.01 s
 E :    -50.44995586  G :  0.000206    pred/act E change: -0.176D-06 -0.149D-06
Maxdispl :   0.0038   ||displ|| :   0.0060   Lambda : -0.111D-06
Largest |displ|/coords:  0.0038 (   4)  0.0021 (   6)  0.0019 (   8)
................................................................................
.............................. CYCLE  138 ......................................
................................................................................
   1    -50.7396178 -0.507396E+02  0.346E-03    8.01       0.0  T
   2    -50.7396178 -0.149344E-08  0.260E-03    8.01       7.5  T
   3    -50.7396178 -0.165140E-08  0.258E-04    8.01      75.9  T
   4    -50.7396178 -0.119215E-09  0.865E-05    8.01     226.7  T
speedup  1.05
cpu  time for SCC    0.00 s
wall time for SCC    0.00 s
speedup  0.96
cpu  time for grad    0.01 s
wall time for grad    0.01 s
 E :    -50.44995594  G :  0.000161    pred/act E change: -0.106D-06 -0.788D-07
Maxdispl :   0.0020   ||displ|| :   0.0040   Lambda : -0.807D-07
Largest |displ|/coords:  0.0020 (  10)  0.0020 (   4)  0.0014 (   6)

   *** GEOMETRY OPTIMIZATION CONVERGED AFTER 138 ITERATIONS ***

------------------------------------------------------------------------
 total energy gain (kcal):     -0.2323
------------------------------------------------------------------------
================
 final structure:
================
$coord
        2.51449630217221        3.07148633221201        1.14616817210891      S 
       -0.04863650875753        2.26112164793618        1.64579846635879      O 
        2.84741711518073        5.58950212469769        0.31023436604096      O 
        4.08538937053741        2.62605477171322        3.56596720873941      O 
        3.70771859376838        1.26020604553748       -0.81544843643157      O 
        2.83774683237583       -0.43339934469889       -0.99416206131845      H 
        3.55513898934329        1.00783282271844        4.39208691178583      H 
        1.57210333135192       -3.00965114479035       -1.59229406099550      O 
        2.72716841272921       -3.98607094640833       -2.58902078618056      H 
        2.44885481739465       -1.47480979024454        5.71494945490882      O 
        0.95564193419892       -2.05036980120890        4.75988167319568      H 
        1.86513339629746       -1.02930310971518        7.37254205881952      H 
       -5.49173063122072       -2.38145151869206       -0.72886931395728      O 
       -4.32311009795239       -2.40244914674375        0.69486166225200      H 
       -6.49283606259011       -3.88496181431707       -0.61030097905510      H 
       -1.40747759465051       -2.40362126663100        2.55942786501489      O 
       -0.39997232874082       -3.17885669839042        1.23606548777815      H 
       -1.21689044137980       -0.58014303142428        2.25693135665534      H 
       -1.95652347826717       -1.38329383881412       -4.38970197504637      O 
        0.16085418567250       -2.42740003166086       -2.80516366823961      H 
       -3.45135353721663       -1.64313256162052       -3.34200885741755      H 
       -1.63138208300471        0.45910245073949       -4.35350017096745      H 
       -0.84294239452523        3.53287106580060       -3.59490563867294      N 
        1.02130038194555        3.94368133611153       -3.74575932687931      H 
       -1.22309471627240        3.53165519488377       -1.71502356295899      H 
       -1.81301373160105        4.98540023396086       -4.37875590213785      H 
$end
 
 Bond Distances (Angstroems)
 ---------------------------
S1-O2=1.4469         S1-O3=1.4150         S1-O4=1.5448         S1-O5=1.5476         O2-S1=1.4469         O3-S1=1.4150         
O4-S1=1.5448         O4-H7=1.0016         O5-S1=1.5476         O5-H6=1.0120         H6-O5=1.0120         H7-O4=1.0016         
O8-H9=0.9585         O8-H20=1.0318        H9-O8=0.9585         O10-H11=0.9862       O10-H12=0.9594       H11-O10=0.9862       
H12-O10=0.9594       O13-H14=0.9748       O13-H15=0.9579       H14-O13=0.9748       H15-O13=0.9579       O16-H17=0.9711       
O16-H18=0.9833       H17-O16=0.9711       H18-O16=0.9833       O19-H21=0.9757       O19-H22=0.9902       H20-O8=1.0318        
H21-O19=0.9757       H22-O19=0.9902       N23-H24=1.0133       N23-H25=1.0149       N23-H26=1.0131       H24-N23=1.0133       
H25-N23=1.0149       H26-N23=1.0131       
 N  H  Rav=1.0138 sigma=0.0008  Rmin=1.0131  Rmax=1.0149     3
 O  H  Rav=0.9835 sigma=0.0217  Rmin=0.9579  Rmax=1.0318    12
 S  O  Rav=1.4885 sigma=0.0587  Rmin=1.4150  Rmax=1.5476     4
 
 selected bond angles (degree)
 --------------------
O3-S1-O2=116.93                O4-S1-O2=107.92                O4-S1-O3=109.62                O5-S1-O2=108.75                
O5-S1-O3=108.83                O5-S1-O4=104.00                H7-O4-S1=109.97                H6-O5-S1=115.19                
H20-O8-H9=106.27               H12-O10-H11=106.65             
 
 selected dihedral angles (degree)
 ---------------------------------
H7-O4-S1-O2= 38.39            H7-O4-S1-O3=166.76            H7-O4-S1-O5=283.00            H6-O5-S1-O2=340.69            
H6-O5-S1-O3=212.29            H6-O5-S1-O4= 95.50            
 
 CMA Distance (Angstroems)
 ---------------------------
R(CMA):  2.9968

========================================================================
 FINAL SINGLEPOINT CALCULATION ON OPTIMIZED GEOMETRY
========================================================================

 Ncao       : 65
 Nao        : 64
 Nshell     : 38
 Nel        : 80
 T(el)      :   300.0
 intcut     :    25.0
 scfconv/Eh :  0.100E-05
   qconv/e  :  0.100E-03
 intneglect :  0.100E-07
 broydamp   :      0.250
 iter      E             dE          RMSdq      gap      omega  full diag
   1    -50.7396178 -0.507396E+02  0.288E-05    8.01       0.0  T
   2    -50.7396178 -0.703437E-12  0.188E-05    8.01    1044.9  T
   3    -50.7396178 -0.468958E-12  0.516E-06    8.01    3802.7  T
speedup  1.00
cpu  time for SCC    0.00 s
wall time for SCC    0.00 s

   *** convergence criteria satisfied after 3 iterations ***

          eigenvalues
 #    :          28         29         30         31         32         33         34         35
 occ. :        2.000      2.000      2.000      2.000      2.000      2.000      2.000      2.000
 eps  :       -13.652    -13.530    -13.261    -12.875    -12.831    -12.655    -12.616    -12.470
 #    :          36         37         38         39         40         41         42         43
 occ. :        2.000      2.000      2.000      2.000      2.000      0.000      0.000      0.000
 eps  :       -12.393    -12.222    -12.135    -11.874    -11.021     -3.011     -0.727     -0.633
 #    :          44         45         46         47         48         49         50         51
 occ. :        0.000      0.000      0.000      0.000      0.000      0.000      0.000      0.000
 eps  :        -0.039      0.795      1.219      1.729      2.301      3.763      4.830      5.008


   #   Z            q   n(s)   n(p)   n(d)      C6AA      α(0)
   1  16 S      1.700  1.574  1.772  0.953    88.757    15.856
   2   8 O     -0.729  1.762  4.968  0.000    29.521     7.285
   3   8 O     -0.645  1.749  4.896  0.000    27.252     6.999
   4   8 O     -0.603  1.754  4.849  0.000    25.239     6.782
   5   8 O     -0.625  1.757  4.869  0.000    25.769     6.853
   6   1 H      0.392  0.608  0.000  0.000     0.498     1.108
   7   1 H      0.388  0.612  0.000  0.000     0.504     1.114
   8   8 O     -0.645  1.766  4.879  0.000    26.295     6.921
   9   1 H      0.295  0.705  0.000  0.000     0.736     1.347
  10   8 O     -0.607  1.753  4.855  0.000    25.364     6.797
  11   1 H      0.338  0.662  0.000  0.000     0.617     1.234
  12   1 H      0.299  0.701  0.000  0.000     0.725     1.338
  13   8 O     -0.605  1.745  4.860  0.000    25.299     6.788
  14   1 H      0.321  0.679  0.000  0.000     0.660     1.276
  15   1 H      0.282  0.718  0.000  0.000     0.778     1.386
  16   8 O     -0.638  1.765  4.873  0.000    26.117     6.897
  17   1 H      0.324  0.676  0.000  0.000     0.652     1.269
  18   1 H      0.334  0.666  0.000  0.000     0.627     1.243
  19   8 O     -0.622  1.758  4.864  0.000    25.706     6.843
  20   1 H      0.357  0.643  0.000  0.000     0.572     1.188
  21   1 H      0.326  0.674  0.000  0.000     0.649     1.266
  22   1 H      0.320  0.680  0.000  0.000     0.664     1.280
  23   7 N     -0.457  1.371  4.086  0.000    32.032     8.405
  24   1 H      0.162  0.838  0.000  0.000     1.323     1.802
  25   1 H      0.174  0.826  0.000  0.000     1.247     1.749
  26   1 H      0.164  0.836  0.000  0.000     1.308     1.791

 Mol. C6AA /au·bohr⁶  :       5455.393867
 Mol. C8AA /au·bohr⁸  :     117769.448901
 Mol. α(0) /au        :        106.818428

 
 Wiberg/Mayer (AO) data. WBOs > 0.1 written file <wbo>
 largest (>0.05) Wiberg bond orders for each atom
           total WBO             WBO to atom ...
     1  S   4.863    O    3 1.508    O    2 1.327    O    4 0.998    O    5 0.993
     2  O   1.731    S    1 1.327    O    3 0.117    O    5 0.091    O    4 0.088    H   18 0.058
     3  O   1.813    S    1 1.508    O    2 0.117    O    5 0.079    O    4 0.078
     4  O   1.988    S    1 0.998    H    7 0.717    O    2 0.088    O    3 0.078    O    5 0.063
     5  O   1.964    S    1 0.993    H    6 0.687    O    2 0.091    O    3 0.079    O    4 0.063
     6  H   0.846    O    5 0.687    O    8 0.140
     7  H   0.849    O    4 0.717    O   10 0.115
     8  O   1.920    H    9 0.904    H   20 0.714    H    6 0.140    O   19 0.061
     9  H   0.913    O    8 0.904
    10  O   1.914    H   12 0.909    H   11 0.812    H    7 0.115
    11  H   0.886    O   10 0.812    O   16 0.068
    12  H   0.911    O   10 0.909
    13  O   1.854    H   15 0.917    H   14 0.851
    14  H   0.897    O   13 0.851
    15  H   0.921    O   13 0.917
    16  O   1.903    H   17 0.860    H   18 0.823    H   11 0.068
    17  H   0.895    O   16 0.860
    18  H   0.888    O   16 0.823    O    2 0.058
    19  O   1.947    H   21 0.849    H   22 0.814    H   20 0.157    O    8 0.061
    20  H   0.873    O    8 0.714    O   19 0.157
    21  H   0.894    O   19 0.849
    22  H   0.898    O   19 0.814    N   23 0.082
    23  N   3.023    H   26 0.969    H   24 0.966    H   25 0.949    H   22 0.082
    24  H   0.974    N   23 0.966
    25  H   0.970    N   23 0.949
    26  H   0.973    N   23 0.969
 MOs/occ written to file <molden.input>
 
molecular dipole:
                 x           y           z       tot (Debye)
 q only:       -0.501      -1.577       0.106
   full:       -0.442      -1.492       0.373       4.067
molecular quadrupole (traceless):
                xx          xy          yy          xz          yz          zz
 q only:       -3.305      -6.225      -4.975      -2.611      -2.382       8.280
  q+dip:       -3.993      -5.951      -2.765      -5.162      -2.873       6.758
   full:       -4.077      -5.911      -2.861      -5.115      -2.862       6.938

SCC energy    :     -50.7396178
rep           :       0.2893494
ES            :       0.2324434
AES           :      -0.0537280
AXC           :      -0.0064194
disp          :      -0.0189598
XB            :       0.0000000
fix           :       0.0000000
total E       :     -50.4499559
atomizationE  :       4.9802601     3125.16
(atE without considering molecular charge,
 total energy contains solvation terms)
H-L gap (eV)  :          8.0101
optimized geometry written to: xtbopt.xyz


------------------------------------------------------------------------
 * finished run on 2019/09/16 at 11:31:54.892     
------------------------------------------------------------------------
 total:
 * wall-time:     0 d,  0 h,  0 min,  3.652 sec
 *  cpu-time:     0 d,  0 h,  0 min,  3.102 sec
 * ratio c/w:     0.849 speedup
 SCF:
 * wall-time:     0 d,  0 h,  0 min,  0.300 sec
 *  cpu-time:     0 d,  0 h,  0 min,  0.156 sec
 * ratio c/w:     0.520 speedup
 ANC optimizer:
 * wall-time:     0 d,  0 h,  0 min,  3.319 sec
 *  cpu-time:     0 d,  0 h,  0 min,  2.915 sec
 * ratio c/w:     0.878 speedup

