      -----------------------------------------------------------      
     |                   =====================                   |     
     |                           x T B                           |     
     |                   =====================                   |     
     |                         S. Grimme                         |     
     |          Mulliken Center for Theoretical Chemistry        |     
     |                    University of Bonn                     |     
     |                 Version 6.0.1 (SAW181210)                 |     
      -----------------------------------------------------------      

   This program is distributed in the hope that it will be useful,
   but WITHOUT ANY WARRANTY; without even the implied warranty of
   MERCHANTABILITY or FITNESS FOR A PARTICULAR PURPOSE.
   
   FOR NON-COMMERCIAL, ACADEMIA USE ONLY.
   
   Cite this work as:
   S. Grimme, C. Bannwarth, P. Shushkov, J. Comput. Theory Chem., 2017,
   13, 1989-2009.
   C. Bannwarth, S. Ehlert and S. Grimme., ChemRxiv, 2018, preprint.
   http://doi.org/10.26434/chemrxiv.7246238.v1
   
   for sTDA-xTB:
   S. Grimme and C. Bannwarth, J. Chem. Phys., 2016, 145, 054103.
   
   in the mass-spec context:
   V. Asgeirsson, C. Bauer and S. Grimme, Chem. Sci., 2017, 8, 4879.
   
   if GBSA is used:
   P. Shushkov, F. März and S. Grimme, unpublished.
   
   for ANC optimizer:
   S. Grimme, unpublished.
   Rational Function algorithm used in ANCopt:
   F. Eckert, P. Pulay, H.-J. Werner, J. Comput. Chem., 1997, 18, 1473.
   
   with help from (in alphabetical order)
   C. Bannwarth, F. Bohle, G. Brandenburg, E. Caldeweyher, M. Checinski,
   S. Dohm, S. Ehlert, S. Ehrlich, F. März, H. Neugebauer, J. Pisarek,
   P. Pracht, P. Shushkov, and S. Spicher.
   
 * started run on 2019/09/16 at 12:34:09.886     
========================================================================
 # omp threads = 1
========================================================================
number of atoms            : 26
number of electrons        : 80
charge                     : 0
spin                       : .0
first test random number   : .4361

########################################################################
# WARNING! Please study the warnings concerning your input carefully
#  - XTBPATH is not set, using XTBHOME instead
#  - the use of '-opt' is discouraged, please use '--opt' next time
#  - the use of '-chrg' is discouraged, please use '--chrg' next time
#  - the use of '-uhf' is discouraged, please use '--uhf' next time
########################################################################

           ------------------------------------------------- 
          |                 G F N 2 - x T B                 |
          | Geometry, Frequencies, Noncovalent interactions |
          |            JCTC 2018 parametrisation            |
           ------------------------------------------------- 
      method parameters     
 k(s)        :  1.8500
 k(p)        :  2.2300
 k(d)        :  2.2300
 k(f)        :  2.0000
 kEN (H0ij)  : -2.0000
 D4 a1       :  0.5200
 D4 a2       :  5.0000
 D4 s6       :  1.0000
 D4 s8       :  2.7000
 D4 s9       :  5.0000
 alphaj      :  2.0000


            Z     q(EN)     CN     RAES       Cart. coordinates
     1  S   6.0    0.58    4.29    4.22     4.25806     0.13499    -1.03595
     2  O   6.0   -0.29    1.09    1.80     3.56462    -1.13103    -3.38068
     3  O   6.0   -0.28    1.09    1.80     6.62712     1.44372    -0.70063
     4  O   6.0   -0.25    2.06    1.83     1.90369     1.98687    -0.27908
     5  O   6.0   -0.24    2.07    1.83     4.03803    -1.78086     1.31964
     6  H   1.0    0.18    1.29    1.49     2.53789    -2.82676     1.11469
     7  H   1.0    0.16    1.18    1.46     1.14528     2.57212    -1.85027
     8  O   6.0   -0.39    1.68    1.81    -0.09745    -3.74125     0.57052
     9  H   1.0    0.17    0.95    1.42    -0.01560    -5.60310     0.46767
    10  O   6.0   -0.29    2.05    1.83    -4.67242     1.32670    -0.65454
    11  H   1.0    0.15    0.97    1.43    -4.82119     2.84888    -1.64219
    12  H   1.0    0.16    1.03    1.43    -4.08405     0.05450    -1.81641
    13  O   6.0   -0.29    2.02    1.83    -0.55505     2.52132    -4.65594
    14  H   1.0    0.15    0.97    1.43    -0.18516     2.71161    -6.42839
    15  H   1.0    0.16    1.03    1.43    -1.02499     0.77487    -4.44698
    16  O   6.0   -0.31    2.09    1.84    -2.14591    -2.16778    -3.34648
    17  H   1.0    0.18    1.13    1.45    -1.30990    -2.78214    -1.85039
    18  H   1.0    0.15    0.97    1.43    -1.90095    -3.46380    -4.60144
    19  O   6.0   -0.23    2.92    2.59    -2.48430    -0.89137     3.13235
    20  H   1.0    0.14    1.05    1.44    -3.57949     0.08731     1.97797
    21  H   1.0    0.16    1.22    1.47    -1.55555    -2.24346     2.23832
    22  H   1.0    0.13    1.07    1.44    -1.33905     0.21230     4.11308
    23  N   5.0   -0.22    3.04    1.93     0.93944     2.20441     5.39413
    24  H   1.0    0.12    1.00    1.43     1.59557     2.84227     3.69894
    25  H   1.0    0.11    0.99    1.43     2.36564     1.14796     6.14310
    26  H   1.0    0.10    0.99    1.43     0.79572     3.76172     6.51895

  Z AO/shell   Hii/eV     exponent
  1     Wed Apr 25 08:07:45 CEST 2018   EN: 2.200 GM2: 0.406  GM3: 0.0800  RAES: 1.40
     1s    -10.707211    1.230000
  7     Wed Apr 25 08:07:45 CEST 2018   EN: 3.040 GM2: 0.461  GM3:-0.0640  RAES: 1.90
     2s    -16.686243    2.339881
     2p    -12.523956    2.014332
  8     Wed Apr 25 08:07:45 CEST 2018   EN: 3.440 GM2: 0.452  GM3:-0.0517  RAES: 1.80
     2s    -20.229985    2.439742
     2p    -15.503117    2.137023
 16     Tue Apr 24 11:44:34 CEST 2018   EN: 2.580 GM2: 0.340  GM3:-0.0502  RAES: 3.10
     3s    -20.029654    1.981333
     3p    -11.377694    2.025643
     3d     -0.420282    1.702555
 no old-style atom pair restraining (fixing) potential

molecular fragmentation (1/2 indicates fragments):
11111112222222222222222222
# atoms in fragment 1/2:     7    19
 fragment masses (1/2) :       98.07      107.11
CMA distance (Bohr)    :   5.639
constraining FC (au)   :  0.0500
           ------------------------------------------------- 
          |        Self-Consistent Charge Iterations        |
           ------------------------------------------------- 

 Ncao       : 65
 Nao        : 64
 Nshell     : 38
 Nel        : 80
 T(el)      :   300.0
 intcut     :    25.0
 scfconv/Eh :  0.100E-05
   qconv/e  :  0.100E-03
 intneglect :  0.100E-07
 broydamp   :      0.250
 iter      E             dE          RMSdq      gap      omega  full diag
   1    -50.5902036 -0.505902E+02  0.701E+00    8.06       0.0  T
   2    -50.6369374 -0.467338E-01  0.494E+00    7.52       1.0  T
   3    -50.6733406 -0.364032E-01  0.114E+00    5.72       1.0  T
   4    -50.6771168 -0.377622E-02  0.630E-01    5.92       1.0  T
   5    -50.6784723 -0.135550E-02  0.251E-01    6.00       1.0  T
   6    -50.6787673 -0.295065E-03  0.147E-01    6.01       1.0  T
   7    -50.6788941 -0.126724E-03  0.526E-02    6.01       1.0  T
   8    -50.6789111 -0.170762E-04  0.235E-02    6.01       1.0  T
   9    -50.6789141 -0.300103E-05  0.962E-03    6.01       2.0  T
  10    -50.6789146 -0.412005E-06  0.209E-03    6.02       9.4  T
  11    -50.6789146 -0.129758E-07  0.118E-03    6.02      16.6  T
  12    -50.6789146 -0.469535E-08  0.385E-04    6.02      51.0  T
  13    -50.6789146 -0.571028E-09  0.185E-04    6.02     106.2  T
speedup  1.01
cpu  time for SCC    0.02 s
wall time for SCC    0.02 s

   *** convergence criteria satisfied after 13 iterations ***

          eigenvalues
 #    :          28         29         30         31         32         33         34         35
 occ. :        2.000      2.000      2.000      2.000      2.000      2.000      2.000      2.000
 eps  :       -13.005    -12.658    -12.447    -12.403    -12.172    -12.006    -11.948    -11.846
 #    :          36         37         38         39         40         41         42         43
 occ. :        2.000      2.000      2.000      2.000      2.000      0.000      0.000      0.000
 eps  :       -11.840    -11.702    -11.606    -10.240    -10.074     -4.057     -1.310     -0.964
 #    :          44         45         46         47         48         49         50         51
 occ. :        0.000      0.000      0.000      0.000      0.000      0.000      0.000      0.000
 eps  :        -0.264      0.906      1.274      1.992      2.738      3.380      4.667      4.905


   #   Z            q   n(s)   n(p)   n(d)      C6AA      α(0)
   1  16 S      1.610  1.633  1.822  0.935    90.849    16.042
   2   8 O     -0.655  1.775  4.880  0.000    27.512     7.032
   3   8 O     -0.636  1.772  4.865  0.000    27.027     6.970
   4   8 O     -0.609  1.755  4.855  0.000    25.378     6.801
   5   8 O     -0.608  1.759  4.850  0.000    25.359     6.798
   6   1 H      0.381  0.619  0.000  0.000     0.517     1.128
   7   1 H      0.376  0.624  0.000  0.000     0.528     1.141
   8   8 O     -0.861  1.836  5.024  0.000    33.429     7.754
   9   1 H      0.213  0.787  0.000  0.000     1.054     1.613
  10   8 O     -0.614  1.732  4.882  0.000    25.516     6.818
  11   1 H      0.297  0.703  0.000  0.000     0.730     1.342
  12   1 H      0.341  0.659  0.000  0.000     0.610     1.227
  13   8 O     -0.622  1.745  4.877  0.000    25.714     6.844
  14   1 H      0.287  0.713  0.000  0.000     0.761     1.370
  15   1 H      0.335  0.665  0.000  0.000     0.623     1.240
  16   8 O     -0.655  1.747  4.908  0.000    26.545     6.954
  17   1 H      0.346  0.654  0.000  0.000     0.595     1.210
  18   1 H      0.280  0.720  0.000  0.000     0.785     1.392
  19   8 O     -0.457  1.656  4.801  0.000    21.920     6.323
  20   1 H      0.400  0.600  0.000  0.000     0.484     1.093
  21   1 H      0.410  0.590  0.000  0.000     0.459     1.061
  22   1 H      0.378  0.622  0.000  0.000     0.527     1.141
  23   7 N     -0.448  1.378  4.070  0.000    31.760     8.370
  24   1 H      0.187  0.813  0.000  0.000     1.175     1.698
  25   1 H      0.167  0.833  0.000  0.000     1.294     1.782
  26   1 H      0.157  0.843  0.000  0.000     1.357     1.825

 Mol. C6AA /au·bohr⁶  :       5474.963160
 Mol. C8AA /au·bohr⁸  :     118416.219840
 Mol. α(0) /au        :        106.967471

 
 Wiberg/Mayer (AO) data. WBOs > 0.1 written file <wbo>
 largest (>0.05) Wiberg bond orders for each atom
           total WBO             WBO to atom ...
     1  S   4.803    O    3 1.474    O    2 1.424    O    5 0.987    O    4 0.896
     2  O   1.771    S    1 1.424    O    3 0.144    O    5 0.101    O    4 0.096
     3  O   1.807    S    1 1.474    O    2 0.144    O    4 0.092    O    5 0.086
     4  O   1.963    S    1 0.896    H    7 0.782    O    2 0.096    O    3 0.092    O    5 0.055
     5  O   1.977    S    1 0.987    H    6 0.686    O    2 0.101    O    3 0.086    O    4 0.055    O    8 0.051
     6  H   0.855    O    5 0.686    O    8 0.154
     7  H   0.858    O    4 0.782    O   13 0.056
     8  O   1.601    H    9 0.943    H   21 0.199    H    6 0.154    H   17 0.126    O   19 0.060    O    5 0.051    O   16 0.051
     9  H   0.955    O    8 0.943
    10  O   1.866    H   11 0.899    H   12 0.840    H   20 0.074
    11  H   0.912    O   10 0.899
    12  H   0.884    O   10 0.840
    13  O   1.850    H   14 0.910    H   15 0.831    H    7 0.056
    14  H   0.918    O   13 0.910
    15  H   0.887    O   13 0.831    O   16 0.052
    16  O   1.845    H   18 0.909    H   17 0.750    H   15 0.052    O    8 0.051
    17  H   0.880    O   16 0.750    O    8 0.126
    18  H   0.922    O   16 0.909
    19  O   2.284    H   20 0.759    H   22 0.757    H   21 0.628    O    8 0.060
    20  H   0.840    O   19 0.759    O   10 0.074
    21  H   0.832    O   19 0.628    O    8 0.199
    22  H   0.857    O   19 0.757    N   23 0.095
    23  N   3.034    H   26 0.970    H   25 0.970    H   24 0.952    H   22 0.095
    24  H   0.965    N   23 0.952
    25  H   0.972    N   23 0.970
    26  H   0.975    N   23 0.970
 MOs/occ written to file <molden.input>
 
molecular dipole:
                 x           y           z       tot (Debye)
 q only:       -2.473       0.765       0.968
   full:       -2.069       0.545       0.377       5.523
molecular quadrupole (traceless):
                xx          xy          yy          xz          yz          zz
 q only:      -17.558      -1.763       2.065       3.419       1.464      15.493
  q+dip:      -23.101      -1.248       5.757       8.263       4.139      17.344
   full:      -23.811      -1.735       6.306       8.251       3.917      17.505

SCC energy    :     -50.6789146
rep           :       0.2849543
ES            :       0.2668225
AES           :      -0.0508899
AXC           :      -0.0036614
disp          :      -0.0190045
XB            :       0.0000000
fix           :       0.0000000
total E       :     -50.3935708
atomizationE  :       4.9238749     3089.78
(atE without considering molecular charge,
 total energy contains solvation terms)
H-L gap (eV)  :          6.0162
           ------------------------------------------------- 
          |                 ===============                 |
          |                   A N C O P T                   |
          |                 ===============                 |
          |          Approximate Normal Coordinate          |
          |           Rational Function Optimizer           |
           ------------------------------------------------- 
dumping coords to <xtbopt.coord> and <xtbopt.log>
 optlevel               2
 Maxcycle             520
 Maxmicro              25
 Econv         1.000000000000000E-007
 Gconv         2.000000000000000E-004
 Maxdispl       1.00000000000000     
 Hlow          5.000000000000000E-003
 S6             20.0000000000000     
 Nvar               72

generating ANC from model Hessian ...
 Shifting diagonal of input Hessian by   5.072465856138615E-003
 Lowest  eigenvalues of input Hessian
    0.005000    0.005062   -0.000000   -0.000000    0.000000    0.000000
    0.000000    0.000000    0.005601    0.005723    0.006233    0.006345
    0.006589    0.006693    0.006906    0.007411    0.007950    0.008241
 Highest eigenvalues
    1.442444    1.558820    1.592075    1.949809    2.765223    3.587744
 
cpu  time for ANC gen    0.02 s
wall time for ANC gen    0.02 s
................................................................................
.............................. CYCLE    1 ......................................
................................................................................
   1    -50.6789146 -0.506789E+02  0.516E-05    6.02       0.0  T
   2    -50.6789146 -0.466116E-11  0.405E-05    6.02     483.9  T
   3    -50.6789146 -0.546407E-11  0.158E-05    6.02    1241.4  T
speedup  0.69
cpu  time for SCC    0.00 s
wall time for SCC    0.00 s
speedup  0.95
cpu  time for grad    0.01 s
wall time for grad    0.01 s
 E :    -50.39357074  G :  0.152759    pred/act E change:  0.000D+00  0.345D-07
Maxdispl :   0.1772   ||displ|| :   0.3183   Lambda : -0.237D-01
Largest |displ|/coords:  0.1772 (  22)  0.0878 (  30)  0.0760 (  54)
................................................................................
.............................. CYCLE    2 ......................................
................................................................................
   1    -50.6872900 -0.506873E+02  0.377E-01    6.74       0.0  T
   2    -50.6874286 -0.138540E-03  0.280E-01    6.81       1.0  T
   3    -50.6875044 -0.758355E-04  0.612E-02    6.96       1.0  T
   4    -50.6875184 -0.140016E-04  0.216E-02    6.94       1.0  T
   5    -50.6875194 -0.984143E-06  0.619E-03    6.93       3.2  T
   6    -50.6875195 -0.610021E-07  0.294E-03    6.93       6.7  T
   7    -50.6875195 -0.157683E-07  0.131E-03    6.93      15.0  T
speedup  1.09
cpu  time for SCC    0.01 s
wall time for SCC    0.01 s
speedup  1.05
cpu  time for grad    0.01 s
wall time for grad    0.01 s
 E :    -50.41164031  G :  0.082922    pred/act E change:  0.000D+00 -0.181D-01
Maxdispl :   0.1830   ||displ|| :   0.3486   Lambda : -0.106D-01
Largest |displ|/coords:  0.1830 (  22)  0.1065 (   3)  0.0952 (  20)
................................................................................
.............................. CYCLE    3 ......................................
................................................................................
   1    -50.6930223 -0.506930E+02  0.291E-01    7.53       0.0  T
   2    -50.6931898 -0.167445E-03  0.211E-01    7.62       1.0  T
   3    -50.6932643 -0.745035E-04  0.582E-02    7.79       1.0  T
   4    -50.6932766 -0.123759E-04  0.135E-02    7.76       1.5  T
   5    -50.6932770 -0.342923E-06  0.444E-03    7.76       4.4  T
   6    -50.6932770 -0.263492E-07  0.222E-03    7.76       8.8  T
speedup  1.09
cpu  time for SCC    0.01 s
wall time for SCC    0.01 s
speedup  1.04
cpu  time for grad    0.01 s
wall time for grad    0.01 s
 E :    -50.42039159  G :  0.054729    pred/act E change: -0.131D-01 -0.875D-02
Maxdispl :   0.1423   ||displ|| :   0.3504   Lambda : -0.617D-02
Largest |displ|/coords:  0.1423 (  22)  0.1378 (   3)  0.1066 (  10)
................................................................................
.............................. CYCLE    4 ......................................
................................................................................
   1    -50.6962952 -0.506963E+02  0.261E-01    8.17       0.0  T
   2    -50.6964535 -0.158300E-03  0.187E-01    8.25       1.0  T
   3    -50.6965214 -0.679643E-04  0.562E-02    8.39       1.0  T
   4    -50.6965318 -0.104121E-04  0.112E-02    8.37       1.8  T
   5    -50.6965321 -0.296843E-06  0.442E-03    8.37       4.4  T
   6    -50.6965322 -0.273040E-07  0.216E-03    8.37       9.1  T
speedup  0.91
cpu  time for SCC    0.00 s
wall time for SCC    0.01 s
speedup  0.96
cpu  time for grad    0.01 s
wall time for grad    0.01 s
 E :    -50.42551264  G :  0.039957    pred/act E change: -0.594D-02 -0.512D-02
Maxdispl :   0.1607   ||displ|| :   0.4836   Lambda : -0.718D-02
Largest |displ|/coords:  0.1607 (   3)  0.1564 (  22)  0.1501 (  21)
................................................................................
.............................. CYCLE    5 ......................................
................................................................................
   1    -50.6999050 -0.506999E+02  0.396E-01    8.96       0.0  T
   2    -50.7003594 -0.454359E-03  0.283E-01    9.06       1.0  T
   3    -50.7005536 -0.194214E-03  0.937E-02    9.14       1.0  T
   4    -50.7005787 -0.251356E-04  0.181E-02    9.14       1.1  T
   5    -50.7005794 -0.687141E-06  0.746E-03    9.13       2.6  T
   6    -50.7005795 -0.903146E-07  0.332E-03    9.13       5.9  T
   7    -50.7005795 -0.234741E-07  0.133E-03    9.13      14.8  T
speedup  0.97
cpu  time for SCC    0.01 s
wall time for SCC    0.01 s
speedup  0.97
cpu  time for grad    0.01 s
wall time for grad    0.01 s
 E :    -50.43024565  G :  0.029537    pred/act E change: -0.347D-02 -0.473D-02
Maxdispl :   0.2092   ||displ|| :   0.4739   Lambda : -0.303D-02
Largest |displ|/coords:  0.2092 (   6)  0.1692 (   3)  0.1624 (  14)
................................................................................
.............................. CYCLE    6 ......................................
................................................................................
   1    -50.6972232 -0.506972E+02  0.353E-01    9.17       0.0  T
   2    -50.6973931 -0.169854E-03  0.260E-01    9.17       1.0  T
   3    -50.6974621 -0.690086E-04  0.651E-02    9.17       1.0  T
   4    -50.6974826 -0.205301E-04  0.115E-02    9.17       1.7  T
   5    -50.6974829 -0.280816E-06  0.550E-03    9.17       3.6  T
   6    -50.6974829 -0.374345E-07  0.239E-03    9.17       8.2  T
speedup  1.09
cpu  time for SCC    0.01 s
wall time for SCC    0.01 s
speedup  1.04
cpu  time for grad    0.01 s
wall time for grad    0.01 s
 E :    -50.43203613  G :  0.044874    pred/act E change: -0.443D-02 -0.179D-02
Maxdispl :   0.1780   ||displ|| :   0.4967   Lambda : -0.457D-02
Largest |displ|/coords:  0.1780 (  10)  0.1589 (   4)  0.1547 (  18)
................................................................................
.............................. CYCLE    7 ......................................
................................................................................
   1    -50.7086549 -0.507087E+02  0.362E-01    9.11       0.0  T
   2    -50.7089512 -0.296270E-03  0.263E-01    9.11       1.0  T
   3    -50.7090921 -0.140951E-03  0.835E-02    9.10       1.0  T
   4    -50.7091168 -0.246417E-04  0.173E-02    9.10       1.1  T
   5    -50.7091173 -0.506767E-06  0.777E-03    9.10       2.5  T
   6    -50.7091173 -0.692471E-07  0.333E-03    9.10       5.9  T
   7    -50.7091174 -0.175529E-07  0.123E-03    9.10      15.9  T
speedup  1.09
cpu  time for SCC    0.01 s
wall time for SCC    0.01 s
speedup  1.03
cpu  time for grad    0.01 s
wall time for grad    0.01 s
 E :    -50.43301553  G :  0.054942    pred/act E change: -0.186D-02 -0.979D-03
Maxdispl :   0.1683   ||displ|| :   0.3379   Lambda : -0.714D-02
Largest |displ|/coords:  0.1683 (  20)  0.1050 (  21)  0.1001 (  14)
................................................................................
.............................. CYCLE    8 ......................................
................................................................................
   1    -50.6994475 -0.506994E+02  0.434E-01    9.00       0.0  T
   2    -50.6996347 -0.187160E-03  0.322E-01    9.00       1.0  T
   3    -50.6997332 -0.985104E-04  0.783E-02    9.01       1.0  T
   4    -50.6997547 -0.215467E-04  0.224E-02    9.00       1.0  T
   5    -50.6997564 -0.164363E-05  0.774E-03    9.00       2.5  T
   6    -50.6997565 -0.718709E-07  0.420E-03    9.00       4.7  T
   7    -50.6997565 -0.286113E-07  0.111E-03    9.00      17.7  T
speedup  1.08
cpu  time for SCC    0.01 s
wall time for SCC    0.01 s
speedup  1.03
cpu  time for grad    0.01 s
wall time for grad    0.01 s
 E :    -50.43351982  G :  0.061483    pred/act E change: -0.285D-02 -0.504D-03
Maxdispl :   0.1999   ||displ|| :   0.4021   Lambda : -0.953D-02
Largest |displ|/coords:  0.1999 (  14)  0.1297 (  26)  0.1160 (  20)
................................................................................
.............................. CYCLE    9 ......................................
................................................................................
   1    -50.7184440 -0.507184E+02  0.499E-01    9.04       0.0  T
   2    -50.7187090 -0.264966E-03  0.373E-01    9.01       1.0  T
   3    -50.7188792 -0.170212E-03  0.909E-02    8.93       1.0  T
   4    -50.7189105 -0.313103E-04  0.206E-02    8.95       1.0  T
   5    -50.7189114 -0.929659E-06  0.100E-02    8.95       2.0  T
   6    -50.7189115 -0.103776E-06  0.418E-03    8.95       4.7  T
   7    -50.7189115 -0.316742E-07  0.128E-03    8.95      15.3  T
speedup  0.95
cpu  time for SCC    0.01 s
wall time for SCC    0.01 s
speedup  0.97
cpu  time for grad    0.01 s
wall time for grad    0.01 s
 E :    -50.43211129  G :  0.101080    pred/act E change: -0.398D-02  0.141D-02
Maxdispl :   0.1640   ||displ|| :   0.4486   Lambda : -0.173D-01
Largest |displ|/coords:  0.1640 (  10)  0.1587 (  23)  0.1316 (  11)
................................................................................
.............................. CYCLE   10 ......................................
................................................................................
   1    -50.6994595 -0.506995E+02  0.601E-01    8.84       0.0  T
   2    -50.6998776 -0.418121E-03  0.446E-01    8.84       1.0  T
   3    -50.7001244 -0.246758E-03  0.116E-01    8.83       1.0  T
   4    -50.7001749 -0.505008E-04  0.253E-02    8.82       1.0  T
   5    -50.7001755 -0.624369E-06  0.119E-02    8.82       1.6  T
   6    -50.7001759 -0.381402E-06  0.485E-03    8.82       4.0  T
   7    -50.7001759 -0.465111E-07  0.128E-03    8.83      15.3  T
speedup  0.95
cpu  time for SCC    0.01 s
wall time for SCC    0.01 s
speedup  1.03
cpu  time for grad    0.01 s
wall time for grad    0.01 s
 E :    -50.43088287  G :  0.089012    pred/act E change: -0.553D-02  0.123D-02
Maxdispl :   0.1707   ||displ|| :   0.4857   Lambda : -0.225D-01
Largest |displ|/coords:  0.1707 (  11)  0.1701 (  23)  0.1522 (  10)
................................................................................
.............................. CYCLE   11 ......................................
................................................................................
   1    -50.7180267 -0.507180E+02  0.664E-01    8.83       0.0  T
   2    -50.7184654 -0.438742E-03  0.496E-01    8.82       1.0  T
   3    -50.7187697 -0.304270E-03  0.118E-01    8.78       1.0  T
   4    -50.7188198 -0.500515E-04  0.275E-02    8.78       1.0  T
   5    -50.7188208 -0.107788E-05  0.139E-02    8.78       1.4  T
   6    -50.7188210 -0.124973E-06  0.547E-03    8.78       3.6  T
   7    -50.7188210 -0.720711E-07  0.132E-03    8.78      14.8  T
speedup  1.09
cpu  time for SCC    0.01 s
wall time for SCC    0.01 s
speedup  1.02
cpu  time for grad    0.01 s
wall time for grad    0.01 s
 E :    -50.43381449  G :  0.088111    pred/act E change: -0.104D-01 -0.293D-02
Maxdispl :   0.1293   ||displ|| :   0.3148   Lambda : -0.112D-01
Largest |displ|/coords:  0.1293 (  19)  0.1025 (   5)  0.0986 (   4)
................................................................................
.............................. CYCLE   12 ......................................
................................................................................
   1    -50.7123712 -0.507124E+02  0.424E-01    8.80       0.0  T
   2    -50.7125480 -0.176817E-03  0.316E-01    8.78       1.0  T
   3    -50.7126618 -0.113857E-03  0.756E-02    8.75       1.0  T
   4    -50.7126821 -0.202615E-04  0.197E-02    8.75       1.0  T
   5    -50.7126829 -0.831122E-06  0.788E-03    8.75       2.5  T
   6    -50.7126830 -0.572468E-07  0.395E-03    8.75       5.0  T
   7    -50.7126830 -0.257242E-07  0.967E-04    8.75      20.3  T
speedup  0.95
cpu  time for SCC    0.01 s
wall time for SCC    0.01 s
speedup  0.98
cpu  time for grad    0.01 s
wall time for grad    0.01 s
 E :    -50.43676629  G :  0.051426    pred/act E change: -0.139D-01 -0.295D-02
Maxdispl :   0.1084   ||displ|| :   0.2595   Lambda : -0.545D-02
Largest |displ|/coords:  0.1084 (   6)  0.0799 (  28)  0.0720 (   5)
................................................................................
.............................. CYCLE   13 ......................................
................................................................................
   1    -50.7224641 -0.507225E+02  0.286E-01    8.69       0.0  T
   2    -50.7225480 -0.838899E-04  0.213E-01    8.67       1.0  T
   3    -50.7226012 -0.531233E-04  0.517E-02    8.63       1.0  T
   4    -50.7226099 -0.878575E-05  0.170E-02    8.63       1.2  T
   5    -50.7226107 -0.725781E-06  0.583E-03    8.64       3.4  T
   6    -50.7226107 -0.330930E-07  0.300E-03    8.64       6.5  T
speedup  0.91
cpu  time for SCC    0.00 s
wall time for SCC    0.01 s
speedup  0.96
cpu  time for grad    0.01 s
wall time for grad    0.01 s
 E :    -50.43756749  G :  0.054309    pred/act E change: -0.617D-02 -0.801D-03
Maxdispl :   0.1049   ||displ|| :   0.2634   Lambda : -0.523D-02
Largest |displ|/coords:  0.1049 (  28)  0.0927 (  16)  0.0807 (  12)
................................................................................
.............................. CYCLE   14 ......................................
................................................................................
   1    -50.7153843 -0.507154E+02  0.265E-01    8.69       0.0  T
   2    -50.7154764 -0.920777E-04  0.195E-01    8.68       1.0  T
   3    -50.7155330 -0.565866E-04  0.524E-02    8.66       1.0  T
   4    -50.7155428 -0.981643E-05  0.132E-02    8.66       1.5  T
   5    -50.7155431 -0.308776E-06  0.579E-03    8.66       3.4  T
   6    -50.7155432 -0.697908E-07  0.276E-03    8.66       7.1  T
speedup  0.94
cpu  time for SCC    0.00 s
wall time for SCC    0.01 s
speedup  0.98
cpu  time for grad    0.01 s
wall time for grad    0.01 s
 E :    -50.43839969  G :  0.044129    pred/act E change: -0.291D-02 -0.832D-03
Maxdispl :   0.0640   ||displ|| :   0.1573   Lambda : -0.244D-02
Largest |displ|/coords:  0.0640 (  16)  0.0542 (   4)  0.0443 (   6)
................................................................................
.............................. CYCLE   15 ......................................
................................................................................
   1    -50.7220607 -0.507221E+02  0.135E-01    8.63       0.0  T
   2    -50.7220766 -0.159052E-04  0.101E-01    8.61       1.0  T
   3    -50.7220879 -0.113287E-04  0.222E-02    8.58       1.0  T
   4    -50.7220897 -0.174996E-05  0.688E-03    8.58       2.9  T
   5    -50.7220898 -0.934755E-07  0.280E-03    8.58       7.0  T
   6    -50.7220898 -0.913182E-08  0.138E-03    8.58      14.2  T
speedup  0.93
cpu  time for SCC    0.00 s
wall time for SCC    0.01 s
speedup  0.98
cpu  time for grad    0.01 s
wall time for grad    0.01 s
 E :    -50.43988466  G :  0.022974    pred/act E change: -0.280D-02 -0.148D-02
Maxdispl :   0.0819   ||displ|| :   0.1765   Lambda : -0.127D-02
Largest |displ|/coords:  0.0819 (   6)  0.0571 (   7)  0.0555 (  21)
................................................................................
.............................. CYCLE   16 ......................................
................................................................................
   1    -50.7257085 -0.507257E+02  0.139E-01    8.54       0.0  T
   2    -50.7257234 -0.149105E-04  0.105E-01    8.52       1.0  T
   3    -50.7257328 -0.934610E-05  0.221E-02    8.47       1.0  T
   4    -50.7257348 -0.204861E-05  0.716E-03    8.47       2.7  T
   5    -50.7257350 -0.131085E-06  0.278E-03    8.47       7.1  T
   6    -50.7257350 -0.856055E-08  0.144E-03    8.47      13.6  T
speedup  0.94
cpu  time for SCC    0.00 s
wall time for SCC    0.01 s
speedup  0.98
cpu  time for grad    0.01 s
wall time for grad    0.01 s
 E :    -50.44072522  G :  0.024488    pred/act E change: -0.125D-02 -0.841D-03
Maxdispl :   0.0827   ||displ|| :   0.2794   Lambda : -0.185D-02
Largest |displ|/coords:  0.0827 (   6)  0.0819 (   7)  0.0819 (   4)
................................................................................
.............................. CYCLE   17 ......................................
................................................................................
   1    -50.7379879 -0.507380E+02  0.176E-01    8.46       0.0  T
   2    -50.7380145 -0.266831E-04  0.133E-01    8.42       1.0  T
   3    -50.7380366 -0.220234E-04  0.285E-02    8.33       1.0  T
   4    -50.7380398 -0.324280E-05  0.868E-03    8.33       2.3  T
   5    -50.7380399 -0.120179E-06  0.408E-03    8.33       4.8  T
   6    -50.7380399 -0.201327E-07  0.185E-03    8.33      10.6  T
speedup  0.94
cpu  time for SCC    0.00 s
wall time for SCC    0.01 s
speedup  0.98
cpu  time for grad    0.01 s
wall time for grad    0.01 s
 E :    -50.44151604  G :  0.031568    pred/act E change: -0.653D-03 -0.791D-03
Maxdispl :   0.1241   ||displ|| :   0.3372   Lambda : -0.215D-02
Largest |displ|/coords:  0.1241 (  13)  0.1065 (   4)  0.1010 (   7)
................................................................................
.............................. CYCLE   18 ......................................
................................................................................
   1    -50.7374066 -0.507374E+02  0.286E-01    8.26       0.0  T
   2    -50.7374462 -0.396011E-04  0.215E-01    8.23       1.0  T
   3    -50.7374789 -0.326804E-04  0.348E-02    8.16       1.0  T
   4    -50.7374841 -0.519620E-05  0.110E-02    8.17       1.8  T
   5    -50.7374843 -0.177827E-06  0.482E-03    8.17       4.1  T
   6    -50.7374843 -0.314785E-07  0.240E-03    8.17       8.2  T
speedup  1.07
cpu  time for SCC    0.01 s
wall time for SCC    0.01 s
speedup  0.96
cpu  time for grad    0.01 s
wall time for grad    0.01 s
 E :    -50.44179606  G :  0.034410    pred/act E change: -0.996D-03 -0.280D-03
Maxdispl :   0.0589   ||displ|| :   0.1471   Lambda : -0.151D-02
Largest |displ|/coords:  0.0589 (  16)  0.0510 (   7)  0.0507 (  15)
................................................................................
.............................. CYCLE   19 ......................................
................................................................................
   1    -50.7341958 -0.507342E+02  0.140E-01    8.17       0.0  T
   2    -50.7342117 -0.159749E-04  0.104E-01    8.17       1.0  T
   3    -50.7342228 -0.110978E-04  0.233E-02    8.20       1.0  T
   4    -50.7342247 -0.187586E-05  0.819E-03    8.20       2.4  T
   5    -50.7342248 -0.148841E-06  0.287E-03    8.20       6.8  T
   6    -50.7342249 -0.859907E-08  0.140E-03    8.20      14.0  T
speedup  0.94
cpu  time for SCC    0.00 s
wall time for SCC    0.01 s
speedup  0.98
cpu  time for grad    0.01 s
wall time for grad    0.01 s
 E :    -50.44239768  G :  0.009627    pred/act E change: -0.119D-02 -0.602D-03
Maxdispl :   0.0438   ||displ|| :   0.0875   Lambda : -0.284D-03
Largest |displ|/coords:  0.0438 (   9)  0.0430 (   8)  0.0260 (  10)
................................................................................
.............................. CYCLE   20 ......................................
................................................................................
   1    -50.7374539 -0.507375E+02  0.710E-02    8.29       0.0  T
   2    -50.7374581 -0.417063E-05  0.519E-02    8.29       1.0  T
   3    -50.7374606 -0.256777E-05  0.123E-02    8.29       1.6  T
   4    -50.7374610 -0.411212E-06  0.380E-03    8.29       5.2  T
   5    -50.7374611 -0.251586E-07  0.125E-03    8.29      15.7  T
   6    -50.7374611 -0.254596E-08  0.566E-04    8.29      34.7  T
speedup  0.94
cpu  time for SCC    0.00 s
wall time for SCC    0.01 s
speedup  0.98
cpu  time for grad    0.01 s
wall time for grad    0.01 s
 E :    -50.44248379  G :  0.006108    pred/act E change: -0.772D-03 -0.861D-04
Maxdispl :   0.0311   ||displ|| :   0.0683   Lambda : -0.126D-03
Largest |displ|/coords:  0.0311 (   8)  0.0226 (   6)  0.0213 (   3)
................................................................................
.............................. CYCLE   21 ......................................
................................................................................
   1    -50.7364181 -0.507364E+02  0.519E-02    8.23       0.0  T
   2    -50.7364187 -0.610891E-06  0.384E-02    8.23       1.0  T
   3    -50.7364193 -0.610526E-06  0.597E-03    8.23       3.3  T
   4    -50.7364193 -0.482813E-07  0.161E-03    8.23      12.2  T
   5    -50.7364193 -0.435622E-08  0.555E-04    8.23      35.3  T
speedup  1.11
cpu  time for SCC    0.00 s
wall time for SCC    0.00 s
speedup  1.04
cpu  time for grad    0.01 s
wall time for grad    0.01 s
 E :    -50.44257161  G :  0.004806    pred/act E change: -0.143D-03 -0.878D-04
Maxdispl :   0.0468   ||displ|| :   0.1037   Lambda : -0.118D-03
Largest |displ|/coords:  0.0468 (   9)  0.0422 (  13)  0.0413 (   2)
................................................................................
.............................. CYCLE   22 ......................................
................................................................................
   1    -50.7366588 -0.507367E+02  0.608E-02    8.21       0.0  T
   2    -50.7366595 -0.689970E-06  0.449E-02    8.21       1.0  T
   3    -50.7366600 -0.573774E-06  0.630E-03    8.20       3.1  T
   4    -50.7366601 -0.644211E-07  0.159E-03    8.20      12.4  T
   5    -50.7366601 -0.391537E-08  0.574E-04    8.20      34.2  T
speedup  1.14
cpu  time for SCC    0.00 s
wall time for SCC    0.00 s
speedup  1.05
cpu  time for grad    0.01 s
wall time for grad    0.01 s
 E :    -50.44264692  G :  0.007007    pred/act E change: -0.633D-04 -0.753D-04
Maxdispl :   0.0599   ||displ|| :   0.1567   Lambda : -0.132D-03
Largest |displ|/coords:  0.0599 (  13)  0.0588 (   2)  0.0499 (   8)
................................................................................
.............................. CYCLE   23 ......................................
................................................................................
   1    -50.7346040 -0.507346E+02  0.951E-02    8.14       0.0  T
   2    -50.7346062 -0.220834E-05  0.704E-02    8.14       1.0  T
   3    -50.7346076 -0.143973E-05  0.103E-02    8.13       1.9  T
   4    -50.7346079 -0.283004E-06  0.204E-03    8.13       9.6  T
   5    -50.7346079 -0.574617E-08  0.931E-04    8.13      21.1  T
speedup  1.09
cpu  time for SCC    0.01 s
wall time for SCC    0.00 s
speedup  1.04
cpu  time for grad    0.01 s
wall time for grad    0.01 s
 E :    -50.44271555  G :  0.008348    pred/act E change: -0.594D-04 -0.686D-04
Maxdispl :   0.0644   ||displ|| :   0.1285   Lambda : -0.118D-03
Largest |displ|/coords:  0.0644 (   9)  0.0514 (   2)  0.0379 (  18)
................................................................................
.............................. CYCLE   24 ......................................
................................................................................
   1    -50.7358669 -0.507359E+02  0.612E-02    8.17       0.0  T
   2    -50.7358677 -0.862410E-06  0.452E-02    8.17       1.0  T
   3    -50.7358684 -0.637275E-06  0.695E-03    8.18       2.8  T
   4    -50.7358684 -0.883331E-07  0.227E-03    8.17       8.6  T
   5    -50.7358685 -0.837686E-08  0.626E-04    8.17      31.3  T
speedup  0.85
cpu  time for SCC    0.00 s
wall time for SCC    0.00 s
speedup  0.94
cpu  time for grad    0.01 s
wall time for grad    0.01 s
 E :    -50.44278495  G :  0.006782    pred/act E change: -0.675D-04 -0.694D-04
Maxdispl :   0.0574   ||displ|| :   0.1257   Lambda : -0.121D-03
Largest |displ|/coords:  0.0574 (   9)  0.0527 (   2)  0.0480 (  13)
................................................................................
.............................. CYCLE   25 ......................................
................................................................................
   1    -50.7369825 -0.507370E+02  0.651E-02    8.20       0.0  T
   2    -50.7369838 -0.122111E-05  0.485E-02    8.20       1.0  T
   3    -50.7369846 -0.880265E-06  0.725E-03    8.20       2.7  T
   4    -50.7369848 -0.150208E-06  0.261E-03    8.20       7.5  T
   5    -50.7369848 -0.119062E-07  0.790E-04    8.20      24.8  T
speedup  1.11
cpu  time for SCC    0.01 s
wall time for SCC    0.00 s
speedup  1.04
cpu  time for grad    0.01 s
wall time for grad    0.01 s
 E :    -50.44284692  G :  0.006755    pred/act E change: -0.599D-04 -0.620D-04
Maxdispl :   0.0333   ||displ|| :   0.0841   Lambda : -0.799D-04
Largest |displ|/coords:  0.0333 (  13)  0.0286 (  12)  0.0280 (   1)

generating ANC from model Hessian ...
 Shifting diagonal of input Hessian by   5.024163115925861E-003
 Lowest  eigenvalues of input Hessian
    0.005000   -0.000000   -0.000000   -0.000000   -0.000000    0.000000
    0.000000    0.005382    0.005445    0.005611    0.006022    0.006620
    0.006745    0.006906    0.007126    0.007481    0.007761    0.008710
 Highest eigenvalues
    1.379576    1.387144    1.415781    2.474177    3.230976    3.918387
 
cpu  time for ANC gen    0.02 s
wall time for ANC gen    0.02 s
................................................................................
.............................. CYCLE   26 ......................................
................................................................................
   1    -50.7366386 -0.507366E+02  0.495E-02    8.21       0.0  T
   2    -50.7366391 -0.551134E-06  0.370E-02    8.21       1.0  T
   3    -50.7366394 -0.296316E-06  0.552E-03    8.21       3.6  T
   4    -50.7366395 -0.867122E-07  0.147E-03    8.21      13.3  T
   5    -50.7366395 -0.447059E-08  0.501E-04    8.21      39.1  T
   6    -50.7366395 -0.264528E-09  0.265E-04    8.21      74.1  T
speedup  0.93
cpu  time for SCC    0.00 s
wall time for SCC    0.01 s
speedup  1.01
cpu  time for grad    0.01 s
wall time for grad    0.01 s
 E :    -50.44290713  G :  0.005269    pred/act E change:  0.000D+00 -0.602D-04
Maxdispl :   0.0533   ||displ|| :   0.1384   Lambda : -0.230D-03
Largest |displ|/coords:  0.0533 (   8)  0.0523 (   9)  0.0459 (  11)
................................................................................
.............................. CYCLE   27 ......................................
................................................................................
   1    -50.7363559 -0.507364E+02  0.138E-01    8.21       0.0  T
   2    -50.7363587 -0.277925E-05  0.104E-01    8.21       1.0  T
   3    -50.7363615 -0.279597E-05  0.758E-03    8.21       2.6  T
   4    -50.7363618 -0.290361E-06  0.277E-03    8.21       7.1  T
   5    -50.7363618 -0.897040E-08  0.119E-03    8.21      16.4  T
speedup  0.93
cpu  time for SCC    0.00 s
wall time for SCC    0.00 s
speedup  0.98
cpu  time for grad    0.01 s
wall time for grad    0.01 s
 E :    -50.44307541  G :  0.003599    pred/act E change:  0.000D+00 -0.168D-03
Maxdispl :   0.1058   ||displ|| :   0.2694   Lambda : -0.268D-03
Largest |displ|/coords:  0.1058 (   5)  0.1049 (   4)  0.0925 (  15)
................................................................................
.............................. CYCLE   28 ......................................
................................................................................
   1    -50.7342465 -0.507342E+02  0.224E-01    8.19       0.0  T
   2    -50.7342520 -0.546198E-05  0.169E-01    8.20       1.0  T
   3    -50.7342583 -0.632137E-05  0.117E-02    8.20       1.7  T
   4    -50.7342587 -0.434750E-06  0.445E-03    8.20       4.4  T
   5    -50.7342588 -0.189457E-07  0.205E-03    8.20       9.6  T
   6    -50.7342588 -0.745244E-08  0.864E-04    8.20      22.7  T
   7    -50.7342588 -0.165136E-08  0.216E-04    8.20      90.9  T
speedup  0.95
cpu  time for SCC    0.01 s
wall time for SCC    0.01 s
speedup  1.01
cpu  time for grad    0.01 s
wall time for grad    0.01 s
 E :    -50.44322830  G :  0.009879    pred/act E change: -0.117D-03 -0.153D-03
Maxdispl :   0.0657   ||displ|| :   0.1217   Lambda : -0.150D-03
Largest |displ|/coords:  0.0657 (   5)  0.0452 (  15)  0.0441 (   4)
................................................................................
.............................. CYCLE   29 ......................................
................................................................................
   1    -50.7346382 -0.507346E+02  0.747E-02    8.20       0.0  T
   2    -50.7346390 -0.818474E-06  0.561E-02    8.20       1.0  T
   3    -50.7346397 -0.701208E-06  0.564E-03    8.21       3.5  T
   4    -50.7346398 -0.988919E-07  0.152E-03    8.20      12.9  T
   5    -50.7346398 -0.277626E-08  0.723E-04    8.20      27.1  T
speedup  0.89
cpu  time for SCC    0.00 s
wall time for SCC    0.00 s
speedup  0.96
cpu  time for grad    0.01 s
wall time for grad    0.01 s
 E :    -50.44335112  G :  0.006708    pred/act E change: -0.144D-03 -0.123D-03
Maxdispl :   0.2142   ||displ|| :   0.3700   Lambda : -0.327D-03
Largest |displ|/coords:  0.2142 (   5)  0.1215 (  15)  0.1197 (  13)
................................................................................
.............................. CYCLE   30 ......................................
................................................................................
   1    -50.7335878 -0.507336E+02  0.233E-01    8.18       0.0  T
   2    -50.7335952 -0.742685E-05  0.176E-01    8.19       1.0  T
   3    -50.7336046 -0.937773E-05  0.174E-02    8.19       1.1  T
   4    -50.7336051 -0.486971E-06  0.670E-03    8.19       2.9  T
   5    -50.7336052 -0.572170E-07  0.238E-03    8.19       8.2  T
   6    -50.7336052 -0.642991E-08  0.122E-03    8.19      16.1  T
speedup  0.93
cpu  time for SCC    0.00 s
wall time for SCC    0.01 s
speedup  0.96
cpu  time for grad    0.01 s
wall time for grad    0.01 s
 E :    -50.44356303  G :  0.010018    pred/act E change: -0.764D-04 -0.212D-03
Maxdispl :   0.1224   ||displ|| :   0.2417   Lambda : -0.317D-03
Largest |displ|/coords:  0.1224 (   5)  0.0841 (   1)  0.0747 (  13)
................................................................................
.............................. CYCLE   31 ......................................
................................................................................
   1    -50.7364065 -0.507364E+02  0.125E-01    8.20       0.0  T
   2    -50.7364115 -0.496586E-05  0.928E-02    8.20       1.0  T
   3    -50.7364153 -0.379869E-05  0.156E-02    8.19       1.3  T
   4    -50.7364159 -0.602320E-06  0.406E-03    8.19       4.8  T
   5    -50.7364159 -0.286304E-07  0.167E-03    8.19      11.7  T
   6    -50.7364159 -0.331185E-08  0.910E-04    8.19      21.6  T
speedup  0.93
cpu  time for SCC    0.00 s
wall time for SCC    0.01 s
speedup  0.98
cpu  time for grad    0.01 s
wall time for grad    0.01 s
 E :    -50.44369822  G :  0.006610    pred/act E change: -0.186D-03 -0.135D-03
Maxdispl :   0.2237   ||displ|| :   0.4745   Lambda : -0.381D-03
Largest |displ|/coords:  0.2237 (   5)  0.1818 (   4)  0.1731 (  15)
................................................................................
.............................. CYCLE   32 ......................................
................................................................................
   1    -50.7293172 -0.507293E+02  0.325E-01    8.17       0.0  T
   2    -50.7293321 -0.148824E-04  0.245E-01    8.17       1.0  T
   3    -50.7293514 -0.192564E-04  0.253E-02    8.17       1.0  T
   4    -50.7293523 -0.942852E-06  0.949E-03    8.17       2.1  T
   5    -50.7293524 -0.115734E-06  0.356E-03    8.17       5.5  T
   6    -50.7293525 -0.152764E-07  0.177E-03    8.17      11.1  T
   7    -50.7293525 -0.460702E-08  0.397E-04    8.17      49.4  T
speedup  0.97
cpu  time for SCC    0.01 s
wall time for SCC    0.01 s
speedup  0.99
cpu  time for grad    0.01 s
wall time for grad    0.01 s
 E :    -50.44379229  G :  0.017292    pred/act E change: -0.168D-03 -0.941D-04
Maxdispl :   0.1019   ||displ|| :   0.1718   Lambda : -0.408D-03
Largest |displ|/coords:  0.1019 (   5)  0.0604 (  15)  0.0545 (   9)
................................................................................
.............................. CYCLE   33 ......................................
................................................................................
   1    -50.7348371 -0.507348E+02  0.114E-01    8.20       0.0  T
   2    -50.7348395 -0.240125E-05  0.858E-02    8.20       1.0  T
   3    -50.7348419 -0.236829E-05  0.911E-03    8.19       2.2  T
   4    -50.7348421 -0.263846E-06  0.335E-03    8.19       5.9  T
   5    -50.7348422 -0.140793E-07  0.132E-03    8.19      14.9  T
   6    -50.7348422 -0.210244E-08  0.620E-04    8.19      31.7  T
speedup  0.93
cpu  time for SCC    0.00 s
wall time for SCC    0.01 s
speedup  0.98
cpu  time for grad    0.01 s
wall time for grad    0.01 s
 E :    -50.44397246  G :  0.007300    pred/act E change: -0.234D-03 -0.180D-03
Maxdispl :   0.0844   ||displ|| :   0.1683   Lambda : -0.177D-03
Largest |displ|/coords:  0.0844 (   4)  0.0638 (  15)  0.0538 (   1)
................................................................................
.............................. CYCLE   34 ......................................
................................................................................
   1    -50.7348237 -0.507348E+02  0.109E-01    8.20       0.0  T
   2    -50.7348258 -0.210695E-05  0.820E-02    8.19       1.0  T
   3    -50.7348283 -0.248809E-05  0.978E-03    8.19       2.0  T
   4    -50.7348284 -0.181894E-06  0.371E-03    8.19       5.3  T
   5    -50.7348285 -0.173994E-07  0.108E-03    8.19      18.2  T
   6    -50.7348285 -0.135073E-08  0.622E-04    8.19      31.5  T
speedup  0.93
cpu  time for SCC    0.00 s
wall time for SCC    0.01 s
speedup  0.98
cpu  time for grad    0.01 s
wall time for grad    0.01 s
 E :    -50.44410902  G :  0.004969    pred/act E change: -0.210D-03 -0.137D-03
Maxdispl :   0.2545   ||displ|| :   0.6255   Lambda : -0.481D-03
Largest |displ|/coords:  0.2545 (   4)  0.2408 (  15)  0.2093 (   1)
................................................................................
.............................. CYCLE   35 ......................................
................................................................................
   1    -50.7301710 -0.507302E+02  0.371E-01    8.16       0.0  T
   2    -50.7301973 -0.263470E-04  0.279E-01    8.15       1.0  T
   3    -50.7302286 -0.313149E-04  0.353E-02    8.13       1.0  T
   4    -50.7302309 -0.224070E-05  0.134E-02    8.13       1.5  T
   5    -50.7302311 -0.228886E-06  0.416E-03    8.13       4.7  T
   6    -50.7302311 -0.203531E-07  0.231E-03    8.13       8.5  T
   7    -50.7302311 -0.699276E-08  0.567E-04    8.13      34.6  T
speedup  0.97
cpu  time for SCC    0.01 s
wall time for SCC    0.01 s
speedup  0.99
cpu  time for grad    0.01 s
wall time for grad    0.01 s
 E :    -50.44421886  G :  0.020802    pred/act E change: -0.909D-04 -0.110D-03
Maxdispl :   0.0436   ||displ|| :   0.0956   Lambda : -0.580D-03
Largest |displ|/coords:  0.0436 (  19)  0.0353 (  11)  0.0339 (   5)
................................................................................
.............................. CYCLE   36 ......................................
................................................................................
   1    -50.7327549 -0.507328E+02  0.826E-02    8.16       0.0  T
   2    -50.7327600 -0.514096E-05  0.617E-02    8.16       1.0  T
   3    -50.7327641 -0.410833E-05  0.135E-02    8.16       1.4  T
   4    -50.7327647 -0.599230E-06  0.417E-03    8.16       4.7  T
   5    -50.7327647 -0.267465E-07  0.168E-03    8.16      11.7  T
speedup  0.89
cpu  time for SCC    0.00 s
wall time for SCC    0.00 s
speedup  0.97
cpu  time for grad    0.01 s
wall time for grad    0.01 s
 E :    -50.44442301  G :  0.010750    pred/act E change: -0.335D-03 -0.204D-03
Maxdispl :   0.0540   ||displ|| :   0.1307   Lambda : -0.378D-03
Largest |displ|/coords:  0.0540 (   6)  0.0398 (  10)  0.0379 (   2)
................................................................................
.............................. CYCLE   37 ......................................
................................................................................
   1    -50.7391800 -0.507392E+02  0.101E-01    8.18       0.0  T
   2    -50.7391865 -0.651093E-05  0.751E-02    8.18       1.0  T
   3    -50.7391903 -0.378956E-05  0.151E-02    8.17       1.3  T
   4    -50.7391910 -0.716332E-06  0.393E-03    8.17       5.0  T
   5    -50.7391911 -0.352551E-07  0.144E-03    8.17      13.6  T
   6    -50.7391911 -0.123588E-08  0.744E-04    8.17      26.4  T
speedup  0.94
cpu  time for SCC    0.00 s
wall time for SCC    0.01 s
speedup  0.98
cpu  time for grad    0.01 s
wall time for grad    0.01 s
 E :    -50.44432818  G :  0.018750    pred/act E change: -0.292D-03  0.948D-04
Maxdispl :   0.1419   ||displ|| :   0.3057   Lambda : -0.629D-03
Largest |displ|/coords:  0.1419 (   4)  0.1083 (   5)  0.0934 (  13)
................................................................................
.............................. CYCLE   38 ......................................
................................................................................
   1    -50.7341892 -0.507342E+02  0.203E-01    8.11       0.0  T
   2    -50.7342000 -0.107490E-04  0.152E-01    8.11       1.0  T
   3    -50.7342106 -0.105823E-04  0.227E-02    8.11       1.0  T
   4    -50.7342117 -0.110556E-05  0.767E-03    8.11       2.6  T
   5    -50.7342118 -0.908082E-07  0.262E-03    8.11       7.5  T
   6    -50.7342118 -0.763392E-08  0.137E-03    8.11      14.3  T
speedup  1.07
cpu  time for SCC    0.01 s
wall time for SCC    0.01 s
speedup  1.04
cpu  time for grad    0.01 s
wall time for grad    0.01 s
 E :    -50.44459394  G :  0.013734    pred/act E change: -0.192D-03 -0.266D-03
Maxdispl :   0.1230   ||displ|| :   0.2458   Lambda : -0.448D-03
Largest |displ|/coords:  0.1230 (   4)  0.1161 (  15)  0.0713 (  11)
................................................................................
.............................. CYCLE   39 ......................................
................................................................................
   1    -50.7293527 -0.507294E+02  0.161E-01    8.10       0.0  T
   2    -50.7293591 -0.645540E-05  0.121E-01    8.10       1.0  T
   3    -50.7293647 -0.550087E-05  0.154E-02    8.10       1.3  T
   4    -50.7293653 -0.641689E-06  0.493E-03    8.10       4.0  T
   5    -50.7293653 -0.408896E-07  0.169E-03    8.10      11.6  T
   6    -50.7293653 -0.376916E-08  0.993E-04    8.10      19.7  T
speedup  1.13
cpu  time for SCC    0.01 s
wall time for SCC    0.01 s
speedup  1.06
cpu  time for grad    0.01 s
wall time for grad    0.01 s
 E :    -50.44454992  G :  0.019266    pred/act E change: -0.344D-03  0.440D-04
Maxdispl :   0.0416   ||displ|| :   0.1082   Lambda : -0.535D-03
Largest |displ|/coords:  0.0416 (  15)  0.0386 (  16)  0.0365 (  11)
................................................................................
.............................. CYCLE   40 ......................................
................................................................................
   1    -50.7356870 -0.507357E+02  0.939E-02    8.14       0.0  T
   2    -50.7356906 -0.366816E-05  0.702E-02    8.13       1.0  T
   3    -50.7356932 -0.258642E-05  0.114E-02    8.13       1.7  T
   4    -50.7356937 -0.441502E-06  0.276E-03    8.13       7.1  T
   5    -50.7356937 -0.111630E-07  0.124E-03    8.13      15.8  T
speedup  1.11
cpu  time for SCC    0.00 s
wall time for SCC    0.00 s
speedup  1.04
cpu  time for grad    0.01 s
wall time for grad    0.01 s
 E :    -50.44475149  G :  0.008967    pred/act E change: -0.237D-03 -0.202D-03
Maxdispl :   0.1088   ||displ|| :   0.2339   Lambda : -0.529D-03
Largest |displ|/coords:  0.1088 (  11)  0.0918 (  15)  0.0813 (  13)
................................................................................
.............................. CYCLE   41 ......................................
................................................................................
   1    -50.7346122 -0.507346E+02  0.175E-01    8.09       0.0  T
   2    -50.7346243 -0.121638E-04  0.131E-01    8.09       1.0  T
   3    -50.7346337 -0.937297E-05  0.228E-02    8.09       1.0  T
   4    -50.7346351 -0.140569E-05  0.753E-03    8.09       2.6  T
   5    -50.7346352 -0.112210E-06  0.254E-03    8.09       7.7  T
   6    -50.7346352 -0.658175E-08  0.131E-03    8.09      14.9  T
speedup  1.13
cpu  time for SCC    0.01 s
wall time for SCC    0.01 s
speedup  1.06
cpu  time for grad    0.01 s
wall time for grad    0.01 s
 E :    -50.44423974  G :  0.031008    pred/act E change: -0.271D-03  0.512D-03
Maxdispl :   0.0551   ||displ|| :   0.1320   Lambda : -0.134D-02
Largest |displ|/coords:  0.0551 (  11)  0.0538 (  10)  0.0465 (  19)
................................................................................
.............................. CYCLE   42 ......................................
................................................................................
   1    -50.7346277 -0.507346E+02  0.105E-01    8.10       0.0  T
   2    -50.7346329 -0.519164E-05  0.787E-02    8.10       1.0  T
   3    -50.7346362 -0.328325E-05  0.131E-02    8.10       1.5  T
   4    -50.7346368 -0.647821E-06  0.448E-03    8.10       4.4  T
   5    -50.7346369 -0.399769E-07  0.144E-03    8.10      13.6  T
speedup  1.11
cpu  time for SCC    0.00 s
wall time for SCC    0.00 s
speedup  1.06
cpu  time for grad    0.01 s
wall time for grad    0.01 s
 E :    -50.44490360  G :  0.006583    pred/act E change: -0.279D-03 -0.664D-03
Maxdispl :   0.0564   ||displ|| :   0.1151   Lambda : -0.118D-03
Largest |displ|/coords:  0.0564 (   8)  0.0496 (   4)  0.0434 (  15)
................................................................................
.............................. CYCLE   43 ......................................
................................................................................
   1    -50.7346916 -0.507347E+02  0.666E-02    8.12       0.0  T
   2    -50.7346930 -0.140639E-05  0.500E-02    8.11       1.0  T
   3    -50.7346940 -0.101345E-05  0.689E-03    8.11       2.8  T
   4    -50.7346942 -0.199820E-06  0.183E-03    8.11      10.7  T
   5    -50.7346943 -0.466262E-08  0.772E-04    8.11      25.4  T
speedup  1.11
cpu  time for SCC    0.00 s
wall time for SCC    0.00 s
speedup  1.04
cpu  time for grad    0.01 s
wall time for grad    0.01 s
 E :    -50.44496526  G :  0.004973    pred/act E change: -0.680D-03 -0.617D-04
Maxdispl :   0.1007   ||displ|| :   0.2225   Lambda : -0.132D-03
Largest |displ|/coords:  0.1007 (  15)  0.0970 (   4)  0.0617 (   8)
................................................................................
.............................. CYCLE   44 ......................................
................................................................................
   1    -50.7342265 -0.507342E+02  0.128E-01    8.10       0.0  T
   2    -50.7342294 -0.291990E-05  0.954E-02    8.10       1.0  T
   3    -50.7342323 -0.291364E-05  0.132E-02    8.09       1.5  T
   4    -50.7342326 -0.299253E-06  0.434E-03    8.09       4.5  T
   5    -50.7342327 -0.277789E-07  0.133E-03    8.09      14.7  T
   6    -50.7342327 -0.242795E-08  0.808E-04    8.09      24.3  T
speedup  1.13
cpu  time for SCC    0.01 s
wall time for SCC    0.01 s
speedup  1.06
cpu  time for grad    0.01 s
wall time for grad    0.01 s
 E :    -50.44507341  G :  0.005545    pred/act E change: -0.597D-04 -0.108D-03
Maxdispl :   0.1621   ||displ|| :   0.3541   Lambda : -0.231D-03
Largest |displ|/coords:  0.1621 (  15)  0.1340 (   4)  0.1238 (   8)
................................................................................
.............................. CYCLE   45 ......................................
................................................................................
   1    -50.7352095 -0.507352E+02  0.205E-01    8.11       0.0  T
   2    -50.7352172 -0.777342E-05  0.153E-01    8.11       1.0  T
   3    -50.7352250 -0.774015E-05  0.206E-02    8.10       1.0  T
   4    -50.7352258 -0.819972E-06  0.690E-03    8.10       2.8  T
   5    -50.7352259 -0.694704E-07  0.231E-03    8.10       8.5  T
   6    -50.7352259 -0.705784E-08  0.131E-03    8.10      15.0  T
speedup  1.09
cpu  time for SCC    0.01 s
wall time for SCC    0.01 s
speedup  1.04
cpu  time for grad    0.01 s
wall time for grad    0.01 s
 E :    -50.44522257  G :  0.006192    pred/act E change: -0.693D-04 -0.149D-03
Maxdispl :   0.1522   ||displ|| :   0.3841   Lambda : -0.143D-03
Largest |displ|/coords:  0.1522 (   8)  0.1509 (  15)  0.1419 (   4)
................................................................................
.............................. CYCLE   46 ......................................
................................................................................
   1    -50.7312736 -0.507313E+02  0.212E-01    8.04       0.0  T
   2    -50.7312846 -0.109596E-04  0.158E-01    8.03       1.0  T
   3    -50.7312963 -0.116735E-04  0.243E-02    8.02       1.0  T
   4    -50.7312974 -0.112172E-05  0.844E-03    8.02       2.3  T
   5    -50.7312975 -0.101388E-06  0.266E-03    8.02       7.4  T
   6    -50.7312975 -0.962518E-08  0.152E-03    8.02      12.9  T
speedup  0.89
cpu  time for SCC    0.01 s
wall time for SCC    0.01 s
speedup  0.97
cpu  time for grad    0.01 s
wall time for grad    0.01 s
 E :    -50.44516402  G :  0.014010    pred/act E change: -0.130D-03  0.585D-04
Maxdispl :   0.0609   ||displ|| :   0.1429   Lambda : -0.414D-03
Largest |displ|/coords:  0.0609 (   4)  0.0608 (   3)  0.0545 (   1)
................................................................................
.............................. CYCLE   47 ......................................
................................................................................
   1    -50.7374967 -0.507375E+02  0.699E-02    8.07       0.0  T
   2    -50.7375001 -0.331851E-05  0.518E-02    8.07       1.0  T
   3    -50.7375026 -0.254756E-05  0.112E-02    8.08       1.8  T
   4    -50.7375029 -0.340670E-06  0.362E-03    8.08       5.4  T
   5    -50.7375030 -0.163082E-07  0.120E-03    8.08      16.3  T
   6    -50.7375030 -0.146002E-08  0.566E-04    8.08      34.6  T
speedup  0.93
cpu  time for SCC    0.00 s
wall time for SCC    0.01 s
speedup  0.98
cpu  time for grad    0.01 s
wall time for grad    0.01 s
 E :    -50.44531105  G :  0.006511    pred/act E change: -0.822D-04 -0.147D-03
Maxdispl :   0.0408   ||displ|| :   0.0916   Lambda : -0.168D-03
Largest |displ|/coords:  0.0408 (  13)  0.0349 (  15)  0.0343 (   6)
................................................................................
.............................. CYCLE   48 ......................................
................................................................................
   1    -50.7363346 -0.507363E+02  0.624E-02    8.12       0.0  T
   2    -50.7363361 -0.150478E-05  0.466E-02    8.12       1.0  T
   3    -50.7363371 -0.101084E-05  0.730E-03    8.11       2.7  T
   4    -50.7363373 -0.205391E-06  0.185E-03    8.11      10.6  T
   5    -50.7363373 -0.532780E-08  0.812E-04    8.11      24.2  T
speedup  0.85
cpu  time for SCC    0.00 s
wall time for SCC    0.00 s
speedup  0.96
cpu  time for grad    0.01 s
wall time for grad    0.01 s
 E :    -50.44535430  G :  0.009038    pred/act E change: -0.211D-03 -0.432D-04
Maxdispl :   0.0564   ||displ|| :   0.1177   Lambda : -0.104D-03
Largest |displ|/coords:  0.0564 (   8)  0.0478 (  11)  0.0428 (  10)
................................................................................
.............................. CYCLE   49 ......................................
................................................................................
   1    -50.7351987 -0.507352E+02  0.654E-02    8.08       0.0  T
   2    -50.7351998 -0.112489E-05  0.491E-02    8.08       1.0  T
   3    -50.7352010 -0.119472E-05  0.759E-03    8.08       2.6  T
   4    -50.7352011 -0.119937E-06  0.238E-03    8.08       8.2  T
   5    -50.7352011 -0.884112E-08  0.811E-04    8.08      24.2  T
speedup  1.09
cpu  time for SCC    0.00 s
wall time for SCC    0.00 s
speedup  0.96
cpu  time for grad    0.01 s
wall time for grad    0.01 s
 E :    -50.44541311  G :  0.006072    pred/act E change: -0.847D-04 -0.588D-04
Maxdispl :   0.0669   ||displ|| :   0.1452   Lambda : -0.923D-04
Largest |displ|/coords:  0.0669 (   3)  0.0596 (  10)  0.0557 (   8)
................................................................................
.............................. CYCLE   50 ......................................
................................................................................
   1    -50.7341248 -0.507341E+02  0.765E-02    8.05       0.0  T
   2    -50.7341265 -0.168128E-05  0.578E-02    8.05       1.0  T
   3    -50.7341284 -0.192519E-05  0.812E-03    8.05       2.4  T
   4    -50.7341286 -0.160701E-06  0.271E-03    8.05       7.2  T
   5    -50.7341286 -0.116681E-07  0.100E-03    8.05      19.6  T
speedup  1.04
cpu  time for SCC    0.00 s
wall time for SCC    0.00 s
speedup  1.02
cpu  time for grad    0.01 s
wall time for grad    0.01 s
 E :    -50.44544764  G :  0.005874    pred/act E change: -0.529D-04 -0.345D-04
Maxdispl :   0.0598   ||displ|| :   0.1319   Lambda : -0.888D-04
Largest |displ|/coords:  0.0598 (   8)  0.0586 (   3)  0.0537 (   4)
................................................................................
.............................. CYCLE   51 ......................................
................................................................................
   1    -50.7350920 -0.507351E+02  0.588E-02    8.06       0.0  T
   2    -50.7350929 -0.888240E-06  0.438E-02    8.06       1.0  T
   3    -50.7350938 -0.859565E-06  0.635E-03    8.06       3.1  T
   4    -50.7350938 -0.794371E-07  0.195E-03    8.06      10.1  T
   5    -50.7350939 -0.548334E-08  0.656E-04    8.06      29.9  T
speedup  0.87
cpu  time for SCC    0.00 s
wall time for SCC    0.00 s
speedup  0.97
cpu  time for grad    0.01 s
wall time for grad    0.01 s
 E :    -50.44550022  G :  0.003657    pred/act E change: -0.471D-04 -0.526D-04
Maxdispl :   0.1028   ||displ|| :   0.2437   Lambda : -0.127D-03
Largest |displ|/coords:  0.1028 (   4)  0.0932 (   3)  0.0852 (   8)
................................................................................
.............................. CYCLE   52 ......................................
................................................................................
   1    -50.7349940 -0.507350E+02  0.121E-01    8.08       0.0  T
   2    -50.7349971 -0.310442E-05  0.904E-02    8.08       1.0  T
   3    -50.7350000 -0.293545E-05  0.118E-02    8.07       1.7  T
   4    -50.7350004 -0.319763E-06  0.395E-03    8.08       5.0  T
   5    -50.7350004 -0.217493E-07  0.129E-03    8.08      15.2  T
   6    -50.7350004 -0.262993E-08  0.782E-04    8.08      25.1  T
   7    -50.7350004 -0.932019E-09  0.215E-04    8.08      91.3  T
speedup  0.97
cpu  time for SCC    0.01 s
wall time for SCC    0.01 s
speedup  1.02
cpu  time for grad    0.01 s
wall time for grad    0.01 s
 E :    -50.44554078  G :  0.007974    pred/act E change: -0.452D-04 -0.406D-04
Maxdispl :   0.0218   ||displ|| :   0.0455   Lambda : -0.618D-04
Largest |displ|/coords:  0.0218 (   2)  0.0177 (   4)  0.0138 (  15)

generating ANC from model Hessian ...
 Shifting diagonal of input Hessian by   4.932324709105006E-003
 Lowest  eigenvalues of input Hessian
   -0.000000   -0.000000    0.000000    0.000000    0.000000    0.000000
    0.005000    0.005179    0.005250    0.005681    0.006266    0.006578
    0.006696    0.007178    0.007880    0.008561    0.009222    0.010130
 Highest eigenvalues
    1.377866    1.383597    1.408423    2.519421    3.205929    3.927282
 
cpu  time for ANC gen    0.02 s
wall time for ANC gen    0.02 s
................................................................................
.............................. CYCLE   53 ......................................
................................................................................
   1    -50.7352741 -0.507353E+02  0.309E-02    8.08       0.0  T
   2    -50.7352747 -0.518902E-06  0.222E-02    8.08       1.0  T
   3    -50.7352749 -0.249065E-06  0.489E-03    8.09       4.0  T
   4    -50.7352750 -0.482316E-07  0.164E-03    8.09      12.0  T
   5    -50.7352750 -0.323611E-08  0.372E-04    8.08      52.7  T
   6    -50.7352750 -0.234749E-09  0.216E-04    8.09      90.8  T
speedup  1.13
cpu  time for SCC    0.01 s
wall time for SCC    0.01 s
speedup  1.01
cpu  time for grad    0.01 s
wall time for grad    0.01 s
 E :    -50.44558329  G :  0.004463    pred/act E change:  0.000D+00 -0.425D-04
Maxdispl :   0.0584   ||displ|| :   0.1144   Lambda : -0.128D-03
Largest |displ|/coords:  0.0584 (   7)  0.0479 (   8)  0.0463 (   6)
................................................................................
.............................. CYCLE   54 ......................................
................................................................................
   1    -50.7351661 -0.507352E+02  0.101E-01    8.08       0.0  T
   2    -50.7351672 -0.107469E-05  0.761E-02    8.08       1.0  T
   3    -50.7351686 -0.137429E-05  0.615E-03    8.09       3.2  T
   4    -50.7351686 -0.744511E-07  0.240E-03    8.08       8.2  T
   5    -50.7351687 -0.725485E-08  0.896E-04    8.08      21.9  T
speedup  0.89
cpu  time for SCC    0.00 s
wall time for SCC    0.00 s
speedup  0.97
cpu  time for grad    0.01 s
wall time for grad    0.01 s
 E :    -50.44568352  G :  0.003320    pred/act E change:  0.000D+00 -0.100D-03
Maxdispl :   0.1140   ||displ|| :   0.2664   Lambda : -0.206D-03
Largest |displ|/coords:  0.1140 (   7)  0.1124 (   1)  0.1040 (   6)
................................................................................
.............................. CYCLE   55 ......................................
................................................................................
   1    -50.7333285 -0.507333E+02  0.230E-01    8.08       0.0  T
   2    -50.7333322 -0.366615E-05  0.173E-01    8.08       1.0  T
   3    -50.7333368 -0.456840E-05  0.124E-02    8.08       1.6  T
   4    -50.7333370 -0.266983E-06  0.481E-03    8.08       4.1  T
   5    -50.7333370 -0.289764E-07  0.191E-03    8.08      10.3  T
   6    -50.7333371 -0.575226E-08  0.103E-03    8.08      19.0  T
   7    -50.7333371 -0.144217E-08  0.172E-04    8.08     114.0  T
   8    -50.7333371 -0.106859E-09  0.543E-05    8.08     361.4  T
speedup  1.00
cpu  time for SCC    0.01 s
wall time for SCC    0.01 s
speedup  1.03
cpu  time for grad    0.02 s
wall time for grad    0.02 s
 E :    -50.44576754  G :  0.009738    pred/act E change: -0.649D-04 -0.840D-04
Maxdispl :   0.0298   ||displ|| :   0.0615   Lambda : -0.122D-03
Largest |displ|/coords:  0.0298 (   2)  0.0288 (  10)  0.0219 (   5)
................................................................................
.............................. CYCLE   56 ......................................
................................................................................
   1    -50.7348918 -0.507349E+02  0.421E-02    8.08       0.0  T
   2    -50.7348928 -0.969319E-06  0.314E-02    8.08       1.0  T
   3    -50.7348934 -0.592866E-06  0.580E-03    8.08       3.4  T
   4    -50.7348935 -0.126059E-06  0.103E-03    8.08      19.1  T
   5    -50.7348935 -0.114097E-08  0.513E-04    8.08      38.3  T
speedup  1.14
cpu  time for SCC    0.00 s
wall time for SCC    0.00 s
speedup  1.06
cpu  time for grad    0.01 s
wall time for grad    0.01 s
 E :    -50.44583685  G :  0.002705    pred/act E change: -0.110D-03 -0.693D-04
Maxdispl :   0.1094   ||displ|| :   0.1596   Lambda : -0.832D-04
Largest |displ|/coords:  0.1094 (   2)  0.0680 (   1)  0.0540 (   6)
................................................................................
.............................. CYCLE   57 ......................................
................................................................................
   1    -50.7354048 -0.507354E+02  0.993E-02    8.08       0.0  T
   2    -50.7354058 -0.965993E-06  0.745E-02    8.07       1.0  T
   3    -50.7354068 -0.107628E-05  0.729E-03    8.07       2.7  T
   4    -50.7354069 -0.745215E-07  0.218E-03    8.07       9.0  T
   5    -50.7354069 -0.664247E-08  0.831E-04    8.07      23.6  T
   6    -50.7354069 -0.897039E-09  0.503E-04    8.07      39.0  T
speedup  1.13
cpu  time for SCC    0.01 s
wall time for SCC    0.01 s
speedup  1.02
cpu  time for grad    0.01 s
wall time for grad    0.01 s
 E :    -50.44590310  G :  0.002097    pred/act E change: -0.614D-04 -0.662D-04
Maxdispl :   0.2815   ||displ|| :   0.4081   Lambda : -0.148D-03
Largest |displ|/coords:  0.2815 (   2)  0.1851 (   1)  0.1389 (   6)
................................................................................
.............................. CYCLE   58 ......................................
................................................................................
   1    -50.7337859 -0.507338E+02  0.247E-01    8.05       0.0  T
   2    -50.7337904 -0.454818E-05  0.185E-01    8.05       1.0  T
   3    -50.7337959 -0.545381E-05  0.167E-02    8.04       1.2  T
   4    -50.7337962 -0.295740E-06  0.470E-03    8.04       4.2  T
   5    -50.7337962 -0.337978E-07  0.207E-03    8.04       9.5  T
   6    -50.7337962 -0.630230E-08  0.121E-03    8.04      16.3  T
   7    -50.7337962 -0.197147E-08  0.195E-04    8.04     100.5  T
   8    -50.7337962 -0.170466E-09  0.646E-05    8.04     303.5  T
speedup  1.00
cpu  time for SCC    0.01 s
wall time for SCC    0.01 s
speedup  1.03
cpu  time for grad    0.02 s
wall time for grad    0.02 s
 E :    -50.44596816  G :  0.008278    pred/act E change: -0.427D-04 -0.651D-04
Maxdispl :   0.0700   ||displ|| :   0.0919   Lambda : -0.120D-03
Largest |displ|/coords:  0.0700 (   2)  0.0355 (  10)  0.0264 (  15)
................................................................................
.............................. CYCLE   59 ......................................
................................................................................
   1    -50.7360594 -0.507361E+02  0.381E-02    8.04       0.0  T
   2    -50.7360601 -0.751189E-06  0.281E-02    8.04       1.0  T
   3    -50.7360605 -0.408345E-06  0.554E-03    8.03       3.5  T
   4    -50.7360606 -0.967517E-07  0.154E-03    8.03      12.7  T
   5    -50.7360606 -0.493116E-08  0.533E-04    8.03      36.8  T
speedup  1.11
cpu  time for SCC    0.00 s
wall time for SCC    0.00 s
speedup  0.97
cpu  time for grad    0.01 s
wall time for grad    0.01 s
 E :    -50.44603237  G :  0.002556    pred/act E change: -0.862D-04 -0.642D-04
Maxdispl :   0.1914   ||displ|| :   0.2412   Lambda : -0.705D-04
Largest |displ|/coords:  0.1914 (   2)  0.1027 (   1)  0.0610 (   7)
................................................................................
.............................. CYCLE   60 ......................................
................................................................................
   1    -50.7359719 -0.507360E+02  0.112E-01    8.02       0.0  T
   2    -50.7359733 -0.139920E-05  0.835E-02    8.02       1.0  T
   3    -50.7359748 -0.149438E-05  0.918E-03    8.01       2.1  T
   4    -50.7359749 -0.126423E-06  0.273E-03    8.01       7.2  T
   5    -50.7359749 -0.122827E-07  0.104E-03    8.01      18.9  T
   6    -50.7359749 -0.159638E-08  0.616E-04    8.01      31.9  T
   7    -50.7359749 -0.614641E-09  0.129E-04    8.01     152.5  T
speedup  1.13
cpu  time for SCC    0.01 s
wall time for SCC    0.01 s
speedup  1.02
cpu  time for grad    0.01 s
wall time for grad    0.01 s
 E :    -50.44608903  G :  0.003382    pred/act E change: -0.606D-04 -0.567D-04
Maxdispl :   0.3426   ||displ|| :   0.4280   Lambda : -0.104D-03
Largest |displ|/coords:  0.3426 (   2)  0.1754 (   1)  0.1099 (   7)
................................................................................
.............................. CYCLE   61 ......................................
................................................................................
   1    -50.7341576 -0.507342E+02  0.200E-01    7.98       0.0  T
   2    -50.7341617 -0.411244E-05  0.149E-01    7.97       1.0  T
   3    -50.7341658 -0.408649E-05  0.157E-02    7.97       1.3  T
   4    -50.7341662 -0.393334E-06  0.488E-03    7.97       4.0  T
   5    -50.7341662 -0.360631E-07  0.175E-03    7.97      11.2  T
   6    -50.7341662 -0.458432E-08  0.106E-03    7.97      18.5  T
   7    -50.7341662 -0.197246E-08  0.237E-04    7.97      82.9  T
   8    -50.7341662 -0.171831E-09  0.891E-05    7.97     220.0  T
speedup  1.00
cpu  time for SCC    0.01 s
wall time for SCC    0.01 s
speedup  0.97
cpu  time for grad    0.01 s
wall time for grad    0.02 s
 E :    -50.44613195  G :  0.007881    pred/act E change: -0.373D-04 -0.429D-04
Maxdispl :   0.0301   ||displ|| :   0.0753   Lambda : -0.928D-04
Largest |displ|/coords:  0.0301 (   2)  0.0280 (   3)  0.0273 (  13)
................................................................................
.............................. CYCLE   62 ......................................
................................................................................
   1    -50.7359778 -0.507360E+02  0.508E-02    8.00       0.0  T
   2    -50.7359789 -0.102477E-05  0.378E-02    8.00       1.0  T
   3    -50.7359796 -0.683249E-06  0.725E-03    7.99       2.7  T
   4    -50.7359797 -0.135617E-06  0.184E-03    8.00      10.7  T
   5    -50.7359797 -0.623590E-08  0.660E-04    8.00      29.7  T
speedup  0.91
cpu  time for SCC    0.00 s
wall time for SCC    0.00 s
speedup  0.98
cpu  time for grad    0.01 s
wall time for grad    0.01 s
 E :    -50.44617406  G :  0.004122    pred/act E change: -0.615D-04 -0.421D-04
Maxdispl :   0.0866   ||displ|| :   0.1085   Lambda : -0.429D-04
Largest |displ|/coords:  0.0866 (   2)  0.0286 (   7)  0.0274 (   6)
................................................................................
.............................. CYCLE   63 ......................................
................................................................................
   1    -50.7356219 -0.507356E+02  0.526E-02    7.99       0.0  T
   2    -50.7356224 -0.511276E-06  0.393E-02    8.00       1.0  T
   3    -50.7356228 -0.458959E-06  0.461E-03    8.00       4.3  T
   4    -50.7356229 -0.646393E-07  0.173E-03    8.00      11.4  T
   5    -50.7356229 -0.406353E-08  0.618E-04    8.00      31.7  T
speedup  0.89
cpu  time for SCC    0.00 s
wall time for SCC    0.00 s
speedup  0.97
cpu  time for grad    0.01 s
wall time for grad    0.01 s
 E :    -50.44620415  G :  0.003812    pred/act E change: -0.467D-04 -0.301D-04
Maxdispl :   0.1846   ||displ|| :   0.2284   Lambda : -0.850D-04
Largest |displ|/coords:  0.1846 (   2)  0.0525 (   1)  0.0506 (   3)
................................................................................
.............................. CYCLE   64 ......................................
................................................................................
   1    -50.7357596 -0.507358E+02  0.121E-01    8.02       0.0  T
   2    -50.7357620 -0.245476E-05  0.908E-02    8.02       1.0  T
   3    -50.7357646 -0.260843E-05  0.103E-02    8.03       1.9  T
   4    -50.7357648 -0.223234E-06  0.362E-03    8.03       5.4  T
   5    -50.7357649 -0.198717E-07  0.132E-03    8.03      14.9  T
   6    -50.7357649 -0.255418E-08  0.776E-04    8.03      25.3  T
   7    -50.7357649 -0.998767E-09  0.197E-04    8.03      99.7  T
speedup  0.97
cpu  time for SCC    0.01 s
wall time for SCC    0.01 s
speedup  1.02
cpu  time for grad    0.01 s
wall time for grad    0.01 s
 E :    -50.44623667  G :  0.005435    pred/act E change: -0.217D-04 -0.325D-04
Maxdispl :   0.0843   ||displ|| :   0.1139   Lambda : -0.432D-04
Largest |displ|/coords:  0.0843 (   2)  0.0440 (   4)  0.0353 (   3)
................................................................................
.............................. CYCLE   65 ......................................
................................................................................
   1    -50.7346247 -0.507346E+02  0.581E-02    8.02       0.0  T
   2    -50.7346253 -0.614408E-06  0.435E-02    8.03       1.0  T
   3    -50.7346260 -0.661589E-06  0.496E-03    8.03       4.0  T
   4    -50.7346261 -0.605694E-07  0.163E-03    8.03      12.0  T
   5    -50.7346261 -0.490130E-08  0.654E-04    8.03      30.0  T
speedup  0.85
cpu  time for SCC    0.00 s
wall time for SCC    0.00 s
speedup  0.95
cpu  time for grad    0.01 s
wall time for grad    0.01 s
 E :    -50.44626018  G :  0.004419    pred/act E change: -0.447D-04 -0.235D-04
Maxdispl :   0.0407   ||displ|| :   0.0844   Lambda : -0.437D-04
Largest |displ|/coords:  0.0407 (   2)  0.0353 (   1)  0.0351 (   4)
[...]
   2    -50.7367236 -0.195275E-07  0.605E-03    8.02       3.2  T
   3    -50.7367236 -0.164298E-07  0.994E-04    8.02      19.7  T
   4    -50.7367236 -0.144192E-08  0.206E-04    8.02      95.2  T
speedup  1.05
cpu  time for SCC    0.00 s
wall time for SCC    0.00 s
speedup  1.05
cpu  time for grad    0.01 s
wall time for grad    0.01 s
 E :    -50.44639323  G :  0.000668    pred/act E change: -0.107D-05 -0.838D-06
Maxdispl :   0.0106   ||displ|| :   0.0159   Lambda : -0.947D-06
Largest |displ|/coords:  0.0106 (   2)  0.0061 (   1)  0.0052 (   5)

generating ANC from model Hessian ...
 Shifting diagonal of input Hessian by   4.995831236593559E-003
 Lowest  eigenvalues of input Hessian
   -0.000000   -0.000000   -0.000000    0.000000    0.000000    0.000000
    0.005000    0.005157    0.005378    0.005738    0.006100    0.006751
    0.006939    0.007076    0.007663    0.008526    0.008979    0.009528
 Highest eigenvalues
    1.380920    1.387487    1.423694    2.540593    3.187775    3.932556
 
cpu  time for ANC gen    0.02 s
wall time for ANC gen    0.02 s
................................................................................
.............................. CYCLE   82 ......................................
................................................................................
   1    -50.7366638 -0.507367E+02  0.965E-03    8.02       0.0  T
   2    -50.7366638 -0.122524E-07  0.718E-03    8.02       2.7  T
   3    -50.7366638 -0.116771E-07  0.916E-04    8.02      21.4  T
   4    -50.7366638 -0.995072E-09  0.264E-04    8.02      74.2  T
speedup  1.05
cpu  time for SCC    0.00 s
wall time for SCC    0.00 s
speedup  1.06
cpu  time for grad    0.01 s
wall time for grad    0.01 s
 E :    -50.44639370  G :  0.000487    pred/act E change:  0.000D+00 -0.465D-06
Maxdispl :   0.0031   ||displ|| :   0.0065   Lambda : -0.658D-06
Largest |displ|/coords:  0.0031 (   7)  0.0030 (   5)  0.0018 (  10)
................................................................................
.............................. CYCLE   83 ......................................
................................................................................
   1    -50.7366527 -0.507367E+02  0.463E-03    8.02       0.0  T
   2    -50.7366527 -0.372120E-08  0.349E-03    8.02       5.6  T
   3    -50.7366528 -0.454314E-08  0.413E-04    8.02      47.5  T
   4    -50.7366528 -0.282022E-09  0.143E-04    8.02     137.1  T
speedup  0.81
cpu  time for SCC    0.00 s
wall time for SCC    0.00 s
speedup  0.98
cpu  time for grad    0.01 s
wall time for grad    0.01 s
 E :    -50.44639416  G :  0.000269    pred/act E change:  0.000D+00 -0.463D-06
Maxdispl :   0.0050   ||displ|| :   0.0109   Lambda : -0.636D-06
Largest |displ|/coords:  0.0050 (   1)  0.0040 (   3)  0.0039 (   7)
................................................................................
.............................. CYCLE   84 ......................................
................................................................................
   1    -50.7366298 -0.507366E+02  0.757E-03    8.02       0.0  T
   2    -50.7366298 -0.919037E-08  0.565E-03    8.02       3.5  T
   3    -50.7366298 -0.920865E-08  0.761E-04    8.02      25.8  T
   4    -50.7366298 -0.943260E-09  0.223E-04    8.02      87.9  T
speedup  1.08
cpu  time for SCC    0.00 s
wall time for SCC    0.00 s
speedup  0.98
cpu  time for grad    0.01 s
wall time for grad    0.01 s
 E :    -50.44639459  G :  0.000219    pred/act E change: -0.329D-06 -0.434D-06
Maxdispl :   0.0071   ||displ|| :   0.0134   Lambda : -0.496D-06
Largest |displ|/coords:  0.0071 (   1)  0.0055 (   3)  0.0046 (   8)
................................................................................
.............................. CYCLE   85 ......................................
................................................................................
   1    -50.7366195 -0.507366E+02  0.874E-03    8.02       0.0  T
   2    -50.7366195 -0.865588E-08  0.652E-03    8.02       3.0  T
   3    -50.7366195 -0.970989E-08  0.781E-04    8.02      25.1  T
   4    -50.7366195 -0.588763E-09  0.194E-04    8.02     101.0  T
speedup  1.05
cpu  time for SCC    0.00 s
wall time for SCC    0.00 s
speedup  0.98
cpu  time for grad    0.01 s
wall time for grad    0.01 s
 E :    -50.44639498  G :  0.000319    pred/act E change: -0.318D-06 -0.384D-06
Maxdispl :   0.0138   ||displ|| :   0.0238   Lambda : -0.696D-06
Largest |displ|/coords:  0.0138 (   1)  0.0109 (   3)  0.0083 (   8)
................................................................................
.............................. CYCLE   86 ......................................
................................................................................
   1    -50.7366209 -0.507366E+02  0.144E-02    8.02       0.0  T
   2    -50.7366210 -0.228929E-07  0.107E-02    8.02       1.8  T
   3    -50.7366210 -0.288453E-07  0.120E-03    8.02      16.3  T
   4    -50.7366210 -0.108811E-08  0.244E-04    8.02      80.4  T
   5    -50.7366210 -0.131514E-09  0.103E-04    8.02     190.7  T
speedup  1.11
cpu  time for SCC    0.00 s
wall time for SCC    0.00 s
speedup  1.00
cpu  time for grad    0.01 s
wall time for grad    0.01 s
 E :    -50.44639547  G :  0.000408    pred/act E change: -0.248D-06 -0.488D-06
Maxdispl :   0.0112   ||displ|| :   0.0199   Lambda : -0.466D-06
Largest |displ|/coords:  0.0112 (   1)  0.0088 (   3)  0.0083 (   8)
................................................................................
.............................. CYCLE   87 ......................................
................................................................................
   1    -50.7366479 -0.507366E+02  0.110E-02    8.02       0.0  T
   2    -50.7366479 -0.150799E-07  0.824E-03    8.02       2.4  T
   3    -50.7366479 -0.186842E-07  0.879E-04    8.02      22.3  T
   4    -50.7366479 -0.726637E-09  0.225E-04    8.02      87.0  T
speedup  1.08
cpu  time for SCC    0.00 s
wall time for SCC    0.00 s
speedup  1.07
cpu  time for grad    0.01 s
wall time for grad    0.01 s
 E :    -50.44639579  G :  0.000354    pred/act E change: -0.348D-06 -0.325D-06
Maxdispl :   0.0078   ||displ|| :   0.0154   Lambda : -0.343D-06
Largest |displ|/coords:  0.0078 (   1)  0.0069 (   3)  0.0065 (   8)
................................................................................
.............................. CYCLE   88 ......................................
................................................................................
   1    -50.7366865 -0.507367E+02  0.731E-03    8.02       0.0  T
   2    -50.7366865 -0.100504E-07  0.549E-03    8.02       3.6  T
   3    -50.7366865 -0.944700E-08  0.618E-04    8.02      31.7  T
   4    -50.7366865 -0.106991E-08  0.329E-04    8.02      59.6  T
speedup  0.81
cpu  time for SCC    0.00 s
wall time for SCC    0.00 s
speedup  0.98
cpu  time for grad    0.01 s
wall time for grad    0.01 s
 E :    -50.44639603  G :  0.000210    pred/act E change: -0.233D-06 -0.236D-06
Maxdispl :   0.0051   ||displ|| :   0.0100   Lambda : -0.214D-06
Largest |displ|/coords:  0.0051 (   8)  0.0034 (   2)  0.0032 (   4)
................................................................................
.............................. CYCLE   89 ......................................
................................................................................
   1    -50.7367120 -0.507367E+02  0.442E-03    8.02       0.0  T
   2    -50.7367120 -0.517055E-08  0.332E-03    8.02       5.9  T
   3    -50.7367120 -0.332940E-08  0.421E-04    8.02      46.6  T
   4    -50.7367120 -0.775110E-09  0.222E-04    8.02      88.4  T
speedup  0.81
cpu  time for SCC    0.00 s
wall time for SCC    0.00 s
speedup  0.99
cpu  time for grad    0.01 s
wall time for grad    0.01 s
 E :    -50.44639617  G :  0.000138    pred/act E change: -0.171D-06 -0.144D-06
Maxdispl :   0.0034   ||displ|| :   0.0073   Lambda : -0.108D-06
Largest |displ|/coords:  0.0034 (   4)  0.0031 (   8)  0.0028 (   9)
................................................................................
.............................. CYCLE   90 ......................................
................................................................................
   1    -50.7367089 -0.507367E+02  0.343E-03    8.02       0.0  T
   2    -50.7367089 -0.245792E-08  0.256E-03    8.02       7.7  T
   3    -50.7367089 -0.210751E-08  0.315E-04    8.02      62.3  T
   4    -50.7367089 -0.268344E-09  0.163E-04    8.02     120.1  T
speedup  0.81
cpu  time for SCC    0.00 s
wall time for SCC    0.00 s
speedup  0.98
cpu  time for grad    0.01 s
wall time for grad    0.01 s
 E :    -50.44639625  G :  0.000133    pred/act E change: -0.107D-06 -0.746D-07
Maxdispl :   0.0026   ||displ|| :   0.0046   Lambda : -0.653D-07
Largest |displ|/coords:  0.0026 (   4)  0.0020 (   1)  0.0015 (   2)

   *** GEOMETRY OPTIMIZATION CONVERGED AFTER 90 ITERATIONS ***

------------------------------------------------------------------------
 total energy gain (kcal):     -0.0016
------------------------------------------------------------------------
================
 final structure:
================
$coord
        4.29956379013556        0.34537299109016       -1.01362745144789      S 
        3.83660120096076       -0.87916152089220       -3.39375165414042      O 
        6.67678486964345        1.48687006092190       -0.58521714329377      O 
        2.17955556273499        2.37844507664921       -0.63363280964816      O 
        3.78467105675428       -1.54935177999295        1.16114854956630      O 
        2.13917558767858       -2.45015202037076        0.86719136531594      H 
        0.78036982193460        2.13030009422225       -1.87500737681735      H 
       -0.50871156725284       -3.77533209379002        0.64872977615009      O 
       -0.45797873641005       -5.33920010211001        1.56215489890488      H 
       -5.09436931503306        2.33331941809786       -0.16715221020331      O 
       -3.83958462070374        2.34517431323750       -1.50384898839324      H 
       -6.63626594349704        1.72942678067732       -0.90131957189147      H 
       -1.44310952237765        1.75943865221296       -3.89443300675397      O 
       -0.94079483463173        2.59392367321650       -5.42249890928981      H 
       -1.31793013709224       -0.11283384307601       -4.24240116561470      H 
       -0.59441846122707       -2.99301225112818       -4.48173324407597      O 
       -0.90883041852277       -3.66351516440187       -2.80351253893608      H 
        1.21239479447306       -2.61925294974352       -4.49757789481368      H 
       -2.92166927682385       -0.68456598891738        3.40630743206470      O 
       -3.82991552994193        0.48672760070878        2.30765118385899      H 
       -1.58036737365784       -2.56978960855481        1.72957718783672      H 
       -1.53063956940570        0.31169462560966        4.15876036304048      H 
        1.21036243927952        1.94433411234406        4.88410584646665      N 
        1.60828321264201        2.79625685957956        3.21244155032862      H 
        2.63797542798464        0.71486559719967        5.22442500477553      H 
        1.23884752346844        3.28001744830330        6.25322078815522      H 
$end
 
 Bond Distances (Angstroems)
 ---------------------------
S1-O2=1.4375         S1-O3=1.4138         S1-O4=1.5673         S1-O5=1.5505         O2-S1=1.4375         O3-S1=1.4138         
O4-S1=1.5673         O4-H7=0.9985         O5-S1=1.5505         O5-H6=1.0048         H6-O5=1.0048         H7-O4=0.9985         
O8-H9=0.9588         O8-H21=1.0275        H9-O8=0.9588         O10-H11=0.9702       O10-H12=0.9585       H11-O10=0.9702       
H12-O10=0.9585       O13-H14=0.9589       O13-H15=1.0099       H14-O13=0.9589       H15-O13=1.0099       O16-H17=0.9707       
O16-H18=0.9764       H17-O16=0.9707       H18-O16=0.9764       O19-H20=0.9763       O19-H22=0.9891       H20-O19=0.9763       
H21-O8=1.0275        H22-O19=0.9891       N23-H24=1.0149       N23-H25=1.0131       N23-H26=1.0123       H24-N23=1.0149       
H25-N23=1.0131       H26-N23=1.0123       
 N  H  Rav=1.0135 sigma=0.0011  Rmin=1.0123  Rmax=1.0149     3
 O  H  Rav=0.9833 sigma=0.0216  Rmin=0.9585  Rmax=1.0275    12
 S  O  Rav=1.4923 sigma=0.0674  Rmin=1.4138  Rmax=1.5673     4
 
 selected bond angles (degree)
 --------------------
O3-S1-O2=119.00                O4-S1-O2=107.45                O4-S1-O3=108.85                O5-S1-O2=109.20                
O5-S1-O3=108.28                O5-S1-O4=102.88                H7-O4-S1=110.86                H6-O5-S1=110.13                
H21-O8-H9=105.71               H12-O10-H11=106.81             
 
 selected dihedral angles (degree)
 ---------------------------------
H7-O4-S1-O2= 12.91            H7-O4-S1-O3=143.02            H7-O4-S1-O5=257.73            H6-O5-S1-O2=313.50            
H6-O5-S1-O3=182.54            H6-O5-S1-O4= 67.42            
 
 CMA Distance (Angstroems)
 ---------------------------
R(CMA):  3.0601

========================================================================
 FINAL SINGLEPOINT CALCULATION ON OPTIMIZED GEOMETRY
========================================================================

 Ncao       : 65
 Nao        : 64
 Nshell     : 38
 Nel        : 80
 T(el)      :   300.0
 intcut     :    25.0
 scfconv/Eh :  0.100E-05
   qconv/e  :  0.100E-03
 intneglect :  0.100E-07
 broydamp   :      0.250
 iter      E             dE          RMSdq      gap      omega  full diag
   1    -50.7367089 -0.507367E+02  0.648E-05    8.02       0.0  T
   2    -50.7367089 -0.184741E-11  0.418E-05    8.02     469.3  T
   3    -50.7367089 -0.125056E-11  0.669E-06    8.02    2931.4  T
speedup  1.11
cpu  time for SCC    0.00 s
wall time for SCC    0.00 s

   *** convergence criteria satisfied after 3 iterations ***

          eigenvalues
 #    :          28         29         30         31         32         33         34         35
 occ. :        2.000      2.000      2.000      2.000      2.000      2.000      2.000      2.000
 eps  :       -13.602    -13.521    -13.280    -12.936    -12.822    -12.594    -12.585    -12.393
 #    :          36         37         38         39         40         41         42         43
 occ. :        2.000      2.000      2.000      2.000      2.000      0.000      0.000      0.000
 eps  :       -12.274    -12.235    -12.096    -11.884    -11.104     -3.082     -0.810     -0.771
 #    :          44         45         46         47         48         49         50         51
 occ. :        0.000      0.000      0.000      0.000      0.000      0.000      0.000      0.000
 eps  :         0.075      0.813      0.963      1.410      2.349      4.111      4.449      5.177


   #   Z            q   n(s)   n(p)   n(d)      C6AA      α(0)
   1  16 S      1.667  1.575  1.798  0.960    89.527    15.925
   2   8 O     -0.706  1.760  4.946  0.000    28.870     7.204
   3   8 O     -0.633  1.750  4.882  0.000    26.936     6.959
   4   8 O     -0.621  1.755  4.866  0.000    25.675     6.840
   5   8 O     -0.610  1.755  4.855  0.000    25.396     6.803
   6   1 H      0.386  0.614  0.000  0.000     0.508     1.119
   7   1 H      0.386  0.614  0.000  0.000     0.509     1.120
   8   8 O     -0.645  1.766  4.879  0.000    26.296     6.921
   9   1 H      0.294  0.706  0.000  0.000     0.739     1.351
  10   8 O     -0.598  1.743  4.855  0.000    25.134     6.766
  11   1 H      0.323  0.677  0.000  0.000     0.655     1.271
  12   1 H      0.287  0.713  0.000  0.000     0.762     1.371
  13   8 O     -0.633  1.757  4.876  0.000    25.993     6.881
  14   1 H      0.299  0.701  0.000  0.000     0.723     1.336
  15   1 H      0.351  0.649  0.000  0.000     0.586     1.203
  16   8 O     -0.612  1.755  4.857  0.000    25.485     6.813
  17   1 H      0.320  0.680  0.000  0.000     0.665     1.281
  18   1 H      0.327  0.673  0.000  0.000     0.645     1.262
  19   8 O     -0.627  1.758  4.869  0.000    25.838     6.861
  20   1 H      0.324  0.676  0.000  0.000     0.654     1.270
  21   1 H      0.356  0.644  0.000  0.000     0.573     1.189
  22   1 H      0.318  0.682  0.000  0.000     0.670     1.285
  23   7 N     -0.450  1.369  4.080  0.000    31.808     8.376
  24   1 H      0.178  0.822  0.000  0.000     1.227     1.735
  25   1 H      0.163  0.837  0.000  0.000     1.314     1.796
  26   1 H      0.156  0.844  0.000  0.000     1.359     1.826

 Mol. C6AA /au·bohr⁶  :       5447.738459
 Mol. C8AA /au·bohr⁸  :     117665.775508
 Mol. α(0) /au        :        106.763774

 
 Wiberg/Mayer (AO) data. WBOs > 0.1 written file <wbo>
 largest (>0.05) Wiberg bond orders for each atom
           total WBO             WBO to atom ...
     1  S   4.897    O    3 1.525    O    2 1.385    O    5 0.996    O    4 0.961
     2  O   1.747    S    1 1.385    O    3 0.123    O    5 0.091    O    4 0.090
     3  O   1.828    S    1 1.525    O    2 0.123    O    4 0.079    O    5 0.077
     4  O   1.972    S    1 0.961    H    7 0.718    O    2 0.090    O    3 0.079    O    5 0.062
     5  O   1.983    S    1 0.996    H    6 0.705    O    2 0.091    O    3 0.077    O    4 0.062
     6  H   0.851    O    5 0.705    O    8 0.128
     7  H   0.851    O    4 0.718    O   13 0.114
     8  O   1.915    H    9 0.908    H   21 0.720    H    6 0.128    O   19 0.058
     9  H   0.914    O    8 0.908
    10  O   1.867    H   12 0.915    H   11 0.859
    11  H   0.896    O   10 0.859
    12  H   0.918    O   10 0.915
    13  O   1.917    H   14 0.903    H   15 0.755    H    7 0.114    O   16 0.050
    14  H   0.911    O   13 0.903
    15  H   0.877    O   13 0.755    O   16 0.118
    16  O   1.924    H   17 0.862    H   18 0.849    H   15 0.118    O   13 0.050
    17  H   0.898    O   16 0.862
    18  H   0.893    O   16 0.849
    19  O   1.937    H   20 0.843    H   22 0.817    H   21 0.150    O    8 0.058
    20  H   0.895    O   19 0.843
    21  H   0.873    O    8 0.720    O   19 0.150
    22  H   0.899    O   19 0.817    N   23 0.081
    23  N   3.026    H   26 0.972    H   25 0.969    H   24 0.953    H   22 0.081
    24  H   0.968    N   23 0.953
    25  H   0.973    N   23 0.969
    26  H   0.976    N   23 0.972
 MOs/occ written to file <molden.input>
 
molecular dipole:
                 x           y           z       tot (Debye)
 q only:       -1.660      -0.225       0.256
   full:       -1.399      -0.141       0.191       3.607
molecular quadrupole (traceless):
                xx          xy          yy          xz          yz          zz
 q only:      -13.910      -3.122       7.159       7.860      -5.514       6.752
  q+dip:      -15.551      -2.858       8.436      11.678      -6.585       7.115
   full:      -15.573      -2.976       8.447      11.648      -6.912       7.127

SCC energy    :     -50.7367089
rep           :       0.2899007
ES            :       0.2323022
AES           :      -0.0482542
AXC           :      -0.0060905
disp          :      -0.0185711
XB            :       0.0000000
fix           :       0.0000000
total E       :     -50.4463962
atomizationE  :       4.9767004     3122.93
(atE without considering molecular charge,
 total energy contains solvation terms)
H-L gap (eV)  :          8.0222
optimized geometry written to: xtbopt.xyz


------------------------------------------------------------------------
 * finished run on 2019/09/16 at 12:34:12.932     
------------------------------------------------------------------------
 total:
 * wall-time:     0 d,  0 h,  0 min,  3.044 sec
 *  cpu-time:     0 d,  0 h,  0 min,  2.140 sec
 * ratio c/w:     0.703 speedup
 SCF:
 * wall-time:     0 d,  0 h,  0 min,  0.167 sec
 *  cpu-time:     0 d,  0 h,  0 min,  0.163 sec
 * ratio c/w:     0.977 speedup
 ANC optimizer:
 * wall-time:     0 d,  0 h,  0 min,  2.846 sec
 *  cpu-time:     0 d,  0 h,  0 min,  1.950 sec
 * ratio c/w:     0.685 speedup

