      -----------------------------------------------------------      
     |                   =====================                   |     
     |                           x T B                           |     
     |                   =====================                   |     
     |                         S. Grimme                         |     
     |          Mulliken Center for Theoretical Chemistry        |     
     |                    University of Bonn                     |     
     |                 Version 6.0.1 (SAW181210)                 |     
      -----------------------------------------------------------      

   This program is distributed in the hope that it will be useful,
   but WITHOUT ANY WARRANTY; without even the implied warranty of
   MERCHANTABILITY or FITNESS FOR A PARTICULAR PURPOSE.
   
   FOR NON-COMMERCIAL, ACADEMIA USE ONLY.
   
   Cite this work as:
   S. Grimme, C. Bannwarth, P. Shushkov, J. Comput. Theory Chem., 2017,
   13, 1989-2009.
   C. Bannwarth, S. Ehlert and S. Grimme., ChemRxiv, 2018, preprint.
   http://doi.org/10.26434/chemrxiv.7246238.v1
   
   for sTDA-xTB:
   S. Grimme and C. Bannwarth, J. Chem. Phys., 2016, 145, 054103.
   
   in the mass-spec context:
   V. Asgeirsson, C. Bauer and S. Grimme, Chem. Sci., 2017, 8, 4879.
   
   if GBSA is used:
   P. Shushkov, F. März and S. Grimme, unpublished.
   
   for ANC optimizer:
   S. Grimme, unpublished.
   Rational Function algorithm used in ANCopt:
   F. Eckert, P. Pulay, H.-J. Werner, J. Comput. Chem., 1997, 18, 1473.
   
   with help from (in alphabetical order)
   C. Bannwarth, F. Bohle, G. Brandenburg, E. Caldeweyher, M. Checinski,
   S. Dohm, S. Ehlert, S. Ehrlich, F. März, H. Neugebauer, J. Pisarek,
   P. Pracht, P. Shushkov, and S. Spicher.
   
 * started run on 2019/09/16 at 11:31:25.145     
========================================================================
 # omp threads = 1
========================================================================
number of atoms            : 26
number of electrons        : 80
charge                     : 0
spin                       : .0
first test random number   : .7586

########################################################################
# WARNING! Please study the warnings concerning your input carefully
#  - XTBPATH is not set, using XTBHOME instead
#  - the use of '-opt' is discouraged, please use '--opt' next time
#  - the use of '-chrg' is discouraged, please use '--chrg' next time
#  - the use of '-uhf' is discouraged, please use '--uhf' next time
########################################################################

           ------------------------------------------------- 
          |                 G F N 2 - x T B                 |
          | Geometry, Frequencies, Noncovalent interactions |
          |            JCTC 2018 parametrisation            |
           ------------------------------------------------- 
      method parameters     
 k(s)        :  1.8500
 k(p)        :  2.2300
 k(d)        :  2.2300
 k(f)        :  2.0000
 kEN (H0ij)  : -2.0000
 D4 a1       :  0.5200
 D4 a2       :  5.0000
 D4 s6       :  1.0000
 D4 s8       :  2.7000
 D4 s9       :  5.0000
 alphaj      :  2.0000


            Z     q(EN)     CN     RAES       Cart. coordinates
     1  S   6.0    0.58    4.29    4.21     4.23394     2.12513     0.92454
     2  O   6.0   -0.31    1.12    1.80     5.16296     0.68090    -1.22780
     3  O   6.0   -0.27    1.09    1.80     5.22156     4.57423     1.60584
     4  O   6.0   -0.24    2.04    1.83     1.15787     2.25326     0.66612
     5  O   6.0   -0.23    2.07    1.83     4.35618     0.45458     3.46659
     6  H   1.0    0.17    1.24    1.48     3.84826    -1.27233     3.08432
     7  H   1.0    0.15    1.15    1.45     0.76360     2.27624    -1.13121
     8  O   6.0   -0.39    1.63    1.81     2.40146    -3.55385     1.84715
     9  H   1.0    0.18    0.95    1.42     2.93467    -4.91338     3.00953
    10  O   6.0   -0.39    1.58    1.80    -0.87933    -0.38298    -3.09948
    11  H   1.0    0.17    0.95    1.42    -1.59719     0.03586    -4.77071
    12  O   6.0   -0.29    2.05    1.83    -4.22883     1.25259     3.44543
    13  H   1.0    0.15    1.04    1.43    -4.54759     2.17828     1.91047
    14  H   1.0    0.15    0.97    1.43    -4.15684     2.51017     4.75994
    15  O   6.0   -0.22    2.94    2.63     2.55791    -3.35452    -2.70421
    16  H   1.0    0.16    1.18    1.46     1.07157    -2.32120    -3.16558
    17  H   1.0    0.14    0.98    1.43     4.16127    -2.54088    -3.21142
    18  H   1.0    0.16    1.17    1.46     2.55201    -3.81907    -0.89433
    19  O   6.0   -0.23    2.94    2.63    -1.90678    -2.28913     0.95095
    20  H   1.0    0.14    1.05    1.44    -2.75409    -1.14865     2.16387
    21  H   1.0    0.16    1.17    1.46    -1.74369    -1.51520    -0.74152
    22  H   1.0    0.16    1.17    1.46    -0.26579    -2.90453     1.59898
    23  N   5.0   -0.22    3.01    1.93    -4.63877     2.90930    -1.56059
    24  H   1.0    0.10    0.99    1.43    -6.24113     2.35699    -2.47627
    25  H   1.0    0.12    1.05    1.44    -3.24238     1.74823    -2.20330
    26  H   1.0    0.10    0.99    1.43    -4.22087     4.65997    -2.24730

  Z AO/shell   Hii/eV     exponent
  1     Wed Apr 25 08:07:45 CEST 2018   EN: 2.200 GM2: 0.406  GM3: 0.0800  RAES: 1.40
     1s    -10.707211    1.230000
  7     Wed Apr 25 08:07:45 CEST 2018   EN: 3.040 GM2: 0.461  GM3:-0.0640  RAES: 1.90
     2s    -16.686243    2.339881
     2p    -12.523956    2.014332
  8     Wed Apr 25 08:07:45 CEST 2018   EN: 3.440 GM2: 0.452  GM3:-0.0517  RAES: 1.80
     2s    -20.229985    2.439742
     2p    -15.503117    2.137023
 16     Tue Apr 24 11:44:34 CEST 2018   EN: 2.580 GM2: 0.340  GM3:-0.0502  RAES: 3.10
     3s    -20.029654    1.981333
     3p    -11.377694    2.025643
     3d     -0.420282    1.702555
 no old-style atom pair restraining (fixing) potential

molecular fragmentation (1/2 indicates fragments):
11111112222222222222222222
# atoms in fragment 1/2:     7    19
 fragment masses (1/2) :       98.07      107.11
CMA distance (Bohr)    :   6.017
constraining FC (au)   :  0.0500
           ------------------------------------------------- 
          |        Self-Consistent Charge Iterations        |
           ------------------------------------------------- 

 Ncao       : 65
 Nao        : 64
 Nshell     : 38
 Nel        : 80
 T(el)      :   300.0
 intcut     :    25.0
 scfconv/Eh :  0.100E-05
   qconv/e  :  0.100E-03
 intneglect :  0.100E-07
 broydamp   :      0.250
 iter      E             dE          RMSdq      gap      omega  full diag
   1    -50.5259031 -0.505259E+02  0.706E+00    7.96       0.0  T
   2    -50.5765702 -0.506671E-01  0.497E+00    7.24       1.0  T
   3    -50.6150957 -0.385255E-01  0.119E+00    5.66       1.0  T
   4    -50.6193626 -0.426694E-02  0.628E-01    5.88       1.0  T
   5    -50.6206036 -0.124102E-02  0.274E-01    5.94       1.0  T
   6    -50.6209493 -0.345625E-03  0.160E-01    5.97       1.0  T
   7    -50.6210991 -0.149813E-03  0.560E-02    5.96       1.0  T
   8    -50.6211187 -0.196098E-04  0.250E-02    5.95       1.0  T
   9    -50.6211219 -0.318491E-05  0.124E-02    5.96       1.6  T
  10    -50.6211226 -0.781686E-06  0.307E-03    5.97       6.4  T
  11    -50.6211227 -0.293559E-07  0.131E-03    5.96      15.0  T
  12    -50.6211227 -0.670379E-08  0.481E-04    5.96      40.7  T
  13    -50.6211227 -0.107959E-08  0.195E-04    5.96     100.3  T
speedup  0.99
cpu  time for SCC    0.01 s
wall time for SCC    0.02 s

   *** convergence criteria satisfied after 13 iterations ***

          eigenvalues
 #    :          28         29         30         31         32         33         34         35
 occ. :        2.000      2.000      2.000      2.000      2.000      2.000      2.000      2.000
 eps  :       -12.992    -12.885    -12.668    -12.368    -12.296    -12.204    -12.151    -11.954
 #    :          36         37         38         39         40         41         42         43
 occ. :        2.000      2.000      2.000      2.000      2.000      0.000      0.000      0.000
 eps  :       -10.957    -10.658    -10.520    -10.417    -10.350     -4.385     -1.615     -1.089
 #    :          44         45         46         47         48         49         50         51
 occ. :        0.000      0.000      0.000      0.000      0.000      0.000      0.000      0.000
 eps  :        -0.496      0.901      1.070      1.850      2.729      3.040      4.506      5.278


   #   Z            q   n(s)   n(p)   n(d)      C6AA      α(0)
   1  16 S      1.618  1.632  1.818  0.932    90.643    16.024
   2   8 O     -0.677  1.766  4.911  0.000    28.092     7.106
   3   8 O     -0.627  1.772  4.855  0.000    26.792     6.940
   4   8 O     -0.580  1.757  4.823  0.000    24.690     6.708
   5   8 O     -0.592  1.760  4.832  0.000    24.965     6.745
   6   1 H      0.380  0.620  0.000  0.000     0.520     1.131
   7   1 H      0.368  0.632  0.000  0.000     0.545     1.159
   8   8 O     -0.856  1.832  5.025  0.000    33.309     7.739
   9   1 H      0.209  0.791  0.000  0.000     1.073     1.628
  10   8 O     -0.871  1.830  5.041  0.000    33.793     7.795
  11   1 H      0.199  0.801  0.000  0.000     1.124     1.666
  12   8 O     -0.600  1.728  4.872  0.000    25.188     6.774
  13   1 H      0.324  0.676  0.000  0.000     0.652     1.269
  14   1 H      0.290  0.710  0.000  0.000     0.752     1.362
  15   8 O     -0.455  1.660  4.796  0.000    21.893     6.319
  16   1 H      0.398  0.602  0.000  0.000     0.483     1.090
  17   1 H      0.372  0.628  0.000  0.000     0.540     1.155
  18   1 H      0.403  0.597  0.000  0.000     0.475     1.080
  19   8 O     -0.484  1.668  4.815  0.000    22.485     6.404
  20   1 H      0.390  0.610  0.000  0.000     0.503     1.114
  21   1 H      0.405  0.595  0.000  0.000     0.471     1.076
  22   1 H      0.395  0.605  0.000  0.000     0.489     1.097
  23   7 N     -0.483  1.409  4.074  0.000    32.797     8.505
  24   1 H      0.136  0.864  0.000  0.000     1.501     1.919
  25   1 H      0.203  0.797  0.000  0.000     1.088     1.634
  26   1 H      0.133  0.867  0.000  0.000     1.521     1.932

 Mol. C6AA /au·bohr⁶  :       5522.745608
 Mol. C8AA /au·bohr⁸  :     119384.929886
 Mol. α(0) /au        :        107.369722

 
 Wiberg/Mayer (AO) data. WBOs > 0.1 written file <wbo>
 largest (>0.05) Wiberg bond orders for each atom
           total WBO             WBO to atom ...
     1  S   4.794    O    3 1.483    O    2 1.394    O    5 0.985    O    4 0.908
     2  O   1.751    S    1 1.394    O    3 0.139    O    5 0.099    O    4 0.097
     3  O   1.815    S    1 1.483    O    2 0.139    O    4 0.094    O    5 0.086
     4  O   1.983    S    1 0.908    H    7 0.806    O    2 0.097    O    3 0.094    O    5 0.056
     5  O   1.992    S    1 0.985    H    6 0.712    O    2 0.099    O    3 0.086    O    4 0.056
     6  H   0.855    O    5 0.712    O    8 0.127
     7  H   0.865    O    4 0.806
     8  O   1.605    H    9 0.946    H   18 0.179    H   22 0.176    H    6 0.127    O   19 0.058    O   15 0.057
     9  H   0.956    O    8 0.946
    10  O   1.547    H   11 0.938    H   16 0.187    H   21 0.153    O   15 0.060    H   25 0.054
    11  H   0.960    O   10 0.938
    12  O   1.874    H   14 0.905    H   13 0.844    H   20 0.073
    13  H   0.895    O   12 0.844
    14  H   0.916    O   12 0.905
    15  O   2.277    H   17 0.839    H   18 0.653    H   16 0.647    O   10 0.060    O    8 0.057
    16  H   0.841    O   15 0.647    O   10 0.187
    17  H   0.862    O   15 0.839
    18  H   0.837    O   15 0.653    O    8 0.179
    19  O   2.260    H   20 0.766    H   21 0.673    H   22 0.664    O    8 0.058
    20  H   0.848    O   19 0.766    O   12 0.073
    21  H   0.836    O   19 0.673    O   10 0.153
    22  H   0.844    O   19 0.664    O    8 0.176
    23  N   2.969    H   24 0.979    H   26 0.979    H   25 0.891
    24  H   0.981    N   23 0.979
    25  H   0.959    N   23 0.891    O   10 0.054
    26  H   0.982    N   23 0.979
 MOs/occ written to file <molden.input>
 
molecular dipole:
                 x           y           z       tot (Debye)
 q only:       -1.518      -1.166      -0.831
   full:       -1.539      -0.805      -1.294       5.505
molecular quadrupole (traceless):
                xx          xy          yy          xz          yz          zz
 q only:       -4.981     -14.221       0.695      -9.446      -0.440       4.286
  q+dip:       -6.757     -18.702      -0.387      -5.498      -4.293       7.144
   full:       -6.842     -19.013      -0.506      -5.064      -4.812       7.348

SCC energy    :     -50.6211227
rep           :       0.2715143
ES            :       0.2796937
AES           :      -0.0459880
AXC           :      -0.0033907
disp          :      -0.0190787
XB            :       0.0000000
fix           :       0.0000000
total E       :     -50.3492610
atomizationE  :       4.8795652     3061.97
(atE without considering molecular charge,
 total energy contains solvation terms)
H-L gap (eV)  :          5.9643
           ------------------------------------------------- 
          |                 ===============                 |
          |                   A N C O P T                   |
          |                 ===============                 |
          |          Approximate Normal Coordinate          |
          |           Rational Function Optimizer           |
           ------------------------------------------------- 
dumping coords to <xtbopt.coord> and <xtbopt.log>
 optlevel               2
 Maxcycle             520
 Maxmicro              25
 Econv         1.000000000000000E-007
 Gconv         2.000000000000000E-004
 Maxdispl       1.00000000000000     
 Hlow          5.000000000000000E-003
 S6             20.0000000000000     
 Nvar               72

generating ANC from model Hessian ...
 Shifting diagonal of input Hessian by   4.965022705500863E-003
 Lowest  eigenvalues of input Hessian
   -0.000000   -0.000000    0.000000    0.000000    0.000000    0.000000
    0.005000    0.005120    0.005501    0.005610    0.005901    0.006638
    0.006805    0.006897    0.008125    0.008734    0.009244    0.009707
 Highest eigenvalues
    1.588563    1.591100    1.603285    1.949264    2.766020    3.588229
 
cpu  time for ANC gen    0.02 s
wall time for ANC gen    0.02 s
................................................................................
.............................. CYCLE    1 ......................................
................................................................................
   1    -50.6211227 -0.506211E+02  0.417E-05    5.96       0.0  T
   2    -50.6211227 -0.300560E-11  0.313E-05    5.96     627.4  T
   3    -50.6211227 -0.200373E-11  0.117E-05    5.96    1670.6  T
speedup  1.11
cpu  time for SCC    0.00 s
wall time for SCC    0.00 s
speedup  0.98
cpu  time for grad    0.01 s
wall time for grad    0.01 s
 E :    -50.34926097  G :  0.182817    pred/act E change:  0.000D+00  0.251D-07
Maxdispl :   0.1316   ||displ|| :   0.3374   Lambda : -0.363D-01
Largest |displ|/coords:  0.1316 (  14)  0.1237 (  54)  0.0972 (  19)
................................................................................
.............................. CYCLE    2 ......................................
................................................................................
   1    -50.6391195 -0.506391E+02  0.392E-01    6.68       0.0  T
   2    -50.6393331 -0.213663E-03  0.290E-01    6.71       1.0  T
   3    -50.6394376 -0.104484E-03  0.701E-02    6.77       1.0  T
   4    -50.6394558 -0.181720E-04  0.253E-02    6.77       1.0  T
   5    -50.6394577 -0.187798E-05  0.733E-03    6.77       2.7  T
   6    -50.6394577 -0.951186E-07  0.343E-03    6.77       5.7  T
   7    -50.6394578 -0.196645E-07  0.142E-03    6.77      13.9  T
speedup  0.98
cpu  time for SCC    0.01 s
wall time for SCC    0.01 s
speedup  1.01
cpu  time for grad    0.01 s
wall time for grad    0.01 s
 E :    -50.37778917  G :  0.104322    pred/act E change:  0.000D+00 -0.285D-01
Maxdispl :   0.1326   ||displ|| :   0.3555   Lambda : -0.184D-01
Largest |displ|/coords:  0.1326 (  14)  0.1087 (  12)  0.1080 (  27)
................................................................................
.............................. CYCLE    3 ......................................
................................................................................
   1    -50.6466190 -0.506466E+02  0.357E-01    7.33       0.0  T
   2    -50.6469594 -0.340316E-03  0.258E-01    7.38       1.0  T
   3    -50.6471009 -0.141519E-03  0.799E-02    7.48       1.0  T
   4    -50.6471216 -0.207609E-04  0.197E-02    7.48       1.0  T
   5    -50.6471226 -0.999893E-06  0.590E-03    7.47       3.3  T
   6    -50.6471227 -0.627229E-07  0.309E-03    7.47       6.4  T
speedup  0.94
cpu  time for SCC    0.00 s
wall time for SCC    0.01 s
speedup  1.05
cpu  time for grad    0.01 s
wall time for grad    0.01 s
 E :    -50.39273287  G :  0.066216    pred/act E change: -0.202D-01 -0.149D-01
Maxdispl :   0.1317   ||displ|| :   0.3709   Lambda : -0.982D-02
Largest |displ|/coords:  0.1317 (  14)  0.1181 (  12)  0.1065 (  27)
................................................................................
.............................. CYCLE    4 ......................................
................................................................................
   1    -50.6507785 -0.506508E+02  0.305E-01    7.85       0.0  T
   2    -50.6510888 -0.310312E-03  0.216E-01    7.90       1.0  T
   3    -50.6512114 -0.122586E-03  0.740E-02    7.98       1.0  T
   4    -50.6512255 -0.140429E-04  0.155E-02    7.98       1.3  T
   5    -50.6512260 -0.545235E-06  0.498E-03    7.98       3.9  T
   6    -50.6512261 -0.387613E-07  0.266E-03    7.98       7.4  T
speedup  0.98
cpu  time for SCC    0.00 s
wall time for SCC    0.01 s
speedup  0.98
cpu  time for grad    0.01 s
wall time for grad    0.01 s
 E :    -50.40064377  G :  0.046214    pred/act E change: -0.104D-01 -0.791D-02
Maxdispl :   0.1324   ||displ|| :   0.4531   Lambda : -0.889D-02
Largest |displ|/coords:  0.1324 (  24)  0.1211 (  27)  0.1184 (   7)
................................................................................
.............................. CYCLE    5 ......................................
................................................................................
   1    -50.6565099 -0.506565E+02  0.393E-01    8.45       0.0  T
   2    -50.6570785 -0.568567E-03  0.277E-01    8.50       1.0  T
   3    -50.6572941 -0.215640E-03  0.978E-02    8.60       1.0  T
   4    -50.6573181 -0.239930E-04  0.210E-02    8.61       1.0  T
   5    -50.6573189 -0.765631E-06  0.679E-03    8.61       2.9  T
   6    -50.6573190 -0.594780E-07  0.343E-03    8.61       5.7  T
   7    -50.6573190 -0.226271E-07  0.129E-03    8.61      15.3  T
speedup  0.97
cpu  time for SCC    0.01 s
wall time for SCC    0.01 s
speedup  0.99
cpu  time for grad    0.01 s
wall time for grad    0.01 s
 E :    -50.40598261  G :  0.032824    pred/act E change: -0.559D-02 -0.534D-02
Maxdispl :   0.1934   ||displ|| :   0.4631   Lambda : -0.345D-02
Largest |displ|/coords:  0.1934 (  14)  0.1576 (   7)  0.1450 (   3)
................................................................................
.............................. CYCLE    6 ......................................
................................................................................
   1    -50.6530193 -0.506530E+02  0.314E-01    8.65       0.0  T
   2    -50.6531760 -0.156707E-03  0.228E-01    8.67       1.0  T
   3    -50.6532402 -0.642297E-04  0.654E-02    8.69       1.0  T
   4    -50.6532562 -0.159588E-04  0.157E-02    8.68       1.2  T
   5    -50.6532567 -0.503891E-06  0.582E-03    8.68       3.4  T
   6    -50.6532567 -0.575470E-07  0.321E-03    8.68       6.1  T
speedup  1.15
cpu  time for SCC    0.01 s
wall time for SCC    0.01 s
speedup  1.00
cpu  time for grad    0.01 s
wall time for grad    0.01 s
 E :    -50.40710349  G :  0.049214    pred/act E change: -0.536D-02 -0.112D-02
Maxdispl :   0.1367   ||displ|| :   0.3623   Lambda : -0.399D-02
Largest |displ|/coords:  0.1367 (   7)  0.1308 (   3)  0.1266 (   9)
................................................................................
.............................. CYCLE    7 ......................................
................................................................................
   1    -50.6607598 -0.506608E+02  0.220E-01    8.68       0.0  T
   2    -50.6607943 -0.345806E-04  0.163E-01    8.69       1.0  T
   3    -50.6608212 -0.268258E-04  0.340E-02    8.72       1.0  T
   4    -50.6608248 -0.363093E-05  0.122E-02    8.72       1.6  T
   5    -50.6608251 -0.278548E-06  0.411E-03    8.72       4.8  T
   6    -50.6608251 -0.221589E-07  0.203E-03    8.72       9.7  T
speedup  0.96
cpu  time for SCC    0.01 s
wall time for SCC    0.01 s
speedup  1.00
cpu  time for grad    0.01 s
wall time for grad    0.01 s
 E :    -50.40943048  G :  0.029803    pred/act E change: -0.209D-02 -0.233D-02
Maxdispl :   0.2147   ||displ|| :   0.4360   Lambda : -0.370D-02
Largest |displ|/coords:  0.2147 (  10)  0.1337 (   1)  0.1332 (  24)
................................................................................
.............................. CYCLE    8 ......................................
................................................................................
   1    -50.6669872 -0.506670E+02  0.295E-01    8.65       0.0  T
   2    -50.6670396 -0.524045E-04  0.218E-01    8.66       1.0  T
   3    -50.6670705 -0.308976E-04  0.486E-02    8.68       1.0  T
   4    -50.6670767 -0.611757E-05  0.113E-02    8.68       1.7  T
   5    -50.6670770 -0.379543E-06  0.457E-03    8.68       4.3  T
   6    -50.6670770 -0.120867E-07  0.226E-03    8.68       8.7  T
speedup  1.05
cpu  time for SCC    0.01 s
wall time for SCC    0.01 s
speedup  1.00
cpu  time for grad    0.01 s
wall time for grad    0.01 s
 E :    -50.41115818  G :  0.040251    pred/act E change: -0.226D-02 -0.173D-02
Maxdispl :   0.1825   ||displ|| :   0.3967   Lambda : -0.360D-02
Largest |displ|/coords:  0.1825 (   3)  0.1306 (   1)  0.1263 (   7)
................................................................................
.............................. CYCLE    9 ......................................
................................................................................
   1    -50.6745522 -0.506746E+02  0.242E-01    8.62       0.0  T
   2    -50.6745992 -0.470275E-04  0.177E-01    8.62       1.0  T
   3    -50.6746242 -0.249758E-04  0.410E-02    8.63       1.0  T
   4    -50.6746296 -0.549272E-05  0.106E-02    8.63       1.8  T
   5    -50.6746299 -0.236610E-06  0.418E-03    8.63       4.7  T
   6    -50.6746299 -0.204038E-07  0.206E-03    8.63       9.5  T
speedup  1.05
cpu  time for SCC    0.01 s
wall time for SCC    0.01 s
speedup  1.01
cpu  time for grad    0.01 s
wall time for grad    0.01 s
 E :    -50.41412759  G :  0.039914    pred/act E change: -0.220D-02 -0.297D-02
Maxdispl :   0.3220   ||displ|| :   0.7000   Lambda : -0.643D-02
Largest |displ|/coords:  0.3220 (   3)  0.2278 (   1)  0.1755 (   7)
................................................................................
.............................. CYCLE   10 ......................................
................................................................................
   1    -50.6753354 -0.506753E+02  0.531E-01    8.42       0.0  T
   2    -50.6755981 -0.262693E-03  0.392E-01    8.43       1.0  T
   3    -50.6757462 -0.148056E-03  0.935E-02    8.44       1.0  T
   4    -50.6757797 -0.335546E-04  0.246E-02    8.43       1.0  T
   5    -50.6757811 -0.134081E-05  0.105E-02    8.43       1.9  T
   6    -50.6757812 -0.119324E-06  0.517E-03    8.43       3.8  T
   7    -50.6757813 -0.647008E-07  0.109E-03    8.43      18.0  T
speedup  0.91
cpu  time for SCC    0.01 s
wall time for SCC    0.01 s
speedup  0.95
cpu  time for grad    0.01 s
wall time for grad    0.01 s
 E :    -50.41850503  G :  0.056460    pred/act E change: -0.208D-02 -0.438D-02
Maxdispl :   0.1486   ||displ|| :   0.4570   Lambda : -0.110D-01
Largest |displ|/coords:  0.1486 (  23)  0.1201 (   2)  0.1171 (   4)
................................................................................
.............................. CYCLE   11 ......................................
................................................................................
   1    -50.7038297 -0.507038E+02  0.505E-01    8.51       0.0  T
   2    -50.7042432 -0.413489E-03  0.371E-01    8.49       1.0  T
   3    -50.7045277 -0.284465E-03  0.105E-01    8.44       1.0  T
   4    -50.7045636 -0.359107E-04  0.244E-02    8.44       1.0  T
   5    -50.7045646 -0.101683E-05  0.118E-02    8.44       1.7  T
   6    -50.7045647 -0.918089E-07  0.438E-03    8.44       4.5  T
   7    -50.7045648 -0.447539E-07  0.111E-03    8.44      17.6  T
speedup  1.06
cpu  time for SCC    0.01 s
wall time for SCC    0.01 s
speedup  1.01
cpu  time for grad    0.01 s
wall time for grad    0.01 s
 E :    -50.41039411  G :  0.200194    pred/act E change: -0.479D-02  0.811D-02
Maxdispl :   0.1183   ||displ|| :   0.3612   Lambda : -0.389D-01
Largest |displ|/coords:  0.1183 (  20)  0.1121 (  28)  0.1108 (  21)
................................................................................
.............................. CYCLE   12 ......................................
................................................................................
   1    -50.6836691 -0.506837E+02  0.543E-01    8.36       0.0  T
   2    -50.6841817 -0.512608E-03  0.393E-01    8.39       1.0  T
   3    -50.6844741 -0.292455E-03  0.120E-01    8.44       1.0  T
   4    -50.6845153 -0.412103E-04  0.262E-02    8.44       1.0  T
   5    -50.6845161 -0.797682E-06  0.116E-02    8.43       1.7  T
   6    -50.6845166 -0.497695E-06  0.544E-03    8.43       3.6  T
   7    -50.6845167 -0.435886E-07  0.132E-03    8.43      14.9  T
speedup  0.92
cpu  time for SCC    0.01 s
wall time for SCC    0.01 s
speedup  0.97
cpu  time for grad    0.01 s
wall time for grad    0.01 s
 E :    -50.42132157  G :  0.071738    pred/act E change: -0.665D-02 -0.109D-01
Maxdispl :   0.0835   ||displ|| :   0.2335   Lambda : -0.818D-02
Largest |displ|/coords:  0.0835 (  23)  0.0818 (  20)  0.0776 (   2)
................................................................................
.............................. CYCLE   13 ......................................
................................................................................
   1    -50.6977791 -0.506978E+02  0.262E-01    8.55       0.0  T
   2    -50.6979260 -0.146923E-03  0.191E-01    8.53       1.0  T
   3    -50.6980148 -0.887928E-04  0.608E-02    8.48       1.0  T
   4    -50.6980264 -0.115999E-04  0.134E-02    8.48       1.5  T
   5    -50.6980267 -0.285651E-06  0.625E-03    8.48       3.1  T
   6    -50.6980268 -0.327460E-07  0.238E-03    8.49       8.2  T
   7    -50.6980268 -0.120098E-07  0.702E-04    8.49      27.9  T
speedup  0.92
cpu  time for SCC    0.01 s
wall time for SCC    0.01 s
speedup  0.97
cpu  time for grad    0.01 s
wall time for grad    0.01 s
 E :    -50.42566574  G :  0.036472    pred/act E change: -0.220D-01 -0.434D-02
Maxdispl :   0.1684   ||displ|| :   0.4252   Lambda : -0.475D-02
Largest |displ|/coords:  0.1684 (  17)  0.1638 (  16)  0.1544 (   2)
................................................................................
.............................. CYCLE   14 ......................................
................................................................................
   1    -50.7167990 -0.507168E+02  0.277E-01    8.48       0.0  T
   2    -50.7169300 -0.130947E-03  0.203E-01    8.48       1.0  T
   3    -50.7170010 -0.710010E-04  0.558E-02    8.48       1.0  T
   4    -50.7170145 -0.135251E-04  0.147E-02    8.47       1.3  T
   5    -50.7170148 -0.312064E-06  0.668E-03    8.47       2.9  T
   6    -50.7170149 -0.450220E-07  0.272E-03    8.47       7.2  T
   7    -50.7170149 -0.112006E-07  0.731E-04    8.47      26.8  T
speedup  1.08
cpu  time for SCC    0.01 s
wall time for SCC    0.01 s
speedup  0.97
cpu  time for grad    0.01 s
wall time for grad    0.01 s
 E :    -50.42745237  G :  0.064420    pred/act E change: -0.431D-02 -0.179D-02
Maxdispl :   0.1167   ||displ|| :   0.2799   Lambda : -0.772D-02
Largest |displ|/coords:  0.1167 (  13)  0.1040 (  16)  0.0893 (  17)
................................................................................
.............................. CYCLE   15 ......................................
................................................................................
   1    -50.7032289 -0.507032E+02  0.258E-01    8.50       0.0  T
   2    -50.7033105 -0.816209E-04  0.189E-01    8.46       1.0  T
   3    -50.7033685 -0.579721E-04  0.488E-02    8.39       1.0  T
   4    -50.7033770 -0.849181E-05  0.153E-02    8.41       1.3  T
   5    -50.7033773 -0.322372E-06  0.525E-03    8.40       3.7  T
   6    -50.7033774 -0.478530E-07  0.241E-03    8.40       8.1  T
speedup  1.05
cpu  time for SCC    0.01 s
wall time for SCC    0.01 s
speedup  1.03
cpu  time for grad    0.01 s
wall time for grad    0.01 s
 E :    -50.42903929  G :  0.046820    pred/act E change: -0.281D-02 -0.159D-02
Maxdispl :   0.1037   ||displ|| :   0.2740   Lambda : -0.445D-02
Largest |displ|/coords:  0.1037 (   3)  0.0841 (   5)  0.0729 (   2)
................................................................................
.............................. CYCLE   16 ......................................
................................................................................
   1    -50.7117211 -0.507117E+02  0.206E-01    8.43       0.0  T
   2    -50.7117947 -0.736321E-04  0.150E-01    8.45       1.0  T
   3    -50.7118348 -0.400851E-04  0.422E-02    8.46       1.0  T
   4    -50.7118421 -0.734818E-05  0.110E-02    8.45       1.8  T
   5    -50.7118423 -0.192572E-06  0.507E-03    8.45       3.9  T
   6    -50.7118423 -0.288473E-07  0.198E-03    8.45       9.9  T
speedup  0.88
cpu  time for SCC    0.00 s
wall time for SCC    0.01 s
speedup  0.96
cpu  time for grad    0.01 s
wall time for grad    0.01 s
 E :    -50.43204081  G :  0.031223    pred/act E change: -0.416D-02 -0.300D-02
Maxdispl :   0.1428   ||displ|| :   0.4522   Lambda : -0.644D-02
Largest |displ|/coords:  0.1428 (  17)  0.1226 (  16)  0.1196 (   2)
................................................................................
.............................. CYCLE   17 ......................................
................................................................................
   1    -50.7393825 -0.507394E+02  0.304E-01    8.59       0.0  T
   2    -50.7395221 -0.139555E-03  0.222E-01    8.56       1.0  T
   3    -50.7396041 -0.820097E-04  0.683E-02    8.51       1.0  T
   4    -50.7396160 -0.118853E-04  0.223E-02    8.51       1.0  T
   5    -50.7396170 -0.106869E-05  0.785E-03    8.51       2.5  T
   6    -50.7396171 -0.685634E-07  0.371E-03    8.51       5.3  T
   7    -50.7396171 -0.210392E-07  0.125E-03    8.51      15.7  T
speedup  1.06
cpu  time for SCC    0.01 s
wall time for SCC    0.01 s
speedup  0.97
cpu  time for grad    0.01 s
wall time for grad    0.01 s
 E :    -50.43331895  G :  0.065064    pred/act E change: -0.239D-02 -0.128D-02
Maxdispl :   0.0953   ||displ|| :   0.2855   Lambda : -0.822D-02
Largest |displ|/coords:  0.0953 (  19)  0.0950 (   3)  0.0830 (  17)
................................................................................
.............................. CYCLE   18 ......................................
................................................................................
   1    -50.7108130 -0.507108E+02  0.278E-01    8.36       0.0  T
   2    -50.7109088 -0.958098E-04  0.205E-01    8.39       1.0  T
   3    -50.7109724 -0.635561E-04  0.583E-02    8.42       1.0  T
   4    -50.7109822 -0.981525E-05  0.245E-02    8.41       1.0  T
   5    -50.7109834 -0.115775E-05  0.707E-03    8.41       2.8  T
   6    -50.7109835 -0.836530E-07  0.350E-03    8.41       5.6  T
   7    -50.7109835 -0.168730E-07  0.125E-03    8.41      15.7  T
speedup  1.06
cpu  time for SCC    0.01 s
wall time for SCC    0.01 s
speedup  1.04
cpu  time for grad    0.01 s
wall time for grad    0.01 s
 E :    -50.43421020  G :  0.048821    pred/act E change: -0.388D-02 -0.891D-03
Maxdispl :   0.1007   ||displ|| :   0.2581   Lambda : -0.449D-02
Largest |displ|/coords:  0.1007 (  13)  0.0891 (  12)  0.0814 (  18)
................................................................................
.............................. CYCLE   19 ......................................
................................................................................
   1    -50.7304425 -0.507304E+02  0.213E-01    8.39       0.0  T
   2    -50.7304893 -0.467972E-04  0.157E-01    8.36       1.0  T
   3    -50.7305136 -0.242557E-04  0.382E-02    8.30       1.0  T
   4    -50.7305191 -0.558088E-05  0.156E-02    8.31       1.3  T
   5    -50.7305195 -0.399218E-06  0.493E-03    8.32       4.0  T
   6    -50.7305196 -0.312705E-07  0.242E-03    8.32       8.1  T
speedup  0.89
cpu  time for SCC    0.01 s
wall time for SCC    0.01 s
speedup  0.96
cpu  time for grad    0.01 s
wall time for grad    0.01 s
 E :    -50.43619459  G :  0.030271    pred/act E change: -0.444D-02 -0.198D-02
Maxdispl :   0.1353   ||displ|| :   0.3478   Lambda : -0.356D-02
Largest |displ|/coords:  0.1353 (   2)  0.1237 (  13)  0.0924 (   8)
................................................................................
.............................. CYCLE   20 ......................................
................................................................................
   1    -50.7354583 -0.507355E+02  0.247E-01    8.38       0.0  T
   2    -50.7355068 -0.485078E-04  0.181E-01    8.38       1.0  T
   3    -50.7355394 -0.325393E-04  0.442E-02    8.38       1.0  T
   4    -50.7355441 -0.473994E-05  0.125E-02    8.37       1.6  T
   5    -50.7355444 -0.285384E-06  0.480E-03    8.37       4.1  T
   6    -50.7355444 -0.314254E-07  0.228E-03    8.37       8.6  T
speedup  0.88
cpu  time for SCC    0.00 s
wall time for SCC    0.01 s
speedup  0.96
cpu  time for grad    0.01 s
wall time for grad    0.01 s
 E :    -50.43653501  G :  0.043899    pred/act E change: -0.240D-02 -0.340D-03
Maxdispl :   0.0820   ||displ|| :   0.1664   Lambda : -0.258D-02
Largest |displ|/coords:  0.0820 (  13)  0.0680 (   1)  0.0414 (   3)
................................................................................
.............................. CYCLE   21 ......................................
................................................................................
   1    -50.7373995 -0.507374E+02  0.141E-01    8.40       0.0  T
   2    -50.7374182 -0.186909E-04  0.103E-01    8.38       1.0  T
   3    -50.7374293 -0.110664E-04  0.250E-02    8.35       1.0  T
   4    -50.7374314 -0.213399E-05  0.968E-03    8.36       2.0  T
   5    -50.7374315 -0.143225E-06  0.331E-03    8.36       5.9  T
   6    -50.7374316 -0.159083E-07  0.149E-03    8.36      13.1  T
speedup  1.03
cpu  time for SCC    0.01 s
wall time for SCC    0.01 s
speedup  1.03
cpu  time for grad    0.01 s
wall time for grad    0.01 s
 E :    -50.43773101  G :  0.023594    pred/act E change: -0.200D-02 -0.120D-02
Maxdispl :   0.1486   ||displ|| :   0.2579   Lambda : -0.208D-02
Largest |displ|/coords:  0.1486 (  12)  0.0960 (   3)  0.0820 (   7)
................................................................................
.............................. CYCLE   22 ......................................
................................................................................
   1    -50.7251004 -0.507251E+02  0.189E-01    8.11       0.0  T
   2    -50.7251274 -0.270775E-04  0.140E-01    8.13       1.0  T
   3    -50.7251455 -0.180573E-04  0.292E-02    8.17       1.0  T
   4    -50.7251488 -0.332353E-05  0.991E-03    8.15       2.0  T
   5    -50.7251490 -0.157481E-06  0.349E-03    8.15       5.6  T
   6    -50.7251490 -0.186210E-07  0.169E-03    8.15      11.6  T
speedup  1.05
cpu  time for SCC    0.01 s
wall time for SCC    0.01 s
speedup  1.03
cpu  time for grad    0.01 s
wall time for grad    0.01 s
 E :    -50.43777088  G :  0.032718    pred/act E change: -0.132D-02 -0.399D-04
Maxdispl :   0.0609   ||displ|| :   0.1668   Lambda : -0.159D-02
Largest |displ|/coords:  0.0609 (   2)  0.0537 (   8)  0.0446 (   1)
................................................................................
.............................. CYCLE   23 ......................................
................................................................................
   1    -50.7339530 -0.507340E+02  0.108E-01    8.23       0.0  T
   2    -50.7339656 -0.125841E-04  0.800E-02    8.21       1.0  T
   3    -50.7339741 -0.848755E-05  0.202E-02    8.18       1.0  T
   4    -50.7339755 -0.137485E-05  0.587E-03    8.19       3.3  T
   5    -50.7339755 -0.515524E-07  0.229E-03    8.19       8.6  T
speedup  0.83
cpu  time for SCC    0.00 s
wall time for SCC    0.00 s
speedup  0.94
cpu  time for grad    0.01 s
wall time for grad    0.01 s
 E :    -50.43873480  G :  0.011882    pred/act E change: -0.111D-02 -0.964D-03
Maxdispl :   0.1061   ||displ|| :   0.2402   Lambda : -0.691D-03
Largest |displ|/coords:  0.1061 (   7)  0.0925 (   8)  0.0873 (   6)
................................................................................
.............................. CYCLE   24 ......................................
................................................................................
   1    -50.7346659 -0.507347E+02  0.152E-01    8.23       0.0  T
   2    -50.7346729 -0.701538E-05  0.112E-01    8.23       1.0  T
   3    -50.7346791 -0.623400E-05  0.192E-02    8.22       1.0  T
   4    -50.7346798 -0.699587E-06  0.527E-03    8.23       3.7  T
   5    -50.7346798 -0.439033E-07  0.210E-03    8.23       9.3  T
   6    -50.7346799 -0.561752E-08  0.106E-03    8.23      18.6  T
speedup  1.21
cpu  time for SCC    0.01 s
wall time for SCC    0.01 s
speedup  1.01
cpu  time for grad    0.01 s
wall time for grad    0.01 s
 E :    -50.43897847  G :  0.014445    pred/act E change: -0.815D-03 -0.244D-03
Maxdispl :   0.1042   ||displ|| :   0.2732   Lambda : -0.738D-03
Largest |displ|/coords:  0.1042 (   1)  0.0831 (   2)  0.0830 (   7)
................................................................................
.............................. CYCLE   25 ......................................
................................................................................
   1    -50.7370317 -0.507370E+02  0.143E-01    8.14       0.0  T
   2    -50.7370403 -0.857017E-05  0.107E-01    8.14       1.0  T
   3    -50.7370477 -0.745757E-05  0.177E-02    8.13       1.1  T
   4    -50.7370487 -0.104094E-05  0.568E-03    8.13       3.5  T
   5    -50.7370488 -0.374071E-07  0.229E-03    8.13       8.6  T
   6    -50.7370488 -0.670393E-08  0.115E-03    8.13      17.1  T
speedup  1.05
cpu  time for SCC    0.01 s
wall time for SCC    0.01 s
speedup  1.02
cpu  time for grad    0.01 s
wall time for grad    0.01 s
 E :    -50.43946148  G :  0.009464    pred/act E change: -0.365D-03 -0.483D-03
Maxdispl :   0.1118   ||displ|| :   0.2591   Lambda : -0.495D-03
Largest |displ|/coords:  0.1118 (   7)  0.0869 (   1)  0.0798 (  15)

generating ANC from model Hessian ...
 Shifting diagonal of input Hessian by   5.130966279217410E-003
 Lowest  eigenvalues of input Hessian
    0.005000    0.005116   -0.000000   -0.000000   -0.000000    0.000000
    0.000000    0.000000    0.005410    0.005917    0.006089    0.006253
    0.006430    0.006870    0.007581    0.007806    0.008368    0.009510
 Highest eigenvalues
    1.391940    1.397865    1.404921    2.471873    3.164399    3.942234
 
cpu  time for ANC gen    0.02 s
wall time for ANC gen    0.02 s
................................................................................
.............................. CYCLE   26 ......................................
................................................................................
   1    -50.7358561 -0.507359E+02  0.143E-01    8.07       0.0  T
   2    -50.7358599 -0.381844E-05  0.107E-01    8.07       1.0  T
   3    -50.7358637 -0.375882E-05  0.140E-02    8.07       1.4  T
   4    -50.7358640 -0.362312E-06  0.556E-03    8.07       3.5  T
   5    -50.7358641 -0.351211E-07  0.164E-03    8.07      12.0  T
   6    -50.7358641 -0.304836E-08  0.989E-04    8.07      19.8  T
   7    -50.7358641 -0.139546E-08  0.258E-04    8.07      76.1  T
speedup  0.91
cpu  time for SCC    0.01 s
wall time for SCC    0.01 s
speedup  0.99
cpu  time for grad    0.01 s
wall time for grad    0.02 s
 E :    -50.43982479  G :  0.010272    pred/act E change:  0.000D+00 -0.363D-03
Maxdispl :   0.0903   ||displ|| :   0.2251   Lambda : -0.712D-03
Largest |displ|/coords:  0.0903 (   7)  0.0894 (   9)  0.0752 (   1)
................................................................................
.............................. CYCLE   27 ......................................
................................................................................
   1    -50.7364760 -0.507365E+02  0.196E-01    8.11       0.0  T
   2    -50.7364810 -0.497136E-05  0.148E-01    8.11       1.0  T
   3    -50.7364866 -0.554425E-05  0.138E-02    8.10       1.4  T
   4    -50.7364870 -0.421319E-06  0.436E-03    8.11       4.5  T
   5    -50.7364870 -0.253174E-07  0.189E-03    8.11      10.4  T
   6    -50.7364870 -0.376419E-08  0.858E-04    8.11      22.9  T
speedup  1.07
cpu  time for SCC    0.01 s
wall time for SCC    0.01 s
speedup  1.03
cpu  time for grad    0.01 s
wall time for grad    0.01 s
 E :    -50.44038026  G :  0.007814    pred/act E change:  0.000D+00 -0.555D-03
Maxdispl :   0.1966   ||displ|| :   0.4548   Lambda : -0.989D-03
Largest |displ|/coords:  0.1966 (   7)  0.1521 (   4)  0.1426 (   9)
................................................................................
.............................. CYCLE   28 ......................................
................................................................................
   1    -50.7321383 -0.507321E+02  0.366E-01    8.13       0.0  T
   2    -50.7321549 -0.166449E-04  0.276E-01    8.14       1.0  T
   3    -50.7321730 -0.181083E-04  0.257E-02    8.15       1.0  T
   4    -50.7321746 -0.157204E-05  0.933E-03    8.15       2.1  T
   5    -50.7321747 -0.113415E-06  0.385E-03    8.15       5.1  T
   6    -50.7321747 -0.172244E-07  0.174E-03    8.15      11.2  T
   7    -50.7321747 -0.805946E-08  0.447E-04    8.15      43.9  T
speedup  0.92
cpu  time for SCC    0.01 s
wall time for SCC    0.01 s
speedup  0.97
cpu  time for grad    0.01 s
wall time for grad    0.01 s
 E :    -50.44081727  G :  0.024189    pred/act E change: -0.374D-03 -0.437D-03
Maxdispl :   0.0778   ||displ|| :   0.1679   Lambda : -0.726D-03
Largest |displ|/coords:  0.0778 (   7)  0.0572 (   9)  0.0560 (   4)
................................................................................
.............................. CYCLE   29 ......................................
................................................................................
   1    -50.7349594 -0.507350E+02  0.113E-01    8.17       0.0  T
   2    -50.7349646 -0.520687E-05  0.852E-02    8.18       1.0  T
   3    -50.7349690 -0.444257E-05  0.130E-02    8.19       1.5  T
   4    -50.7349697 -0.668209E-06  0.320E-03    8.19       6.1  T
   5    -50.7349697 -0.108886E-07  0.162E-03    8.19      12.1  T
speedup  1.04
cpu  time for SCC    0.00 s
wall time for SCC    0.00 s
speedup  1.01
cpu  time for grad    0.01 s
wall time for grad    0.01 s
 E :    -50.44125049  G :  0.011262    pred/act E change: -0.596D-03 -0.433D-03
Maxdispl :   0.1913   ||displ|| :   0.3142   Lambda : -0.521D-03
Largest |displ|/coords:  0.1913 (   7)  0.1337 (   1)  0.0973 (   3)
................................................................................
.............................. CYCLE   30 ......................................
................................................................................
   1    -50.7339646 -0.507340E+02  0.170E-01    8.18       0.0  T
   2    -50.7339691 -0.455270E-05  0.128E-01    8.19       1.0  T
   3    -50.7339741 -0.496892E-05  0.142E-02    8.21       1.4  T
   4    -50.7339745 -0.408874E-06  0.475E-03    8.21       4.1  T
   5    -50.7339745 -0.295395E-07  0.181E-03    8.21      10.9  T
   6    -50.7339745 -0.396838E-08  0.977E-04    8.21      20.1  T
speedup  0.88
cpu  time for SCC    0.01 s
wall time for SCC    0.01 s
speedup  0.95
cpu  time for grad    0.01 s
wall time for grad    0.01 s
 E :    -50.44161772  G :  0.008379    pred/act E change: -0.373D-03 -0.367D-03
Maxdispl :   0.2531   ||displ|| :   0.5387   Lambda : -0.709D-03
Largest |displ|/coords:  0.2531 (   7)  0.2423 (   1)  0.1632 (   4)
................................................................................
.............................. CYCLE   31 ......................................
................................................................................
   1    -50.7275033 -0.507275E+02  0.329E-01    8.16       0.0  T
   2    -50.7275271 -0.237909E-04  0.247E-01    8.17       1.0  T
   3    -50.7275502 -0.231867E-04  0.326E-02    8.20       1.0  T
   4    -50.7275529 -0.265793E-05  0.951E-03    8.19       2.1  T
   5    -50.7275530 -0.126163E-06  0.419E-03    8.19       4.7  T
   6    -50.7275531 -0.252025E-07  0.225E-03    8.19       8.7  T
   7    -50.7275531 -0.108175E-07  0.519E-04    8.19      37.8  T
speedup  1.04
cpu  time for SCC    0.01 s
wall time for SCC    0.01 s
speedup  1.02
cpu  time for grad    0.01 s
wall time for grad    0.01 s
 E :    -50.44190924  G :  0.020666    pred/act E change: -0.286D-03 -0.292D-03
Maxdispl :   0.1115   ||displ|| :   0.1918   Lambda : -0.682D-03
Largest |displ|/coords:  0.1115 (   1)  0.0819 (   5)  0.0730 (   3)
................................................................................
.............................. CYCLE   32 ......................................
................................................................................
   1    -50.7335119 -0.507335E+02  0.110E-01    8.20       0.0  T
   2    -50.7335197 -0.786310E-05  0.814E-02    8.19       1.0  T
   3    -50.7335239 -0.416423E-05  0.167E-02    8.18       1.2  T
   4    -50.7335250 -0.105437E-05  0.432E-03    8.19       4.5  T
   5    -50.7335250 -0.289000E-07  0.149E-03    8.19      13.2  T
speedup  0.83
cpu  time for SCC    0.00 s
wall time for SCC    0.00 s
speedup  0.94
cpu  time for grad    0.01 s
wall time for grad    0.01 s
 E :    -50.44212621  G :  0.012216    pred/act E change: -0.458D-03 -0.217D-03
Maxdispl :   0.1393   ||displ|| :   0.2174   Lambda : -0.438D-03
Largest |displ|/coords:  0.1393 (   1)  0.1346 (   7)  0.0364 (  15)
................................................................................
.............................. CYCLE   33 ......................................
................................................................................
   1    -50.7314681 -0.507315E+02  0.107E-01    8.16       0.0  T
   2    -50.7314714 -0.327391E-05  0.796E-02    8.17       1.0  T
   3    -50.7314729 -0.152158E-05  0.107E-02    8.19       1.8  T
   4    -50.7314735 -0.579266E-06  0.313E-03    8.18       6.3  T
   5    -50.7314735 -0.844822E-08  0.101E-03    8.18      19.4  T
   6    -50.7314735 -0.108679E-08  0.516E-04    8.18      38.0  T
speedup  1.05
cpu  time for SCC    0.01 s
wall time for SCC    0.01 s
speedup  1.02
cpu  time for grad    0.01 s
wall time for grad    0.01 s
 E :    -50.44238382  G :  0.010209    pred/act E change: -0.354D-03 -0.258D-03
Maxdispl :   0.2180   ||displ|| :   0.3210   Lambda : -0.395D-03
Largest |displ|/coords:  0.2180 (   1)  0.1129 (   7)  0.0924 (  11)
................................................................................
.............................. CYCLE   34 ......................................
................................................................................
   1    -50.7298859 -0.507299E+02  0.177E-01    8.19       0.0  T
   2    -50.7298927 -0.679951E-05  0.132E-01    8.19       1.0  T
   3    -50.7298994 -0.667682E-05  0.163E-02    8.19       1.2  T
   4    -50.7299000 -0.645934E-06  0.419E-03    8.19       4.7  T
   5    -50.7299001 -0.230687E-07  0.216E-03    8.19       9.1  T
   6    -50.7299001 -0.826242E-08  0.921E-04    8.19      21.3  T
speedup  0.71
cpu  time for SCC    0.00 s
wall time for SCC    0.01 s
speedup  0.88
cpu  time for grad    0.01 s
wall time for grad    0.01 s
 E :    -50.44260374  G :  0.013950    pred/act E change: -0.230D-03 -0.220D-03
Maxdispl :   0.1906   ||displ|| :   0.2676   Lambda : -0.323D-03
Largest |displ|/coords:  0.1906 (   1)  0.0807 (   8)  0.0776 (   7)
................................................................................
.............................. CYCLE   35 ......................................
................................................................................
   1    -50.7308728 -0.507309E+02  0.134E-01    8.18       0.0  T
   2    -50.7308757 -0.284577E-05  0.100E-01    8.18       1.0  T
   3    -50.7308789 -0.325476E-05  0.118E-02    8.17       1.7  T
   4    -50.7308791 -0.189300E-06  0.353E-03    8.18       5.6  T
   5    -50.7308791 -0.211094E-07  0.133E-03    8.18      14.8  T
   6    -50.7308791 -0.236962E-08  0.765E-04    8.18      25.6  T
speedup  1.07
cpu  time for SCC    0.01 s
wall time for SCC    0.01 s
speedup  1.02
cpu  time for grad    0.01 s
wall time for grad    0.01 s
 E :    -50.44285502  G :  0.011939    pred/act E change: -0.218D-03 -0.251D-03
Maxdispl :   0.3422   ||displ|| :   0.4696   Lambda : -0.747D-03
Largest |displ|/coords:  0.3422 (   1)  0.1377 (  11)  0.1279 (   8)
................................................................................
.............................. CYCLE   36 ......................................
................................................................................
   1    -50.7383507 -0.507384E+02  0.220E-01    8.22       0.0  T
   2    -50.7383632 -0.124660E-04  0.164E-01    8.22       1.0  T
   3    -50.7383730 -0.978249E-05  0.230E-02    8.20       1.0  T
   4    -50.7383744 -0.144296E-05  0.840E-03    8.20       2.3  T
   5    -50.7383745 -0.639465E-07  0.242E-03    8.20       8.1  T
   6    -50.7383745 -0.659443E-08  0.134E-03    8.20      14.6  T
speedup  0.86
cpu  time for SCC    0.01 s
wall time for SCC    0.01 s
speedup  0.94
cpu  time for grad    0.01 s
wall time for grad    0.01 s
 E :    -50.44314882  G :  0.013677    pred/act E change: -0.173D-03 -0.294D-03
Maxdispl :   0.3757   ||displ|| :   0.5437   Lambda : -0.650D-03
Largest |displ|/coords:  0.3757 (   1)  0.1965 (   7)  0.1628 (   3)
................................................................................
.............................. CYCLE   37 ......................................
................................................................................
   1    -50.7304626 -0.507305E+02  0.295E-01    8.01       0.0  T
   2    -50.7304816 -0.189902E-04  0.220E-01    8.02       1.0  T
   3    -50.7304986 -0.170610E-04  0.298E-02    8.02       1.0  T
   4    -50.7305008 -0.212965E-05  0.106E-02    8.02       1.8  T
   5    -50.7305009 -0.131395E-06  0.314E-03    8.02       6.2  T
   6    -50.7305009 -0.113876E-07  0.190E-03    8.02      10.3  T
   7    -50.7305009 -0.648023E-08  0.424E-04    8.02      46.2  T
speedup  1.11
cpu  time for SCC    0.01 s
wall time for SCC    0.01 s
speedup  1.05
cpu  time for grad    0.01 s
wall time for grad    0.01 s
 E :    -50.44335237  G :  0.016682    pred/act E change: -0.456D-03 -0.204D-03
Maxdispl :   0.0535   ||displ|| :   0.1595   Lambda : -0.681D-03
Largest |displ|/coords:  0.0535 (   1)  0.0512 (   9)  0.0492 (   6)
................................................................................
.............................. CYCLE   38 ......................................
................................................................................
   1    -50.7364611 -0.507365E+02  0.116E-01    8.08       0.0  T
   2    -50.7364691 -0.794911E-05  0.860E-02    8.08       1.0  T
   3    -50.7364737 -0.460163E-05  0.165E-02    8.06       1.2  T
   4    -50.7364747 -0.108732E-05  0.466E-03    8.07       4.2  T
   5    -50.7364748 -0.354800E-07  0.167E-03    8.07      11.8  T
   6    -50.7364748 -0.249769E-08  0.879E-04    8.07      22.3  T
speedup  1.09
cpu  time for SCC    0.01 s
wall time for SCC    0.01 s
speedup  1.04
cpu  time for grad    0.01 s
wall time for grad    0.01 s
 E :    -50.44353999  G :  0.013836    pred/act E change: -0.421D-03 -0.188D-03
Maxdispl :   0.1159   ||displ|| :   0.2371   Lambda : -0.616D-03
Largest |displ|/coords:  0.1159 (   3)  0.1001 (   7)  0.0950 (   1)
................................................................................
.............................. CYCLE   39 ......................................
................................................................................
   1    -50.7336873 -0.507337E+02  0.132E-01    8.09       0.0  T
   2    -50.7336982 -0.109553E-04  0.967E-02    8.10       1.0  T
   3    -50.7337021 -0.387438E-05  0.191E-02    8.13       1.0  T
   4    -50.7337037 -0.162230E-05  0.434E-03    8.12       4.5  T
   5    -50.7337038 -0.362934E-07  0.163E-03    8.12      12.0  T
   6    -50.7337038 -0.292346E-08  0.852E-04    8.12      23.0  T
speedup  0.91
cpu  time for SCC    0.00 s
wall time for SCC    0.01 s
speedup  0.96
cpu  time for grad    0.01 s
wall time for grad    0.01 s
 E :    -50.44358472  G :  0.019098    pred/act E change: -0.349D-03 -0.447D-04
Maxdispl :   0.0919   ||displ|| :   0.1990   Lambda : -0.103D-02
Largest |displ|/coords:  0.0919 (   7)  0.0755 (   9)  0.0728 (  17)
................................................................................
.............................. CYCLE   40 ......................................
................................................................................
   1    -50.7421747 -0.507422E+02  0.145E-01    8.31       0.0  T
   2    -50.7421950 -0.203266E-04  0.105E-01    8.28       1.0  T
   3    -50.7422033 -0.829726E-05  0.269E-02    8.25       1.0  T
   4    -50.7422052 -0.195587E-05  0.639E-03    8.26       3.1  T
   5    -50.7422053 -0.787913E-07  0.229E-03    8.26       8.6  T
   6    -50.7422053 -0.571394E-08  0.109E-03    8.26      18.1  T
speedup  0.93
cpu  time for SCC    0.01 s
wall time for SCC    0.01 s
speedup  0.96
cpu  time for grad    0.01 s
wall time for grad    0.01 s
 E :    -50.44358165  G :  0.023200    pred/act E change: -0.325D-03  0.307D-05
Maxdispl :   0.2079   ||displ|| :   0.3372   Lambda : -0.110D-02
Largest |displ|/coords:  0.2079 (   1)  0.1032 (   8)  0.0981 (   3)
................................................................................
.............................. CYCLE   41 ......................................
................................................................................
   1    -50.7357709 -0.507358E+02  0.222E-01    7.95       0.0  T
   2    -50.7357960 -0.250313E-04  0.164E-01    7.94       1.0  T
   3    -50.7358123 -0.163329E-04  0.347E-02    7.94       1.0  T
   4    -50.7358151 -0.278109E-05  0.118E-02    7.94       1.7  T
   5    -50.7358153 -0.223791E-06  0.303E-03    7.94       6.5  T
   6    -50.7358153 -0.149378E-07  0.184E-03    7.94      10.6  T
speedup  1.09
cpu  time for SCC    0.01 s
wall time for SCC    0.01 s
speedup  1.04
cpu  time for grad    0.01 s
wall time for grad    0.01 s
 E :    -50.44396403  G :  0.013817    pred/act E change: -0.534D-03 -0.382D-03
Maxdispl :   0.0619   ||displ|| :   0.1356   Lambda : -0.516D-03
Largest |displ|/coords:  0.0619 (  11)  0.0600 (  14)  0.0397 (   5)
................................................................................
.............................. CYCLE   42 ......................................
................................................................................
   1    -50.7351985 -0.507352E+02  0.104E-01    8.05       0.0  T
   2    -50.7352041 -0.567761E-05  0.770E-02    8.06       1.0  T
   3    -50.7352073 -0.318906E-05  0.162E-02    8.08       1.2  T
   4    -50.7352081 -0.777518E-06  0.530E-03    8.07       3.7  T
   5    -50.7352081 -0.325834E-07  0.155E-03    8.07      12.7  T
   6    -50.7352081 -0.348189E-08  0.843E-04    8.07      23.3  T
speedup  1.09
cpu  time for SCC    0.01 s
wall time for SCC    0.01 s
speedup  1.02
cpu  time for grad    0.01 s
wall time for grad    0.01 s
 E :    -50.44405747  G :  0.012111    pred/act E change: -0.612D-03 -0.934D-04
Maxdispl :   0.0539   ||displ|| :   0.1342   Lambda : -0.372D-03
Largest |displ|/coords:  0.0539 (   4)  0.0443 (   3)  0.0440 (   1)
................................................................................
.............................. CYCLE   43 ......................................
................................................................................
   1    -50.7372712 -0.507373E+02  0.840E-02    8.16       0.0  T
   2    -50.7372736 -0.245241E-05  0.623E-02    8.16       1.0  T
   3    -50.7372751 -0.146923E-05  0.117E-02    8.15       1.7  T
   4    -50.7372754 -0.283052E-06  0.368E-03    8.15       5.3  T
   5    -50.7372754 -0.165702E-07  0.842E-04    8.15      23.3  T
   6    -50.7372754 -0.103702E-08  0.471E-04    8.15      41.6  T
speedup  0.91
cpu  time for SCC    0.00 s
wall time for SCC    0.01 s
speedup  0.96
cpu  time for grad    0.01 s
wall time for grad    0.01 s
 E :    -50.44419536  G :  0.009353    pred/act E change: -0.263D-03 -0.138D-03
Maxdispl :   0.1838   ||displ|| :   0.2797   Lambda : -0.290D-03
Largest |displ|/coords:  0.1838 (   1)  0.1319 (   3)  0.0915 (   8)
................................................................................
.............................. CYCLE   44 ......................................
................................................................................
   1    -50.7370391 -0.507370E+02  0.140E-01    8.02       0.0  T
   2    -50.7370464 -0.733852E-05  0.104E-01    8.00       1.0  T
   3    -50.7370510 -0.464484E-05  0.173E-02    7.97       1.1  T
   4    -50.7370521 -0.105739E-05  0.642E-03    7.98       3.1  T
   5    -50.7370521 -0.535134E-07  0.157E-03    7.98      12.5  T
   6    -50.7370522 -0.357658E-08  0.901E-04    7.98      21.8  T
speedup  1.09
cpu  time for SCC    0.01 s
wall time for SCC    0.01 s
speedup  1.03
cpu  time for grad    0.01 s
wall time for grad    0.01 s
 E :    -50.44424756  G :  0.009964    pred/act E change: -0.189D-03 -0.522D-04
Maxdispl :   0.0861   ||displ|| :   0.1360   Lambda : -0.216D-03
Largest |displ|/coords:  0.0861 (   1)  0.0456 (  11)  0.0442 (   5)
................................................................................
.............................. CYCLE   45 ......................................
................................................................................
   1    -50.7373061 -0.507373E+02  0.650E-02    8.04       0.0  T
   2    -50.7373077 -0.155020E-05  0.477E-02    8.05       1.0  T
   3    -50.7373085 -0.856435E-06  0.912E-03    8.07       2.1  T
   4    -50.7373087 -0.185001E-06  0.225E-03    8.06       8.7  T
   5    -50.7373087 -0.970535E-08  0.700E-04    8.06      28.0  T
speedup  1.06
cpu  time for SCC    0.00 s
wall time for SCC    0.00 s
speedup  1.02
cpu  time for grad    0.01 s
wall time for grad    0.01 s
 E :    -50.44437175  G :  0.006011    pred/act E change: -0.156D-03 -0.124D-03
Maxdispl :   0.0897   ||displ|| :   0.1753   Lambda : -0.151D-03
Largest |displ|/coords:  0.0897 (   1)  0.0883 (   3)  0.0669 (   2)
................................................................................
.............................. CYCLE   46 ......................................
................................................................................
   1    -50.7344140 -0.507344E+02  0.924E-02    8.07       0.0  T
   2    -50.7344169 -0.288811E-05  0.695E-02    8.08       1.0  T
   3    -50.7344192 -0.235520E-05  0.923E-03    8.08       2.1  T
   4    -50.7344196 -0.388556E-06  0.318E-03    8.08       6.2  T
   5    -50.7344196 -0.145801E-07  0.115E-03    8.08      17.1  T
   6    -50.7344196 -0.170804E-08  0.627E-04    8.08      31.3  T
speedup  0.89
cpu  time for SCC    0.00 s
wall time for SCC    0.01 s
speedup  1.02
cpu  time for grad    0.01 s
wall time for grad    0.01 s
 E :    -50.44441161  G :  0.009022    pred/act E change: -0.110D-03 -0.399D-04
Maxdispl :   0.0691   ||displ|| :   0.1343   Lambda : -0.170D-03
Largest |displ|/coords:  0.0691 (   3)  0.0531 (   2)  0.0530 (   5)
................................................................................
.............................. CYCLE   47 ......................................
................................................................................
   1    -50.7354455 -0.507354E+02  0.700E-02    8.09       0.0  T
   2    -50.7354471 -0.160436E-05  0.522E-02    8.10       1.0  T
   3    -50.7354484 -0.127995E-05  0.856E-03    8.11       2.3  T
   4    -50.7354486 -0.190124E-06  0.316E-03    8.11       6.2  T
   5    -50.7354486 -0.122095E-07  0.756E-04    8.11      25.9  T
   6    -50.7354486 -0.724761E-09  0.474E-04    8.11      41.4  T
speedup  1.05
cpu  time for SCC    0.01 s
wall time for SCC    0.01 s
speedup  1.02
cpu  time for grad    0.01 s
wall time for grad    0.01 s
 E :    -50.44452588  G :  0.005871    pred/act E change: -0.777D-04 -0.114D-03
Maxdispl :   0.1139   ||displ|| :   0.1890   Lambda : -0.148D-03
Largest |displ|/coords:  0.1139 (   3)  0.0870 (   2)  0.0747 (   9)
................................................................................
.............................. CYCLE   48 ......................................
................................................................................
   1    -50.7360651 -0.507361E+02  0.940E-02    8.10       0.0  T
   2    -50.7360678 -0.260842E-05  0.703E-02    8.10       1.0  T
   3    -50.7360697 -0.193952E-05  0.101E-02    8.09       1.9  T
   4    -50.7360700 -0.358432E-06  0.419E-03    8.10       4.7  T
   5    -50.7360701 -0.158486E-07  0.911E-04    8.10      21.5  T
   6    -50.7360701 -0.101940E-08  0.553E-04    8.10      35.5  T
speedup  1.05
cpu  time for SCC    0.01 s
wall time for SCC    0.01 s
speedup  1.01
cpu  time for grad    0.01 s
wall time for grad    0.01 s
 E :    -50.44461425  G :  0.007499    pred/act E change: -0.868D-04 -0.884D-04
Maxdispl :   0.1709   ||displ|| :   0.2738   Lambda : -0.163D-03
Largest |displ|/coords:  0.1709 (   3)  0.1151 (   2)  0.0937 (   9)
................................................................................
.............................. CYCLE   49 ......................................
................................................................................
   1    -50.7342996 -0.507343E+02  0.129E-01    8.05       0.0  T
   2    -50.7343036 -0.398501E-05  0.969E-02    8.06       1.0  T
   3    -50.7343071 -0.350674E-05  0.121E-02    8.06       1.6  T
   4    -50.7343076 -0.495379E-06  0.517E-03    8.06       3.8  T
   5    -50.7343076 -0.231937E-07  0.106E-03    8.06      18.4  T
   6    -50.7343076 -0.136187E-08  0.663E-04    8.06      29.6  T
speedup  1.02
cpu  time for SCC    0.01 s
wall time for SCC    0.01 s
speedup  1.00
cpu  time for grad    0.01 s
wall time for grad    0.01 s
 E :    -50.44469915  G :  0.009184    pred/act E change: -0.764D-04 -0.849D-04
Maxdispl :   0.0893   ||displ|| :   0.1767   Lambda : -0.151D-03
Largest |displ|/coords:  0.0893 (   3)  0.0700 (   9)  0.0678 (   1)
................................................................................
.............................. CYCLE   50 ......................................
................................................................................
   1    -50.7348752 -0.507349E+02  0.889E-02    8.08       0.0  T
   2    -50.7348764 -0.117453E-05  0.665E-02    8.08       1.0  T
   3    -50.7348774 -0.102596E-05  0.677E-03    8.09       2.9  T
   4    -50.7348776 -0.131986E-06  0.280E-03    8.09       7.0  T
   5    -50.7348776 -0.712944E-08  0.735E-04    8.09      26.7  T
speedup  0.85
cpu  time for SCC    0.00 s
wall time for SCC    0.00 s
speedup  0.94
cpu  time for grad    0.01 s
wall time for grad    0.01 s
 E :    -50.44480263  G :  0.008125    pred/act E change: -0.878D-04 -0.103D-03
Maxdispl :   0.1514   ||displ|| :   0.3000   Lambda : -0.280D-03
Largest |displ|/coords:  0.1514 (   3)  0.1299 (   9)  0.1210 (   2)
................................................................................
.............................. CYCLE   51 ......................................
................................................................................
   1    -50.7349427 -0.507349E+02  0.195E-01    8.12       0.0  T
   2    -50.7349491 -0.646758E-05  0.144E-01    8.12       1.0  T
   3    -50.7349552 -0.603159E-05  0.156E-02    8.13       1.3  T
   4    -50.7349556 -0.465404E-06  0.510E-03    8.13       3.8  T
   5    -50.7349557 -0.278178E-07  0.187E-03    8.13      10.5  T
   6    -50.7349557 -0.525382E-08  0.911E-04    8.13      21.5  T
speedup  1.03
cpu  time for SCC    0.01 s
wall time for SCC    0.01 s
speedup  1.01
cpu  time for grad    0.01 s
wall time for grad    0.01 s
 E :    -50.44493033  G :  0.010687    pred/act E change: -0.781D-04 -0.128D-03
Maxdispl :   0.0951   ||displ|| :   0.1746   Lambda : -0.216D-03
Largest |displ|/coords:  0.0951 (   1)  0.0629 (   2)  0.0586 (   9)
................................................................................
.............................. CYCLE   52 ......................................
................................................................................
   1    -50.7355835 -0.507356E+02  0.100E-01    8.16       0.0  T
   2    -50.7355863 -0.287081E-05  0.741E-02    8.15       1.0  T
   3    -50.7355885 -0.214825E-05  0.118E-02    8.14       1.7  T
   4    -50.7355888 -0.318175E-06  0.336E-03    8.15       5.8  T
   5    -50.7355888 -0.188016E-07  0.108E-03    8.15      18.2  T
   6    -50.7355888 -0.169772E-08  0.597E-04    8.15      32.8  T
speedup  0.91
cpu  time for SCC    0.00 s
wall time for SCC    0.01 s
speedup  1.02
cpu  time for grad    0.01 s
wall time for grad    0.01 s
 E :    -50.44503548  G :  0.008219    pred/act E change: -0.153D-03 -0.105D-03
Maxdispl :   0.0891   ||displ|| :   0.1587   Lambda : -0.147D-03
Largest |displ|/coords:  0.0891 (   3)  0.0753 (   2)  0.0486 (   9)

generating ANC from model Hessian ...
 Shifting diagonal of input Hessian by   5.040960632132433E-003
 Lowest  eigenvalues of input Hessian
    0.005000   -0.000000   -0.000000   -0.000000   -0.000000    0.000000
    0.000000    0.005293    0.005661    0.006001    0.006270    0.006578
    0.006646    0.007580    0.007975    0.008300    0.008642    0.009906
 Highest eigenvalues
    1.384588    1.386352    1.386996    2.508204    3.177750    3.951261
 
cpu  time for ANC gen    0.02 s
wall time for ANC gen    0.02 s
................................................................................
.............................. CYCLE   53 ......................................
................................................................................
   1    -50.7350966 -0.507351E+02  0.910E-02    8.11       0.0  T
   2    -50.7350980 -0.143730E-05  0.676E-02    8.11       1.0  T
   3    -50.7350996 -0.154770E-05  0.853E-03    8.10       2.3  T
   4    -50.7350996 -0.842553E-07  0.204E-03    8.10       9.6  T
   5    -50.7350997 -0.697241E-08  0.827E-04    8.10      23.7  T
   6    -50.7350997 -0.804476E-09  0.463E-04    8.10      42.4  T
speedup  1.03
cpu  time for SCC    0.01 s
wall time for SCC    0.01 s
speedup  0.97
cpu  time for grad    0.01 s
wall time for grad    0.01 s
 E :    -50.44513138  G :  0.007175    pred/act E change:  0.000D+00 -0.959D-04
Maxdispl :   0.0607   ||displ|| :   0.1430   Lambda : -0.259D-03
Largest |displ|/coords:  0.0607 (   8)  0.0586 (   7)  0.0523 (   6)
................................................................................
.............................. CYCLE   54 ......................................
................................................................................
   1    -50.7359986 -0.507360E+02  0.975E-02    8.13       0.0  T
   2    -50.7359997 -0.104183E-05  0.732E-02    8.12       1.0  T
   3    -50.7360007 -0.984562E-06  0.640E-03    8.12       3.1  T
   4    -50.7360008 -0.118042E-06  0.229E-03    8.12       8.6  T
   5    -50.7360008 -0.558528E-08  0.819E-04    8.12      24.0  T
speedup  1.00
cpu  time for SCC    0.00 s
wall time for SCC    0.01 s
speedup  0.99
cpu  time for grad    0.01 s
wall time for grad    0.01 s
 E :    -50.44532646  G :  0.004011    pred/act E change:  0.000D+00 -0.195D-03
Maxdispl :   0.1610   ||displ|| :   0.3015   Lambda : -0.329D-03
Largest |displ|/coords:  0.1610 (   7)  0.1495 (   6)  0.0990 (   1)
................................................................................
.............................. CYCLE   55 ......................................
................................................................................
   1    -50.7350931 -0.507351E+02  0.183E-01    8.13       0.0  T
   2    -50.7350960 -0.289527E-05  0.137E-01    8.13       1.0  T
   3    -50.7350988 -0.274756E-05  0.105E-02    8.12       1.9  T
   4    -50.7350991 -0.296674E-06  0.404E-03    8.12       4.9  T
   5    -50.7350991 -0.145479E-07  0.143E-03    8.12      13.7  T
   6    -50.7350991 -0.169082E-08  0.577E-04    8.12      34.0  T
speedup  0.86
cpu  time for SCC    0.00 s
wall time for SCC    0.01 s
speedup  0.94
cpu  time for grad    0.01 s
wall time for grad    0.01 s
 E :    -50.44553045  G :  0.007949    pred/act E change: -0.132D-03 -0.204D-03
Maxdispl :   0.1129   ||displ|| :   0.1917   Lambda : -0.149D-03
Largest |displ|/coords:  0.1129 (   6)  0.0857 (   7)  0.0850 (   1)
................................................................................
.............................. CYCLE   56 ......................................
................................................................................
   1    -50.7345914 -0.507346E+02  0.102E-01    8.11       0.0  T
   2    -50.7345921 -0.730719E-06  0.758E-02    8.11       1.0  T
   3    -50.7345927 -0.655114E-06  0.458E-03    8.10       4.3  T
   4    -50.7345928 -0.698925E-07  0.194E-03    8.10      10.1  T
   5    -50.7345928 -0.381877E-08  0.691E-04    8.10      28.4  T
speedup  1.04
cpu  time for SCC    0.01 s
wall time for SCC    0.00 s
speedup  1.02
cpu  time for grad    0.01 s
wall time for grad    0.01 s
 E :    -50.44563833  G :  0.008105    pred/act E change: -0.179D-03 -0.108D-03
Maxdispl :   0.1367   ||displ|| :   0.2211   Lambda : -0.230D-03
Largest |displ|/coords:  0.1367 (   1)  0.1004 (   6)  0.0806 (   7)
................................................................................
.............................. CYCLE   57 ......................................
................................................................................
   1    -50.7361999 -0.507362E+02  0.111E-01    8.10       0.0  T
   2    -50.7362020 -0.215937E-05  0.825E-02    8.10       1.0  T
   3    -50.7362035 -0.144599E-05  0.846E-03    8.08       2.3  T
   4    -50.7362038 -0.290894E-06  0.252E-03    8.09       7.8  T
   5    -50.7362038 -0.714414E-08  0.101E-03    8.09      19.3  T
speedup  1.04
cpu  time for SCC    0.00 s
wall time for SCC    0.00 s
speedup  1.02
cpu  time for grad    0.01 s
wall time for grad    0.01 s
 E :    -50.44578283  G :  0.005995    pred/act E change: -0.771D-04 -0.145D-03
Maxdispl :   0.1714   ||displ|| :   0.3009   Lambda : -0.166D-03
Largest |displ|/coords:  0.1714 (   1)  0.1529 (   6)  0.1111 (   7)
................................................................................
.............................. CYCLE   58 ......................................
................................................................................
   1    -50.7335744 -0.507336E+02  0.162E-01    8.06       0.0  T
   2    -50.7335766 -0.224096E-05  0.121E-01    8.06       1.0  T
   3    -50.7335790 -0.240818E-05  0.892E-03    8.06       2.2  T
   4    -50.7335792 -0.146237E-06  0.336E-03    8.06       5.8  T
   5    -50.7335792 -0.108761E-07  0.121E-03    8.06      16.2  T
   6    -50.7335792 -0.220894E-08  0.654E-04    8.06      30.0  T
speedup  1.05
cpu  time for SCC    0.01 s
wall time for SCC    0.01 s
speedup  1.02
cpu  time for grad    0.01 s
wall time for grad    0.01 s
 E :    -50.44586337  G :  0.009608    pred/act E change: -0.121D-03 -0.805D-04
Maxdispl :   0.1169   ||displ|| :   0.1552   Lambda : -0.225D-03
Largest |displ|/coords:  0.1169 (   1)  0.0533 (  11)  0.0449 (   8)
................................................................................
.............................. CYCLE   59 ......................................
................................................................................
   1    -50.7357696 -0.507358E+02  0.861E-02    8.07       0.0  T
   2    -50.7357722 -0.260003E-05  0.638E-02    8.06       1.0  T
   3    -50.7357733 -0.111308E-05  0.101E-02    8.05       1.9  T
   4    -50.7357738 -0.461771E-06  0.295E-03    8.06       6.6  T
   5    -50.7357738 -0.700457E-08  0.938E-04    8.06      20.9  T
speedup  1.06
cpu  time for SCC    0.00 s
wall time for SCC    0.00 s
speedup  1.02
cpu  time for grad    0.01 s
wall time for grad    0.01 s
 E :    -50.44597145  G :  0.005570    pred/act E change: -0.905D-04 -0.108D-03
Maxdispl :   0.1864   ||displ|| :   0.2848   Lambda : -0.233D-03
Largest |displ|/coords:  0.1864 (   1)  0.1470 (   6)  0.1086 (   7)
................................................................................
.............................. CYCLE   60 ......................................
................................................................................
   1    -50.7348249 -0.507348E+02  0.140E-01    8.01       0.0  T
   2    -50.7348279 -0.301003E-05  0.104E-01    8.02       1.0  T
   3    -50.7348299 -0.205608E-05  0.116E-02    8.03       1.7  T
   4    -50.7348303 -0.380445E-06  0.389E-03    8.02       5.0  T
   5    -50.7348303 -0.144977E-07  0.114E-03    8.02      17.2  T
   6    -50.7348303 -0.131261E-08  0.678E-04    8.02      28.9  T
speedup  1.07
cpu  time for SCC    0.01 s
wall time for SCC    0.01 s
speedup  1.01
cpu  time for grad    0.01 s
wall time for grad    0.01 s
 E :    -50.44608752  G :  0.009944    pred/act E change: -0.115D-03 -0.116D-03
Maxdispl :   0.1226   ||displ|| :   0.1758   Lambda : -0.135D-03
Largest |displ|/coords:  0.1226 (   1)  0.0834 (   6)  0.0510 (   8)
................................................................................
.............................. CYCLE   61 ......................................
................................................................................
   1    -50.7342063 -0.507342E+02  0.828E-02    8.02       0.0  T
   2    -50.7342071 -0.781237E-06  0.616E-02    8.02       1.0  T
   3    -50.7342078 -0.710501E-06  0.571E-03    8.01       3.4  T
   4    -50.7342079 -0.676885E-07  0.180E-03    8.01      10.9  T
   5    -50.7342079 -0.431766E-08  0.649E-04    8.01      30.2  T
speedup  0.87
cpu  time for SCC    0.00 s
wall time for SCC    0.00 s
speedup  0.95
cpu  time for grad    0.01 s
wall time for grad    0.01 s
 E :    -50.44618545  G :  0.008260    pred/act E change: -0.126D-03 -0.979D-04
Maxdispl :   0.1323   ||displ|| :   0.2020   Lambda : -0.239D-03
Largest |displ|/coords:  0.1323 (   1)  0.0642 (   6)  0.0608 (  18)
................................................................................
.............................. CYCLE   62 ......................................
................................................................................
   1    -50.7373477 -0.507373E+02  0.815E-02    8.05       0.0  T
   2    -50.7373504 -0.267327E-05  0.599E-02    8.04       1.0  T
   3    -50.7373516 -0.119368E-05  0.978E-03    8.03       2.0  T
   4    -50.7373520 -0.410310E-06  0.261E-03    8.04       7.5  T
   5    -50.7373520 -0.862368E-08  0.924E-04    8.04      21.2  T
speedup  1.06
cpu  time for SCC    0.00 s
wall time for SCC    0.00 s
speedup  1.02
cpu  time for grad    0.01 s
wall time for grad    0.01 s
 E :    -50.44628638  G :  0.005147    pred/act E change: -0.695D-04 -0.101D-03
Maxdispl :   0.3382   ||displ|| :   0.4910   Lambda : -0.268D-03
Largest |displ|/coords:  0.3382 (   1)  0.2205 (   6)  0.1562 (   7)
................................................................................
.............................. CYCLE   63 ......................................
................................................................................
   1    -50.7310426 -0.507310E+02  0.236E-01    7.95       0.0  T
   2    -50.7310513 -0.875110E-05  0.175E-01    7.96       1.0  T
   3    -50.7310571 -0.576302E-05  0.183E-02    7.98       1.1  T
   4    -50.7310583 -0.126019E-05  0.546E-03    7.97       3.6  T
   5    -50.7310584 -0.280536E-07  0.229E-03    7.97       8.6  T
   6    -50.7310584 -0.916214E-08  0.100E-03    7.97      19.6  T
speedup  1.03
cpu  time for SCC    0.01 s
wall time for SCC    0.01 s
speedup  1.01
cpu  time for grad    0.01 s
wall time for grad    0.01 s
 E :    -50.44624444  G :  0.016062    pred/act E change: -0.125D-03  0.419D-04
Maxdispl :   0.1200   ||displ|| :   0.2120   Lambda : -0.456D-03
Largest |displ|/coords:  0.1200 (   1)  0.1081 (   6)  0.0747 (   7)
................................................................................
.............................. CYCLE   64 ......................................
................................................................................
   1    -50.7362769 -0.507363E+02  0.107E-01    8.03       0.0  T
   2    -50.7362805 -0.360613E-05  0.790E-02    8.02       1.0  T
   3    -50.7362818 -0.135597E-05  0.113E-02    8.00       1.7  T
   4    -50.7362825 -0.669033E-06  0.248E-03    8.01       7.9  T
   5    -50.7362825 -0.837015E-08  0.108E-03    8.01      18.2  T
speedup  1.04
cpu  time for SCC    0.00 s
wall time for SCC    0.00 s
speedup  1.00
cpu  time for grad    0.01 s
wall time for grad    0.01 s
 E :    -50.44643920  G :  0.004045    pred/act E change: -0.166D-03 -0.195D-03
Maxdispl :   0.0936   ||displ|| :   0.1270   Lambda : -0.675D-04
Largest |displ|/coords:  0.0936 (   1)  0.0452 (   6)  0.0270 (   7)
................................................................................
.............................. CYCLE   65 ......................................
................................................................................
   1    -50.7364705 -0.507365E+02  0.593E-02    8.01       0.0  T
   2    -50.7364709 -0.392543E-06  0.441E-02    8.01       1.0  T
   3    -50.7364713 -0.433816E-06  0.370E-03    8.01       5.3  T
   4    -50.7364713 -0.184107E-07  0.149E-03    8.01      13.2  T
   5    -50.7364713 -0.244398E-08  0.425E-04    8.01      46.2  T
speedup  1.00
cpu  time for SCC    0.00 s
wall time for SCC    0.01 s
speedup  1.03
cpu  time for grad    0.01 s
wall time for grad    0.01 s
 E :    -50.44650024  G :  0.004063    pred/act E change: -0.238D-03 -0.610D-04
Maxdispl :   0.4068   ||displ|| :   0.5543   Lambda : -0.270D-03
Largest |displ|/coords:  0.4068 (   1)  0.2032 (   6)  0.1404 (   7)
[...]
................................................................................
   1    -50.7415405 -0.507415E+02  0.185E-02    7.69       0.0  T
   2    -50.7415405 -0.525902E-07  0.136E-02    7.69       1.4  T
   3    -50.7415405 -0.382331E-07  0.184E-03    7.69      10.7  T
   4    -50.7415406 -0.544070E-08  0.572E-04    7.69      34.3  T
   5    -50.7415406 -0.311552E-09  0.134E-04    7.69     146.1  T
speedup  1.04
cpu  time for SCC    0.00 s
wall time for SCC    0.00 s
speedup  1.02
cpu  time for grad    0.01 s
wall time for grad    0.01 s
 E :    -50.45097390  G :  0.000714    pred/act E change: -0.168D-05 -0.245D-05
Maxdispl :   0.0266   ||displ|| :   0.0387   Lambda : -0.324D-05
Largest |displ|/coords:  0.0266 (   1)  0.0141 (   6)  0.0119 (   2)
................................................................................
.............................. CYCLE  129 ......................................
................................................................................
   1    -50.7415010 -0.507415E+02  0.222E-02    7.69       0.0  T
   2    -50.7415011 -0.604481E-07  0.164E-02    7.69       1.2  T
   3    -50.7415011 -0.620959E-07  0.171E-03    7.69      11.5  T
   4    -50.7415011 -0.344791E-08  0.453E-04    7.69      43.3  T
   5    -50.7415011 -0.246402E-09  0.179E-04    7.69     109.6  T
speedup  1.04
cpu  time for SCC    0.00 s
wall time for SCC    0.00 s
speedup  1.02
cpu  time for grad    0.01 s
wall time for grad    0.01 s
 E :    -50.45097623  G :  0.000866    pred/act E change: -0.174D-05 -0.233D-05
Maxdispl :   0.0235   ||displ|| :   0.0390   Lambda : -0.314D-05
Largest |displ|/coords:  0.0235 (   1)  0.0171 (   2)  0.0153 (   6)
................................................................................
.............................. CYCLE  130 ......................................
................................................................................
   1    -50.7414980 -0.507415E+02  0.219E-02    7.69       0.0  T
   2    -50.7414980 -0.635720E-07  0.163E-02    7.69       1.2  T
   3    -50.7414981 -0.640408E-07  0.187E-03    7.69      10.5  T
   4    -50.7414981 -0.586005E-08  0.579E-04    7.69      33.8  T
   5    -50.7414981 -0.404732E-09  0.184E-04    7.69     106.7  T
speedup  1.04
cpu  time for SCC    0.00 s
wall time for SCC    0.00 s
speedup  1.02
cpu  time for grad    0.01 s
wall time for grad    0.01 s
 E :    -50.45097846  G :  0.000952    pred/act E change: -0.162D-05 -0.223D-05
Maxdispl :   0.0301   ||displ|| :   0.0424   Lambda : -0.261D-05
Largest |displ|/coords:  0.0301 (   1)  0.0171 (   6)  0.0144 (   2)
................................................................................
.............................. CYCLE  131 ......................................
................................................................................
   1    -50.7413765 -0.507414E+02  0.231E-02    7.68       0.0  T
   2    -50.7413765 -0.775128E-07  0.172E-02    7.68       1.1  T
   3    -50.7413766 -0.721806E-07  0.218E-03    7.68       9.0  T
   4    -50.7413766 -0.800600E-08  0.669E-04    7.68      29.3  T
   5    -50.7413766 -0.490409E-09  0.175E-04    7.68     112.3  T
speedup  1.04
cpu  time for SCC    0.00 s
wall time for SCC    0.00 s
speedup  0.95
cpu  time for grad    0.01 s
wall time for grad    0.01 s
 E :    -50.45098020  G :  0.000849    pred/act E change: -0.157D-05 -0.174D-05
Maxdispl :   0.0220   ||displ|| :   0.0363   Lambda : -0.245D-05
Largest |displ|/coords:  0.0220 (   2)  0.0150 (  12)  0.0113 (   6)
................................................................................
.............................. CYCLE  132 ......................................
................................................................................
   1    -50.7415774 -0.507416E+02  0.214E-02    7.67       0.0  T
   2    -50.7415775 -0.114209E-06  0.159E-02    7.67       1.2  T
   3    -50.7415776 -0.852941E-07  0.280E-03    7.67       7.0  T
   4    -50.7415776 -0.159829E-07  0.752E-04    7.67      26.1  T
   5    -50.7415776 -0.701945E-09  0.202E-04    7.67      97.0  T
speedup  1.06
cpu  time for SCC    0.00 s
wall time for SCC    0.00 s
speedup  1.01
cpu  time for grad    0.01 s
wall time for grad    0.01 s
 E :    -50.45098110  G :  0.000905    pred/act E change: -0.131D-05 -0.901D-06
Maxdispl :   0.0212   ||displ|| :   0.0259   Lambda : -0.179D-05
Largest |displ|/coords:  0.0212 (   1)  0.0084 (   6)  0.0049 (   9)
................................................................................
.............................. CYCLE  133 ......................................
................................................................................
   1    -50.7414094 -0.507414E+02  0.124E-02    7.66       0.0  T
   2    -50.7414095 -0.321761E-07  0.912E-03    7.66       2.1  T
   3    -50.7414095 -0.214925E-07  0.117E-03    7.67      16.8  T
   4    -50.7414095 -0.422401E-08  0.320E-04    7.66      61.3  T
   5    -50.7414095 -0.155872E-09  0.108E-04    7.66     182.2  T
speedup  0.83
cpu  time for SCC    0.00 s
wall time for SCC    0.00 s
speedup  0.96
cpu  time for grad    0.01 s
wall time for grad    0.01 s
 E :    -50.45098209  G :  0.000543    pred/act E change: -0.123D-05 -0.985D-06
Maxdispl :   0.0022   ||displ|| :   0.0059   Lambda : -0.768D-06
Largest |displ|/coords:  0.0022 (   8)  0.0020 (   2)  0.0019 (  11)
................................................................................
.............................. CYCLE  134 ......................................
................................................................................
   1    -50.7414070 -0.507414E+02  0.409E-03    7.67       0.0  T
   2    -50.7414070 -0.731727E-08  0.302E-03    7.67       6.5  T
   3    -50.7414071 -0.472788E-08  0.581E-04    7.67      33.7  T
   4    -50.7414071 -0.936303E-09  0.194E-04    7.67     100.9  T
speedup  1.03
cpu  time for SCC    0.00 s
wall time for SCC    0.00 s
speedup  1.02
cpu  time for grad    0.01 s
wall time for grad    0.01 s
 E :    -50.45098262  G :  0.000397    pred/act E change: -0.898D-06 -0.528D-06
Maxdispl :   0.0057   ||displ|| :   0.0118   Lambda : -0.645D-06
Largest |displ|/coords:  0.0057 (   2)  0.0052 (   9)  0.0046 (  12)
................................................................................
.............................. CYCLE  135 ......................................
................................................................................
   1    -50.7414608 -0.507415E+02  0.676E-03    7.67       0.0  T
   2    -50.7414609 -0.120310E-07  0.501E-03    7.67       3.9  T
   3    -50.7414609 -0.964211E-08  0.817E-04    7.67      24.0  T
   4    -50.7414609 -0.146331E-08  0.294E-04    7.67      66.8  T
speedup  0.79
cpu  time for SCC    0.00 s
wall time for SCC    0.00 s
speedup  0.94
cpu  time for grad    0.01 s
wall time for grad    0.01 s
 E :    -50.45098297  G :  0.000242    pred/act E change: -0.384D-06 -0.349D-06
Maxdispl :   0.0046   ||displ|| :   0.0087   Lambda : -0.166D-06
Largest |displ|/coords:  0.0046 (   2)  0.0045 (   1)  0.0029 (  12)
................................................................................
.............................. CYCLE  136 ......................................
................................................................................
   1    -50.7414537 -0.507415E+02  0.489E-03    7.67       0.0  T
   2    -50.7414537 -0.330439E-08  0.367E-03    7.67       5.3  T
   3    -50.7414537 -0.358347E-08  0.427E-04    7.67      46.0  T
   4    -50.7414537 -0.296843E-09  0.140E-04    7.67     140.4  T
speedup  0.77
cpu  time for SCC    0.00 s
wall time for SCC    0.00 s
speedup  0.94
cpu  time for grad    0.01 s
wall time for grad    0.01 s
 E :    -50.45098307  G :  0.000131    pred/act E change: -0.323D-06 -0.106D-06
Maxdispl :   0.0028   ||displ|| :   0.0043   Lambda : -0.723D-07
Largest |displ|/coords:  0.0028 (   1)  0.0015 (   3)  0.0014 (  12)
................................................................................
.............................. CYCLE  137 ......................................
................................................................................
   1    -50.7414636 -0.507415E+02  0.308E-03    7.67       0.0  T
   2    -50.7414636 -0.117115E-08  0.232E-03    7.67       8.5  T
   3    -50.7414636 -0.118430E-08  0.205E-04    7.67      95.8  T
   4    -50.7414636 -0.104350E-09  0.915E-05    7.67     214.3  T
speedup  0.77
cpu  time for SCC    0.00 s
wall time for SCC    0.00 s
speedup  0.94
cpu  time for grad    0.01 s
wall time for grad    0.01 s
 E :    -50.45098312  G :  0.000071    pred/act E change: -0.832D-07 -0.486D-07
Maxdispl :   0.0022   ||displ|| :   0.0030   Lambda : -0.227D-07
Largest |displ|/coords:  0.0022 (   1)  0.0009 (   3)  0.0007 (   6)

   *** GEOMETRY OPTIMIZATION CONVERGED AFTER 137 ITERATIONS ***

------------------------------------------------------------------------
 total energy gain (kcal):     -0.3487
------------------------------------------------------------------------
================
 final structure:
================
$coord
        1.95687841644416        2.62973946673593       -0.25083943188418      S 
        4.25591885604915        1.56705286250661       -1.21929956385786      O 
        1.75723232223257        5.29412816202289       -0.03173684102145      O 
       -0.27279294265511        1.69160364497771       -1.90357717478622      O 
        1.43006194712452        1.47089305472831        2.39488327918948      O 
        1.84344059913243       -0.38362188306686        2.40537432550286      H 
        0.01255159356419       -0.02317968820233       -2.66783234435853      H 
        2.06664138123341       -3.35018856989557        2.48670556963783      O 
        2.03912422896424       -3.96273366266908        4.19181115541649      H 
        0.34209453636112       -2.68904951499208       -3.91962068061846      O 
        0.46395157916281       -2.55729733429546       -5.72238369408866      H 
       -3.90854883224172        0.50810996854028        2.70014596860031      O 
       -4.09569223344137        2.08893902902164        1.72278273033045      H 
       -2.50467308144071        0.84241785347984        3.80128065720608      H 
        4.77775532418884       -3.38711426278766       -2.00487073413551      O 
        2.06970051174726       -3.18822404403184       -3.29831234108169      H 
        5.07760327080091       -1.57158446766933       -1.85736053937790      H 
        4.36658315178244       -3.92992834079021       -0.30899600690092      H 
       -2.36190069638486       -3.79835345462336        0.58908153683857      O 
       -3.18522045102513       -2.26091322797865        1.25402231045115      H 
       -2.12579268864432       -3.55060846210794       -1.20020998270394      H 
        0.33542890852437       -3.73389456352190        1.75311357939695      H 
       -3.71395672282006        5.12348346719768        0.51001185814610      N 
       -4.46997886669936        6.62151893599071        1.43144830147558      H 
       -4.34746635672195        5.17396940868104       -1.29448718210198      H 
       -1.80894373635577        5.37483564160070        0.43886522582889      H 
$end
 
 Bond Distances (Angstroems)
 ---------------------------
S1-O2=1.4349         S1-O3=1.4186         S1-O4=1.5503         S1-O5=1.5537         O2-S1=1.4349         O3-S1=1.4186         
O4-S1=1.5503         O4-H7=1.0049         O5-S1=1.5537         O5-H6=1.0055         H6-O5=1.0055         H7-O4=1.0049         
O8-H9=0.9589         O8-H22=1.0155        H9-O8=0.9589         O10-H11=0.9587       O10-H16=1.0068       H11-O10=0.9587       
O12-H13=0.9885       O12-H14=0.9606       H13-O12=0.9885       H14-O12=0.9606       O15-H17=0.9769       O15-H18=0.9671       
H16-O10=1.0068       H17-O15=0.9769       H18-O15=0.9671       O19-H20=0.9877       O19-H21=0.9640       H20-O19=0.9877       
H21-O19=0.9640       H22-O8=1.0155        N23-H24=1.0130       N23-H25=1.0124       N23-H26=1.0175       H24-N23=1.0130       
H25-N23=1.0124       H26-N23=1.0175       
 N  H  Rav=1.0143 sigma=0.0023  Rmin=1.0124  Rmax=1.0175     3
 O  H  Rav=0.9829 sigma=0.0204  Rmin=0.9587  Rmax=1.0155    12
 S  O  Rav=1.4894 sigma=0.0629  Rmin=1.4186  Rmax=1.5537     4
 
 selected bond angles (degree)
 --------------------
O3-S1-O2=118.81                O4-S1-O2=108.56                O4-S1-O3=107.92                O5-S1-O2=108.62                
O5-S1-O3=107.77                O5-S1-O4=104.21                H7-O4-S1=113.69                H6-O5-S1=110.56                
H22-O8-H9=106.17               H16-O10-H11=106.44             
 
 selected dihedral angles (degree)
 ---------------------------------
H7-O4-S1-O2= 29.85            H7-O4-S1-O3=159.84            H7-O4-S1-O5=274.23            H6-O5-S1-O2=319.74            
H6-O5-S1-O3=189.80            H6-O5-S1-O4= 75.32            
 
 CMA Distance (Angstroems)
 ---------------------------
R(CMA):  2.3259

========================================================================
 FINAL SINGLEPOINT CALCULATION ON OPTIMIZED GEOMETRY
========================================================================

 Ncao       : 65
 Nao        : 64
 Nshell     : 38
 Nel        : 80
 T(el)      :   300.0
 intcut     :    25.0
 scfconv/Eh :  0.100E-05
   qconv/e  :  0.100E-03
 intneglect :  0.100E-07
 broydamp   :      0.250
 iter      E             dE          RMSdq      gap      omega  full diag
   1    -50.7414636 -0.507415E+02  0.345E-05    7.67       0.0  T
   2    -50.7414636 -0.675016E-12  0.224E-05    7.67     874.5  T
   3    -50.7414636 -0.376588E-12  0.415E-06    7.67    4722.7  T
speedup  1.00
cpu  time for SCC    0.00 s
wall time for SCC    0.00 s

   *** convergence criteria satisfied after 3 iterations ***

          eigenvalues
 #    :          28         29         30         31         32         33         34         35
 occ. :        2.000      2.000      2.000      2.000      2.000      2.000      2.000      2.000
 eps  :       -13.649    -13.505    -13.354    -13.060    -12.852    -12.719    -12.701    -12.606
 #    :          36         37         38         39         40         41         42         43
 occ. :        2.000      2.000      2.000      2.000      2.000      0.000      0.000      0.000
 eps  :       -12.276    -12.199    -12.148    -11.728    -10.828     -3.159     -0.822     -0.802
 #    :          44         45         46         47         48         49         50         51
 occ. :        0.000      0.000      0.000      0.000      0.000      0.000      0.000      0.000
 eps  :         0.003      0.751      1.314      1.466      2.571      3.957      4.546      5.162


   #   Z            q   n(s)   n(p)   n(d)      C6AA      α(0)
   1  16 S      1.701  1.574  1.775  0.951    88.748    15.856
   2   8 O     -0.706  1.759  4.947  0.000    28.884     7.206
   3   8 O     -0.654  1.752  4.902  0.000    27.485     7.029
   4   8 O     -0.618  1.753  4.865  0.000    25.584     6.828
   5   8 O     -0.621  1.757  4.864  0.000    25.674     6.840
   6   1 H      0.387  0.613  0.000  0.000     0.507     1.117
   7   1 H      0.389  0.611  0.000  0.000     0.504     1.115
   8   8 O     -0.637  1.762  4.875  0.000    26.095     6.894
   9   1 H      0.296  0.704  0.000  0.000     0.733     1.345
  10   8 O     -0.627  1.755  4.872  0.000    25.842     6.861
  11   1 H      0.297  0.703  0.000  0.000     0.729     1.341
  12   8 O     -0.619  1.747  4.872  0.000    25.640     6.834
  13   1 H      0.316  0.684  0.000  0.000     0.674     1.289
  14   1 H      0.288  0.712  0.000  0.000     0.759     1.368
  15   8 O     -0.608  1.752  4.856  0.000    25.370     6.798
  16   1 H      0.349  0.651  0.000  0.000     0.590     1.207
  17   1 H      0.328  0.672  0.000  0.000     0.643     1.260
  18   1 H      0.316  0.684  0.000  0.000     0.674     1.289
  19   8 O     -0.618  1.755  4.863  0.000    25.627     6.833
  20   1 H      0.338  0.662  0.000  0.000     0.617     1.234
  21   1 H      0.312  0.688  0.000  0.000     0.686     1.301
  22   1 H      0.354  0.646  0.000  0.000     0.579     1.195
  23   7 N     -0.456  1.374  4.082  0.000    31.997     8.401
  24   1 H      0.155  0.845  0.000  0.000     1.365     1.830
  25   1 H      0.155  0.845  0.000  0.000     1.368     1.832
  26   1 H      0.181  0.819  0.000  0.000     1.206     1.721

 Mol. C6AA /au·bohr⁶  :       5455.080411
 Mol. C8AA /au·bohr⁸  :     117738.752738
 Mol. α(0) /au        :        106.823354

 
 Wiberg/Mayer (AO) data. WBOs > 0.1 written file <wbo>
 largest (>0.05) Wiberg bond orders for each atom
           total WBO             WBO to atom ...
     1  S   4.865    O    3 1.479    O    2 1.386    O    4 0.991    O    5 0.977
     2  O   1.748    S    1 1.386    O    3 0.119    O    4 0.092    O    5 0.091
     3  O   1.814    S    1 1.479    O    2 0.119    O    5 0.075    O    4 0.075
     4  O   1.974    S    1 0.991    H    7 0.700    O    2 0.092    O    3 0.075    O    5 0.064
     5  O   1.971    S    1 0.977    H    6 0.706    O    2 0.091    O    3 0.075    O    4 0.064
     6  H   0.850    O    5 0.706    O    8 0.126
     7  H   0.849    O    4 0.700    O   10 0.128
     8  O   1.915    H    9 0.906    H   22 0.746    H    6 0.126    O   19 0.052
     9  H   0.912    O    8 0.906
    10  O   1.919    H   11 0.905    H   16 0.763    H    7 0.128
    11  H   0.912    O   10 0.905
    12  O   1.867    H   14 0.907    H   13 0.816    H   20 0.069
    13  H   0.900    O   12 0.816    N   23 0.079
    14  H   0.917    O   12 0.907
    15  O   1.922    H   18 0.875    H   17 0.847    H   16 0.112
    16  H   0.878    O   10 0.763    O   15 0.112
    17  H   0.892    O   15 0.847
    18  H   0.900    O   15 0.875
    19  O   1.924    H   21 0.883    H   20 0.815    H   22 0.126    O    8 0.052
    20  H   0.886    O   19 0.815    O   12 0.069
    21  H   0.903    O   19 0.883
    22  H   0.875    O    8 0.746    O   19 0.126
    23  N   3.021    H   25 0.974    H   24 0.973    H   26 0.939    H   13 0.079
    24  H   0.976    N   23 0.973
    25  H   0.976    N   23 0.974
    26  H   0.967    N   23 0.939
 MOs/occ written to file <molden.input>
 
molecular dipole:
                 x           y           z       tot (Debye)
 q only:       -0.514      -0.931      -0.048
   full:       -0.398      -0.445      -0.127       1.552
molecular quadrupole (traceless):
                xx          xy          yy          xz          yz          zz
 q only:       -7.381      -9.103      -5.257       6.018      -1.279      12.638
  q+dip:      -11.599     -11.446      -3.929       8.874      -2.472      15.528
   full:      -11.917     -11.555      -4.102       9.225      -2.542      16.019

SCC energy    :     -50.7414636
rep           :       0.2901672
ES            :       0.2302545
AES           :      -0.0514545
AXC           :      -0.0064932
disp          :      -0.0197735
XB            :       0.0000000
fix           :       0.0000000
total E       :     -50.4509831
atomizationE  :       4.9812873     3125.80
(atE without considering molecular charge,
 total energy contains solvation terms)
H-L gap (eV)  :          7.6695
optimized geometry written to: xtbopt.xyz


------------------------------------------------------------------------
 * finished run on 2019/09/16 at 11:31:28.298     
------------------------------------------------------------------------
 total:
 * wall-time:     0 d,  0 h,  0 min,  3.151 sec
 *  cpu-time:     0 d,  0 h,  0 min,  3.127 sec
 * ratio c/w:     0.992 speedup
 SCF:
 * wall-time:     0 d,  0 h,  0 min,  0.151 sec
 *  cpu-time:     0 d,  0 h,  0 min,  0.147 sec
 * ratio c/w:     0.973 speedup
 ANC optimizer:
 * wall-time:     0 d,  0 h,  0 min,  2.975 sec
 *  cpu-time:     0 d,  0 h,  0 min,  2.957 sec
 * ratio c/w:     0.994 speedup

