      -----------------------------------------------------------      
     |                   =====================                   |     
     |                           x T B                           |     
     |                   =====================                   |     
     |                         S. Grimme                         |     
     |          Mulliken Center for Theoretical Chemistry        |     
     |                    University of Bonn                     |     
     |                 Version 6.0.1 (SAW181210)                 |     
      -----------------------------------------------------------      

   This program is distributed in the hope that it will be useful,
   but WITHOUT ANY WARRANTY; without even the implied warranty of
   MERCHANTABILITY or FITNESS FOR A PARTICULAR PURPOSE.
   
   FOR NON-COMMERCIAL, ACADEMIA USE ONLY.
   
   Cite this work as:
   S. Grimme, C. Bannwarth, P. Shushkov, J. Comput. Theory Chem., 2017,
   13, 1989-2009.
   C. Bannwarth, S. Ehlert and S. Grimme., ChemRxiv, 2018, preprint.
   http://doi.org/10.26434/chemrxiv.7246238.v1
   
   for sTDA-xTB:
   S. Grimme and C. Bannwarth, J. Chem. Phys., 2016, 145, 054103.
   
   in the mass-spec context:
   V. Asgeirsson, C. Bauer and S. Grimme, Chem. Sci., 2017, 8, 4879.
   
   if GBSA is used:
   P. Shushkov, F. März and S. Grimme, unpublished.
   
   for ANC optimizer:
   S. Grimme, unpublished.
   Rational Function algorithm used in ANCopt:
   F. Eckert, P. Pulay, H.-J. Werner, J. Comput. Chem., 1997, 18, 1473.
   
   with help from (in alphabetical order)
   C. Bannwarth, F. Bohle, G. Brandenburg, E. Caldeweyher, M. Checinski,
   S. Dohm, S. Ehlert, S. Ehrlich, F. März, H. Neugebauer, J. Pisarek,
   P. Pracht, P. Shushkov, and S. Spicher.
   
 * started run on 2019/09/16 at 11:44:52.935     
========================================================================
 # omp threads = 1
========================================================================
number of atoms            : 26
number of electrons        : 80
charge                     : 0
spin                       : .0
first test random number   : .5856

########################################################################
# WARNING! Please study the warnings concerning your input carefully
#  - XTBPATH is not set, using XTBHOME instead
#  - the use of '-opt' is discouraged, please use '--opt' next time
#  - the use of '-chrg' is discouraged, please use '--chrg' next time
#  - the use of '-uhf' is discouraged, please use '--uhf' next time
########################################################################

           ------------------------------------------------- 
          |                 G F N 2 - x T B                 |
          | Geometry, Frequencies, Noncovalent interactions |
          |            JCTC 2018 parametrisation            |
           ------------------------------------------------- 
      method parameters     
 k(s)        :  1.8500
 k(p)        :  2.2300
 k(d)        :  2.2300
 k(f)        :  2.0000
 kEN (H0ij)  : -2.0000
 D4 a1       :  0.5200
 D4 a2       :  5.0000
 D4 s6       :  1.0000
 D4 s8       :  2.7000
 D4 s9       :  5.0000
 alphaj      :  2.0000


            Z     q(EN)     CN     RAES       Cart. coordinates
     1  S   6.0    0.59    4.29    4.22     5.62752     1.30368     0.05930
     2  O   6.0   -0.31    1.16    1.80     4.41787     0.23317     2.28914
     3  O   6.0   -0.27    1.09    1.80     8.33489     1.45974    -0.22947
     4  O   6.0   -0.23    2.05    1.83     4.37372    -0.08182    -2.40114
     5  O   6.0   -0.23    2.07    1.83     4.58114     4.11089    -0.48143
     6  H   1.0    0.17    1.25    1.48     2.76840     4.15501    -0.16776
     7  H   1.0    0.16    1.18    1.46     3.95093    -1.80135    -1.90030
     8  O   6.0   -0.39    1.62    1.81    -0.04296     3.27903    -0.01730
     9  H   1.0    0.17    0.95    1.42    -0.60532     5.04408    -0.24554
    10  O   6.0   -0.38    1.57    1.80     1.37883    -3.67551    -1.21173
    11  H   1.0    0.18    0.94    1.42     1.70947    -5.32822    -2.01360
    12  O   6.0   -0.31    2.08    1.84    -2.85159     1.12883     2.99577
    13  H   1.0    0.14    0.97    1.43    -3.64904     2.38787     4.04147
    14  H   1.0    0.18    1.15    1.45    -1.76306     2.05724     1.86982
    15  O   6.0   -0.23    2.94    2.64    -1.09190    -0.16687    -2.81746
    16  H   1.0    0.16    1.19    1.46    -0.56704     1.36113    -1.87959
    17  H   1.0    0.16    1.18    1.46    -0.00349    -1.63491    -2.42985
    18  H   1.0    0.12    1.06    1.44    -2.90263    -0.55385    -2.56646
    19  O   6.0   -0.22    2.92    2.58     0.42954    -2.53774     3.06366
    20  H   1.0    0.14    1.05    1.44    -1.08679    -1.45050     3.15592
    21  H   1.0    0.16    1.19    1.46     0.62469    -3.32621     1.38133
    22  H   1.0    0.15    1.02    1.43     1.97435    -1.62964     3.59321
    23  N   5.0   -0.23    3.04    1.93    -5.94332    -1.07751    -1.35003
    24  H   1.0    0.10    0.99    1.43    -7.39518    -0.03479    -2.06830
    25  H   1.0    0.11    1.00    1.43    -5.61580    -0.37350     0.41297
    26  H   1.0    0.10    0.99    1.43    -6.65323    -2.84827    -1.08265

  Z AO/shell   Hii/eV     exponent
  1     Wed Apr 25 08:07:45 CEST 2018   EN: 2.200 GM2: 0.406  GM3: 0.0800  RAES: 1.40
     1s    -10.707211    1.230000
  7     Wed Apr 25 08:07:45 CEST 2018   EN: 3.040 GM2: 0.461  GM3:-0.0640  RAES: 1.90
     2s    -16.686243    2.339881
     2p    -12.523956    2.014332
  8     Wed Apr 25 08:07:45 CEST 2018   EN: 3.440 GM2: 0.452  GM3:-0.0517  RAES: 1.80
     2s    -20.229985    2.439742
     2p    -15.503117    2.137023
 16     Tue Apr 24 11:44:34 CEST 2018   EN: 2.580 GM2: 0.340  GM3:-0.0502  RAES: 3.10
     3s    -20.029654    1.981333
     3p    -11.377694    2.025643
     3d     -0.420282    1.702555
 no old-style atom pair restraining (fixing) potential

molecular fragmentation (1/2 indicates fragments):
11111112222222222222222222
# atoms in fragment 1/2:     7    19
 fragment masses (1/2) :       98.07      107.11
CMA distance (Bohr)    :   7.057
constraining FC (au)   :  0.0500
           ------------------------------------------------- 
          |        Self-Consistent Charge Iterations        |
           ------------------------------------------------- 

 Ncao       : 65
 Nao        : 64
 Nshell     : 38
 Nel        : 80
 T(el)      :   300.0
 intcut     :    25.0
 scfconv/Eh :  0.100E-05
   qconv/e  :  0.100E-03
 intneglect :  0.100E-07
 broydamp   :      0.250
 iter      E             dE          RMSdq      gap      omega  full diag
   1    -50.5313104 -0.505313E+02  0.707E+00    8.09       0.0  T
   2    -50.5804758 -0.491655E-01  0.498E+00    7.40       1.0  T
   3    -50.6187750 -0.382991E-01  0.119E+00    5.51       1.0  T
   4    -50.6228274 -0.405248E-02  0.631E-01    5.75       1.0  T
   5    -50.6240590 -0.123159E-02  0.279E-01    5.81       1.0  T
   6    -50.6244320 -0.372997E-03  0.158E-01    5.84       1.0  T
   7    -50.6245851 -0.153106E-03  0.520E-02    5.83       1.0  T
   8    -50.6246018 -0.167178E-04  0.248E-02    5.82       1.0  T
   9    -50.6246049 -0.300573E-05  0.126E-02    5.83       1.6  T
  10    -50.6246056 -0.781366E-06  0.284E-03    5.83       6.9  T
  11    -50.6246057 -0.307316E-07  0.125E-03    5.83      15.7  T
  12    -50.6246057 -0.486554E-08  0.473E-04    5.83      41.4  T
  13    -50.6246057 -0.972683E-09  0.195E-04    5.83     100.4  T
speedup  1.02
cpu  time for SCC    0.02 s
wall time for SCC    0.02 s

   *** convergence criteria satisfied after 13 iterations ***

          eigenvalues
 #    :          28         29         30         31         32         33         34         35
 occ. :        2.000      2.000      2.000      2.000      2.000      2.000      2.000      2.000
 eps  :       -12.682    -12.639    -12.379    -12.339    -12.139    -12.103    -11.918    -11.857
 #    :          36         37         38         39         40         41         42         43
 occ. :        2.000      2.000      2.000      2.000      2.000      0.000      0.000      0.000
 eps  :       -11.702    -10.390    -10.170    -10.048    -10.017     -4.184     -1.392     -0.853
 #    :          44         45         46         47         48         49         50         51
 occ. :        0.000      0.000      0.000      0.000      0.000      0.000      0.000      0.000
 eps  :        -0.267      0.551      1.307      2.071      2.315      4.054      4.434      4.785


   #   Z            q   n(s)   n(p)   n(d)      C6AA      α(0)
   1  16 S      1.627  1.632  1.811  0.930    90.445    16.006
   2   8 O     -0.685  1.757  4.928  0.000    28.311     7.134
   3   8 O     -0.630  1.773  4.857  0.000    26.857     6.948
   4   8 O     -0.592  1.764  4.828  0.000    24.959     6.744
   5   8 O     -0.594  1.760  4.835  0.000    25.024     6.753
   6   1 H      0.379  0.621  0.000  0.000     0.522     1.134
   7   1 H      0.371  0.629  0.000  0.000     0.539     1.152
   8   8 O     -0.866  1.844  5.022  0.000    33.635     7.777
   9   1 H      0.201  0.799  0.000  0.000     1.113     1.657
  10   8 O     -0.868  1.825  5.042  0.000    33.671     7.781
  11   1 H      0.199  0.801  0.000  0.000     1.125     1.667
  12   8 O     -0.660  1.745  4.916  0.000    26.673     6.971
  13   1 H      0.274  0.726  0.000  0.000     0.806     1.410
  14   1 H      0.349  0.651  0.000  0.000     0.587     1.202
  15   8 O     -0.482  1.670  4.812  0.000    22.454     6.400
  16   1 H      0.399  0.601  0.000  0.000     0.480     1.086
  17   1 H      0.399  0.601  0.000  0.000     0.482     1.088
  18   1 H      0.362  0.638  0.000  0.000     0.562     1.178
  19   8 O     -0.444  1.653  4.791  0.000    21.663     6.286
  20   1 H      0.402  0.598  0.000  0.000     0.482     1.090
  21   1 H      0.410  0.590  0.000  0.000     0.462     1.064
  22   1 H      0.401  0.599  0.000  0.000     0.483     1.092
  23   7 N     -0.443  1.383  4.060  0.000    31.616     8.351
  24   1 H      0.153  0.847  0.000  0.000     1.381     1.841
  25   1 H      0.185  0.815  0.000  0.000     1.185     1.705
  26   1 H      0.154  0.846  0.000  0.000     1.371     1.834

 Mol. C6AA /au·bohr⁶  :       5524.520509
 Mol. C8AA /au·bohr⁸  :     119437.130195
 Mol. α(0) /au        :        107.352508

 
 Wiberg/Mayer (AO) data. WBOs > 0.1 written file <wbo>
 largest (>0.05) Wiberg bond orders for each atom
           total WBO             WBO to atom ...
     1  S   4.785    O    3 1.479    O    2 1.367    O    5 0.983    O    4 0.924
     2  O   1.753    S    1 1.367    O    3 0.134    O    4 0.097    O    5 0.095
     3  O   1.812    S    1 1.479    O    2 0.134    O    4 0.097    O    5 0.087
     4  O   1.977    S    1 0.924    H    7 0.762    O    3 0.097    O    2 0.097    O    5 0.059
     5  O   1.989    S    1 0.983    H    6 0.708    O    2 0.095    O    3 0.087    O    4 0.059
     6  H   0.856    O    5 0.708    O    8 0.129
     7  H   0.862    O    4 0.762    O   10 0.084
     8  O   1.574    H    9 0.951    H   16 0.183    H   14 0.138    H    6 0.129    O   15 0.059    O   12 0.054
     9  H   0.959    O    8 0.951
    10  O   1.562    H   11 0.946    H   21 0.195    H   17 0.172    H    7 0.084    O   19 0.060    O   15 0.056
    11  H   0.960    O   10 0.946
    12  O   1.841    H   13 0.914    H   14 0.737    H   20 0.078    O    8 0.054
    13  H   0.925    O   12 0.914
    14  H   0.878    O   12 0.737    O    8 0.138
    15  O   2.258    H   18 0.779    H   17 0.662    H   16 0.652    O    8 0.059    O   10 0.056
    16  H   0.841    O   15 0.652    O    8 0.183
    17  H   0.841    O   15 0.662    O   10 0.172
    18  H   0.869    O   15 0.779    N   23 0.083
    19  O   2.297    H   22 0.786    H   20 0.754    H   21 0.633    O   10 0.060
    20  H   0.839    O   19 0.754    O   12 0.078
    21  H   0.832    O   19 0.633    O   10 0.195
    22  H   0.839    O   19 0.786
    23  N   3.025    H   24 0.973    H   26 0.972    H   25 0.949    H   18 0.083
    24  H   0.977    N   23 0.973
    25  H   0.966    N   23 0.949
    26  H   0.976    N   23 0.972
 MOs/occ written to file <molden.input>
 
molecular dipole:
                 x           y           z       tot (Debye)
 q only:       -3.485      -1.253       0.824
   full:       -4.009      -0.978       1.000      10.791
molecular quadrupole (traceless):
                xx          xy          yy          xz          yz          zz
 q only:      -11.682      -8.167       2.542       4.461      -0.148       9.140
  q+dip:       -9.523     -10.870       5.467       3.031       3.412       4.056
   full:       -9.944     -11.103       6.296       3.093       3.721       3.648

SCC energy    :     -50.6246057
rep           :       0.2714221
ES            :       0.2901891
AES           :      -0.0537492
AXC           :      -0.0038739
disp          :      -0.0188453
XB            :       0.0000000
fix           :       0.0000000
total E       :     -50.3529057
atomizationE  :       4.8832098     3064.26
(atE without considering molecular charge,
 total energy contains solvation terms)
H-L gap (eV)  :          5.8330
           ------------------------------------------------- 
          |                 ===============                 |
          |                   A N C O P T                   |
          |                 ===============                 |
          |          Approximate Normal Coordinate          |
          |           Rational Function Optimizer           |
           ------------------------------------------------- 
dumping coords to <xtbopt.coord> and <xtbopt.log>
 optlevel               2
 Maxcycle             520
 Maxmicro              25
 Econv         1.000000000000000E-007
 Gconv         2.000000000000000E-004
 Maxdispl       1.00000000000000     
 Hlow          5.000000000000000E-003
 S6             20.0000000000000     
 Nvar               72

generating ANC from model Hessian ...
 Shifting diagonal of input Hessian by   5.029782002398922E-003
 Lowest  eigenvalues of input Hessian
    0.005000   -0.000000   -0.000000    0.000000    0.000000    0.000000
    0.000000    0.005292    0.005854    0.006141    0.006251    0.006627
    0.007204    0.008209    0.008396    0.008487    0.009661    0.011537
 Highest eigenvalues
    1.568747    1.584644    1.595421    1.950983    2.769458    3.591769
 
cpu  time for ANC gen    0.03 s
wall time for ANC gen    0.03 s
................................................................................
.............................. CYCLE    1 ......................................
................................................................................
   1    -50.6246057 -0.506246E+02  0.428E-05    5.83       0.0  T
   2    -50.6246057 -0.401457E-11  0.331E-05    5.83     593.1  T
   3    -50.6246057 -0.253664E-11  0.156E-05    5.83    1254.5  T
speedup  0.88
cpu  time for SCC    0.00 s
wall time for SCC    0.00 s
speedup  0.95
cpu  time for grad    0.01 s
wall time for grad    0.01 s
 E :    -50.35290566  G :  0.194662    pred/act E change:  0.000D+00  0.275D-07
Maxdispl :   0.1371   ||displ|| :   0.3167   Lambda : -0.389D-01
Largest |displ|/coords:  0.1371 (  20)  0.0896 (  54)  0.0776 (  34)
................................................................................
.............................. CYCLE    2 ......................................
................................................................................
   1    -50.6408196 -0.506408E+02  0.381E-01    6.64       0.0  T
   2    -50.6410649 -0.245325E-03  0.281E-01    6.70       1.0  T
   3    -50.6411838 -0.118941E-03  0.754E-02    6.82       1.0  T
   4    -50.6412013 -0.174606E-04  0.269E-02    6.82       1.0  T
   5    -50.6412034 -0.215276E-05  0.714E-03    6.81       2.7  T
   6    -50.6412036 -0.103901E-06  0.375E-03    6.81       5.2  T
   7    -50.6412036 -0.232613E-07  0.147E-03    6.81      13.4  T
speedup  1.00
cpu  time for SCC    0.01 s
wall time for SCC    0.01 s
speedup  0.99
cpu  time for grad    0.01 s
wall time for grad    0.02 s
 E :    -50.38337421  G :  0.111902    pred/act E change:  0.000D+00 -0.305D-01
Maxdispl :   0.1525   ||displ|| :   0.3398   Lambda : -0.188D-01
Largest |displ|/coords:  0.1525 (  20)  0.1147 (  31)  0.0890 (  25)
................................................................................
.............................. CYCLE    3 ......................................
................................................................................
   1    -50.6491408 -0.506491E+02  0.343E-01    7.43       0.0  T
   2    -50.6494441 -0.303365E-03  0.248E-01    7.51       1.0  T
   3    -50.6495768 -0.132625E-03  0.765E-02    7.64       1.0  T
   4    -50.6495943 -0.175378E-04  0.196E-02    7.63       1.0  T
   5    -50.6495952 -0.899414E-06  0.533E-03    7.63       3.7  T
   6    -50.6495953 -0.520939E-07  0.304E-03    7.63       6.5  T
speedup  0.97
cpu  time for SCC    0.01 s
wall time for SCC    0.01 s
speedup  1.04
cpu  time for grad    0.01 s
wall time for grad    0.01 s
 E :    -50.39894853  G :  0.073875    pred/act E change: -0.214D-01 -0.156D-01
Maxdispl :   0.1531   ||displ|| :   0.3512   Lambda : -0.107D-01
Largest |displ|/coords:  0.1531 (  20)  0.1186 (  31)  0.1075 (   7)
................................................................................
.............................. CYCLE    4 ......................................
................................................................................
   1    -50.6533485 -0.506533E+02  0.295E-01    8.06       0.0  T
   2    -50.6536453 -0.296775E-03  0.209E-01    8.13       1.0  T
   3    -50.6537721 -0.126789E-03  0.725E-02    8.24       1.0  T
   4    -50.6537844 -0.123533E-04  0.150E-02    8.23       1.3  T
   5    -50.6537849 -0.449628E-06  0.485E-03    8.23       4.0  T
   6    -50.6537849 -0.350763E-07  0.264E-03    8.23       7.4  T
speedup  1.02
cpu  time for SCC    0.01 s
wall time for SCC    0.01 s
speedup  0.97
cpu  time for grad    0.01 s
wall time for grad    0.01 s
 E :    -50.40768700  G :  0.052040    pred/act E change: -0.105D-01 -0.874D-02
Maxdispl :   0.1747   ||displ|| :   0.3304   Lambda : -0.573D-02
Largest |displ|/coords:  0.1747 (   7)  0.1189 (  20)  0.0895 (  31)
................................................................................
.............................. CYCLE    5 ......................................
................................................................................
   1    -50.6566016 -0.506566E+02  0.218E-01    8.49       0.0  T
   2    -50.6567821 -0.180470E-03  0.153E-01    8.53       1.0  T
   3    -50.6568588 -0.766805E-04  0.561E-02    8.61       1.0  T
   4    -50.6568655 -0.672163E-05  0.125E-02    8.61       1.6  T
   5    -50.6568658 -0.327615E-06  0.420E-03    8.61       4.7  T
   6    -50.6568659 -0.251555E-07  0.227E-03    8.61       8.6  T
speedup  1.02
cpu  time for SCC    0.01 s
wall time for SCC    0.01 s
speedup  0.99
cpu  time for grad    0.01 s
wall time for grad    0.01 s
 E :    -50.41237066  G :  0.039296    pred/act E change: -0.600D-02 -0.468D-02
Maxdispl :   0.2212   ||displ|| :   0.4643   Lambda : -0.638D-02
Largest |displ|/coords:  0.2212 (   7)  0.1399 (   2)  0.1355 (  10)
................................................................................
.............................. CYCLE    6 ......................................
................................................................................
   1    -50.6599411 -0.506599E+02  0.352E-01    8.91       0.0  T
   2    -50.6603559 -0.414834E-03  0.250E-01    8.97       1.0  T
   3    -50.6605327 -0.176794E-03  0.883E-02    9.04       1.0  T
   4    -50.6605529 -0.202156E-04  0.198E-02    9.03       1.0  T
   5    -50.6605537 -0.771008E-06  0.731E-03    9.03       2.7  T
   6    -50.6605538 -0.714901E-07  0.389E-03    9.03       5.0  T
   7    -50.6605538 -0.245500E-07  0.133E-03    9.03      14.7  T
speedup  1.04
cpu  time for SCC    0.01 s
wall time for SCC    0.01 s
speedup  0.99
cpu  time for grad    0.01 s
wall time for grad    0.02 s
 E :    -50.41673496  G :  0.034916    pred/act E change: -0.318D-02 -0.436D-02
Maxdispl :   0.2316   ||displ|| :   0.4965   Lambda : -0.466D-02
Largest |displ|/coords:  0.2316 (   7)  0.1906 (   2)  0.1599 (  12)
................................................................................
.............................. CYCLE    7 ......................................
................................................................................
   1    -50.6598637 -0.506599E+02  0.402E-01    9.09       0.0  T
   2    -50.6601851 -0.321361E-03  0.294E-01    9.09       1.0  T
   3    -50.6603298 -0.144784E-03  0.929E-02    9.07       1.0  T
   4    -50.6603581 -0.282142E-04  0.229E-02    9.06       1.0  T
   5    -50.6603593 -0.126387E-05  0.825E-03    9.07       2.4  T
   6    -50.6603594 -0.649755E-07  0.426E-03    9.07       4.6  T
   7    -50.6603594 -0.249096E-07  0.128E-03    9.07      15.3  T
speedup  0.95
cpu  time for SCC    0.01 s
wall time for SCC    0.01 s
speedup  0.96
cpu  time for grad    0.01 s
wall time for grad    0.02 s
 E :    -50.41859116  G :  0.057211    pred/act E change: -0.388D-02 -0.186D-02
Maxdispl :   0.1541   ||displ|| :   0.3558   Lambda : -0.845D-02
Largest |displ|/coords:  0.1541 (  11)  0.1202 (  18)  0.1105 (   7)
................................................................................
.............................. CYCLE    8 ......................................
................................................................................
   1    -50.6776840 -0.506777E+02  0.428E-01    9.05       0.0  T
   2    -50.6778559 -0.171963E-03  0.320E-01    9.06       1.0  T
   3    -50.6779617 -0.105830E-03  0.724E-02    9.06       1.0  T
   4    -50.6779845 -0.227468E-04  0.129E-02    9.06       1.5  T
   5    -50.6779848 -0.276491E-06  0.746E-03    9.06       2.6  T
   6    -50.6779848 -0.421480E-07  0.223E-03    9.06       8.8  T
   7    -50.6779848 -0.175222E-07  0.695E-04    9.06      28.2  T
speedup  0.91
cpu  time for SCC    0.01 s
wall time for SCC    0.01 s
speedup  0.94
cpu  time for grad    0.01 s
wall time for grad    0.02 s
 E :    -50.41966210  G :  0.079512    pred/act E change: -0.290D-02 -0.107D-02
Maxdispl :   0.1344   ||displ|| :   0.3602   Lambda : -0.103D-01
Largest |displ|/coords:  0.1344 (   2)  0.1284 (   3)  0.1220 (  17)
................................................................................
.............................. CYCLE    9 ......................................
................................................................................
   1    -50.6673676 -0.506674E+02  0.434E-01    9.03       0.0  T
   2    -50.6675469 -0.179322E-03  0.323E-01    9.03       1.0  T
   3    -50.6676614 -0.114438E-03  0.752E-02    9.03       1.0  T
   4    -50.6676834 -0.220080E-04  0.153E-02    9.03       1.3  T
   5    -50.6676836 -0.183425E-06  0.747E-03    9.03       2.6  T
   6    -50.6676837 -0.148048E-06  0.238E-03    9.03       8.3  T
   7    -50.6676837 -0.121440E-07  0.819E-04    9.03      23.9  T
speedup  1.06
cpu  time for SCC    0.01 s
wall time for SCC    0.01 s
speedup  1.00
cpu  time for grad    0.01 s
wall time for grad    0.01 s
 E :    -50.42210251  G :  0.069938    pred/act E change: -0.476D-02 -0.244D-02
Maxdispl :   0.1503   ||displ|| :   0.4207   Lambda : -0.106D-01
Largest |displ|/coords:  0.1503 (   8)  0.1486 (   5)  0.1292 (   7)
................................................................................
.............................. CYCLE   10 ......................................
................................................................................
   1    -50.6867933 -0.506868E+02  0.408E-01    9.06       0.0  T
   2    -50.6869626 -0.169365E-03  0.303E-01    9.05       1.0  T
   3    -50.6870772 -0.114609E-03  0.689E-02    9.05       1.0  T
   4    -50.6870972 -0.199584E-04  0.171E-02    9.05       1.1  T
   5    -50.6870976 -0.399922E-06  0.818E-03    9.05       2.4  T
   6    -50.6870977 -0.609321E-07  0.293E-03    9.05       6.7  T
   7    -50.6870977 -0.176638E-07  0.786E-04    9.05      25.0  T
speedup  1.01
cpu  time for SCC    0.01 s
wall time for SCC    0.01 s
speedup  1.06
cpu  time for grad    0.02 s
wall time for grad    0.02 s
 E :    -50.42458901  G :  0.069340    pred/act E change: -0.581D-02 -0.249D-02
Maxdispl :   0.1340   ||displ|| :   0.3343   Lambda : -0.671D-02
Largest |displ|/coords:  0.1340 (  10)  0.1121 (   5)  0.1116 (   2)
................................................................................
.............................. CYCLE   11 ......................................
................................................................................
   1    -50.6844857 -0.506845E+02  0.299E-01    9.03       0.0  T
   2    -50.6845387 -0.530159E-04  0.223E-01    9.03       1.0  T
   3    -50.6845771 -0.384208E-04  0.397E-02    9.04       1.0  T
   4    -50.6845840 -0.692186E-05  0.111E-02    9.04       1.8  T
   5    -50.6845842 -0.168511E-06  0.506E-03    9.04       3.9  T
   6    -50.6845842 -0.436629E-07  0.209E-03    9.04       9.4  T
speedup  1.00
cpu  time for SCC    0.01 s
wall time for SCC    0.01 s
speedup  0.98
cpu  time for grad    0.01 s
wall time for grad    0.01 s
 E :    -50.42806725  G :  0.043499    pred/act E change: -0.623D-02 -0.348D-02
Maxdispl :   0.1177   ||displ|| :   0.2577   Lambda : -0.323D-02
Largest |displ|/coords:  0.1177 (   2)  0.0989 (   7)  0.0786 (   8)
................................................................................
.............................. CYCLE   12 ......................................
................................................................................
   1    -50.6922188 -0.506922E+02  0.163E-01    9.02       0.0  T
   2    -50.6922701 -0.512663E-04  0.121E-01    9.02       1.0  T
   3    -50.6923007 -0.305869E-04  0.363E-02    9.03       1.0  T
   4    -50.6923065 -0.586581E-05  0.885E-03    9.03       2.2  T
   5    -50.6923066 -0.104055E-06  0.378E-03    9.03       5.2  T
   6    -50.6923066 -0.129239E-07  0.160E-03    9.03      12.2  T
speedup  1.07
cpu  time for SCC    0.01 s
wall time for SCC    0.01 s
speedup  0.99
cpu  time for grad    0.01 s
wall time for grad    0.01 s
 E :    -50.43091456  G :  0.043298    pred/act E change: -0.373D-02 -0.285D-02
Maxdispl :   0.2410   ||displ|| :   0.6122   Lambda : -0.108D-01
Largest |displ|/coords:  0.2410 (  27)  0.1939 (  28)  0.1524 (  49)
................................................................................
.............................. CYCLE   13 ......................................
................................................................................
   1    -50.7283479 -0.507283E+02  0.403E-01    8.97       0.0  T
   2    -50.7286369 -0.288977E-03  0.299E-01    8.99       1.0  T
   3    -50.7288303 -0.193461E-03  0.874E-02    8.95       1.0  T
   4    -50.7288634 -0.330601E-04  0.250E-02    8.95       1.0  T
   5    -50.7288644 -0.949714E-06  0.106E-02    8.96       1.8  T
   6    -50.7288644 -0.947502E-07  0.448E-03    8.96       4.4  T
   7    -50.7288645 -0.398385E-07  0.123E-03    8.96      15.9  T
speedup  1.03
cpu  time for SCC    0.01 s
wall time for SCC    0.01 s
speedup  1.01
cpu  time for grad    0.01 s
wall time for grad    0.01 s
 E :    -50.43695283  G :  0.045250    pred/act E change: -0.172D-02 -0.604D-02
Maxdispl :   0.1427   ||displ|| :   0.3451   Lambda : -0.356D-02
Largest |displ|/coords:  0.1427 (  13)  0.1070 (  22)  0.1039 (   2)
................................................................................
.............................. CYCLE   14 ......................................
................................................................................
   1    -50.7246110 -0.507246E+02  0.199E-01    8.82       0.0  T
   2    -50.7246379 -0.269993E-04  0.147E-01    8.80       1.0  T
   3    -50.7246561 -0.181416E-04  0.308E-02    8.75       1.0  T
   4    -50.7246589 -0.280106E-05  0.781E-03    8.75       2.5  T
   5    -50.7246590 -0.140779E-06  0.343E-03    8.75       5.7  T
   6    -50.7246590 -0.166137E-07  0.187E-03    8.75      10.5  T
speedup  1.07
cpu  time for SCC    0.01 s
wall time for SCC    0.01 s
speedup  1.02
cpu  time for grad    0.01 s
wall time for grad    0.01 s
 E :    -50.43950654  G :  0.033404    pred/act E change: -0.744D-02 -0.255D-02
Maxdispl :   0.1627   ||displ|| :   0.3865   Lambda : -0.380D-02
Largest |displ|/coords:  0.1627 (  13)  0.1162 (  16)  0.0954 (  28)
................................................................................
.............................. CYCLE   15 ......................................
................................................................................
   1    -50.7313702 -0.507314E+02  0.214E-01    8.73       0.0  T
   2    -50.7313956 -0.253812E-04  0.155E-01    8.70       1.0  T
   3    -50.7314157 -0.201351E-04  0.330E-02    8.62       1.0  T
   4    -50.7314182 -0.249291E-05  0.116E-02    8.62       1.7  T
   5    -50.7314184 -0.220915E-06  0.369E-03    8.62       5.3  T
   6    -50.7314185 -0.194995E-07  0.229E-03    8.62       8.6  T
speedup  1.02
cpu  time for SCC    0.01 s
wall time for SCC    0.01 s
speedup  1.01
cpu  time for grad    0.01 s
wall time for grad    0.01 s
 E :    -50.44132888  G :  0.028351    pred/act E change: -0.199D-02 -0.182D-02
Maxdispl :   0.1764   ||displ|| :   0.3731   Lambda : -0.224D-02
Largest |displ|/coords:  0.1764 (  13)  0.1005 (  27)  0.1000 (  10)
................................................................................
.............................. CYCLE   16 ......................................
................................................................................
   1    -50.7364428 -0.507364E+02  0.260E-01    8.65       0.0  T
   2    -50.7365295 -0.866560E-04  0.194E-01    8.63       1.0  T
   3    -50.7365833 -0.538542E-04  0.508E-02    8.58       1.0  T
   4    -50.7365935 -0.101809E-04  0.120E-02    8.58       1.6  T
   5    -50.7365937 -0.176308E-06  0.523E-03    8.58       3.7  T
   6    -50.7365937 -0.301884E-07  0.248E-03    8.58       7.9  T
speedup  0.89
cpu  time for SCC    0.01 s
wall time for SCC    0.01 s
speedup  0.94
cpu  time for grad    0.01 s
wall time for grad    0.01 s
 E :    -50.44153670  G :  0.032981    pred/act E change: -0.218D-02 -0.208D-03
Maxdispl :   0.0847   ||displ|| :   0.1674   Lambda : -0.196D-02
Largest |displ|/coords:  0.0847 (   7)  0.0639 (  26)  0.0539 (   1)
................................................................................
.............................. CYCLE   17 ......................................
................................................................................
   1    -50.7307100 -0.507307E+02  0.113E-01    8.55       0.0  T
   2    -50.7307230 -0.129837E-04  0.835E-02    8.56       1.0  T
   3    -50.7307360 -0.130233E-04  0.214E-02    8.59       1.0  T
   4    -50.7307372 -0.114331E-05  0.612E-03    8.58       3.2  T
   5    -50.7307372 -0.593180E-07  0.220E-03    8.58       8.9  T
   6    -50.7307372 -0.718216E-08  0.995E-04    8.58      19.7  T
speedup  1.03
cpu  time for SCC    0.01 s
wall time for SCC    0.01 s
speedup  1.01
cpu  time for grad    0.01 s
wall time for grad    0.01 s
 E :    -50.44243387  G :  0.017326    pred/act E change: -0.128D-02 -0.897D-03
Maxdispl :   0.0573   ||displ|| :   0.1303   Lambda : -0.662D-03
Largest |displ|/coords:  0.0573 (   7)  0.0462 (   8)  0.0391 (   9)
................................................................................
.............................. CYCLE   18 ......................................
................................................................................
   1    -50.7350711 -0.507351E+02  0.924E-02    8.57       0.0  T
   2    -50.7350773 -0.623047E-05  0.680E-02    8.57       1.0  T
   3    -50.7350813 -0.397992E-05  0.139E-02    8.56       1.4  T
   4    -50.7350820 -0.709832E-06  0.334E-03    8.56       5.9  T
   5    -50.7350820 -0.155470E-07  0.145E-03    8.56      13.5  T
   6    -50.7350821 -0.218068E-08  0.649E-04    8.56      30.2  T
speedup  0.89
cpu  time for SCC    0.00 s
wall time for SCC    0.01 s
speedup  0.95
cpu  time for grad    0.01 s
wall time for grad    0.01 s
 E :    -50.44274454  G :  0.013923    pred/act E change: -0.101D-02 -0.311D-03
Maxdispl :   0.0724   ||displ|| :   0.1355   Lambda : -0.450D-03
Largest |displ|/coords:  0.0724 (  16)  0.0480 (   1)  0.0455 (   2)
................................................................................
.............................. CYCLE   19 ......................................
................................................................................
   1    -50.7349448 -0.507349E+02  0.818E-02    8.60       0.0  T
   2    -50.7349479 -0.315778E-05  0.604E-02    8.60       1.0  T
   3    -50.7349498 -0.185848E-05  0.116E-02    8.60       1.7  T
   4    -50.7349501 -0.372913E-06  0.294E-03    8.60       6.7  T
   5    -50.7349502 -0.150036E-07  0.102E-03    8.60      19.3  T
speedup  0.94
cpu  time for SCC    0.00 s
wall time for SCC    0.01 s
speedup  0.96
cpu  time for grad    0.01 s
wall time for grad    0.01 s
 E :    -50.44305416  G :  0.010021    pred/act E change: -0.337D-03 -0.310D-03
Maxdispl :   0.1377   ||displ|| :   0.2709   Lambda : -0.590D-03
Largest |displ|/coords:  0.1377 (   1)  0.1157 (   2)  0.0816 (   8)
................................................................................
.............................. CYCLE   20 ......................................
................................................................................
   1    -50.7347800 -0.507348E+02  0.146E-01    8.60       0.0  T
   2    -50.7347945 -0.144591E-04  0.106E-01    8.60       1.0  T
   3    -50.7348040 -0.949074E-05  0.248E-02    8.60       1.0  T
   4    -50.7348055 -0.150164E-05  0.702E-03    8.59       2.8  T
   5    -50.7348055 -0.815329E-07  0.246E-03    8.59       8.0  T
   6    -50.7348056 -0.941650E-08  0.139E-03    8.59      14.1  T
speedup  1.02
cpu  time for SCC    0.01 s
wall time for SCC    0.01 s
speedup  1.00
cpu  time for grad    0.01 s
wall time for grad    0.01 s
 E :    -50.44332040  G :  0.010575    pred/act E change: -0.229D-03 -0.266D-03
Maxdispl :   0.0645   ||displ|| :   0.1199   Lambda : -0.249D-03
Largest |displ|/coords:  0.0645 (   2)  0.0551 (   1)  0.0318 (   3)
................................................................................
.............................. CYCLE   21 ......................................
................................................................................
   1    -50.7344359 -0.507344E+02  0.693E-02    8.55       0.0  T
   2    -50.7344382 -0.235890E-05  0.509E-02    8.55       1.0  T
   3    -50.7344400 -0.179077E-05  0.103E-02    8.54       1.9  T
   4    -50.7344403 -0.241989E-06  0.270E-03    8.54       7.3  T
   5    -50.7344403 -0.127332E-07  0.985E-04    8.54      19.9  T
speedup  0.98
cpu  time for SCC    0.01 s
wall time for SCC    0.01 s
speedup  0.99
cpu  time for grad    0.01 s
wall time for grad    0.01 s
 E :    -50.44345168  G :  0.009574    pred/act E change: -0.317D-03 -0.131D-03
Maxdispl :   0.0666   ||displ|| :   0.1470   Lambda : -0.276D-03
Largest |displ|/coords:  0.0666 (   2)  0.0591 (   1)  0.0591 (  13)
................................................................................
.............................. CYCLE   22 ......................................
................................................................................
   1    -50.7347604 -0.507348E+02  0.831E-02    8.53       0.0  T
   2    -50.7347641 -0.368355E-05  0.618E-02    8.53       1.0  T
   3    -50.7347661 -0.207283E-05  0.118E-02    8.53       1.7  T
   4    -50.7347666 -0.495547E-06  0.417E-03    8.53       4.7  T
   5    -50.7347667 -0.316723E-07  0.125E-03    8.53      15.7  T
   6    -50.7347667 -0.189434E-08  0.663E-04    8.53      29.6  T
speedup  0.98
cpu  time for SCC    0.01 s
wall time for SCC    0.01 s
speedup  0.99
cpu  time for grad    0.01 s
wall time for grad    0.01 s
 E :    -50.44361559  G :  0.008412    pred/act E change: -0.126D-03 -0.164D-03
Maxdispl :   0.0883   ||displ|| :   0.1501   Lambda : -0.181D-03
Largest |displ|/coords:  0.0883 (   2)  0.0786 (   1)  0.0406 (   3)
................................................................................
.............................. CYCLE   23 ......................................
................................................................................
   1    -50.7351396 -0.507351E+02  0.735E-02    8.48       0.0  T
   2    -50.7351420 -0.237147E-05  0.547E-02    8.48       1.0  T
   3    -50.7351436 -0.157998E-05  0.979E-03    8.46       2.0  T
   4    -50.7351439 -0.299040E-06  0.294E-03    8.46       6.7  T
   5    -50.7351439 -0.147995E-07  0.979E-04    8.47      20.0  T
speedup  1.00
cpu  time for SCC    0.00 s
wall time for SCC    0.01 s
speedup  1.06
cpu  time for grad    0.01 s
wall time for grad    0.01 s
 E :    -50.44373458  G :  0.005877    pred/act E change: -0.141D-03 -0.119D-03
Maxdispl :   0.0944   ||displ|| :   0.1635   Lambda : -0.139D-03
Largest |displ|/coords:  0.0944 (   2)  0.0832 (   1)  0.0624 (   3)
................................................................................
.............................. CYCLE   24 ......................................
................................................................................
   1    -50.7354799 -0.507355E+02  0.730E-02    8.45       0.0  T
   2    -50.7354822 -0.229198E-05  0.544E-02    8.44       1.0  T
   3    -50.7354836 -0.142631E-05  0.998E-03    8.43       2.0  T
   4    -50.7354839 -0.320974E-06  0.254E-03    8.43       7.7  T
   5    -50.7354839 -0.110187E-07  0.801E-04    8.43      24.5  T
speedup  1.00
cpu  time for SCC    0.00 s
wall time for SCC    0.01 s
speedup  0.99
cpu  time for grad    0.01 s
wall time for grad    0.01 s
 E :    -50.44381637  G :  0.006724    pred/act E change: -0.928D-04 -0.818D-04
Maxdispl :   0.1122   ||displ|| :   0.1737   Lambda : -0.118D-03
Largest |displ|/coords:  0.1122 (   1)  0.0905 (   2)  0.0615 (   3)
................................................................................
.............................. CYCLE   25 ......................................
................................................................................
   1    -50.7350392 -0.507350E+02  0.812E-02    8.42       0.0  T
   2    -50.7350414 -0.217007E-05  0.606E-02    8.43       1.0  T
   3    -50.7350430 -0.156709E-05  0.834E-03    8.43       2.4  T
   4    -50.7350433 -0.310339E-06  0.285E-03    8.43       6.9  T
   5    -50.7350433 -0.953339E-08  0.100E-03    8.43      19.6  T
speedup  0.67
cpu  time for SCC    0.00 s
wall time for SCC    0.01 s
speedup  0.85
cpu  time for grad    0.01 s
wall time for grad    0.01 s
 E :    -50.44388275  G :  0.007657    pred/act E change: -0.714D-04 -0.664D-04
Maxdispl :   0.0809   ||displ|| :   0.1365   Lambda : -0.120D-03
Largest |displ|/coords:  0.0809 (   2)  0.0681 (   1)  0.0452 (   3)

generating ANC from model Hessian ...
 Shifting diagonal of input Hessian by   5.012530560019164E-003
 Lowest  eigenvalues of input Hessian
    0.005000   -0.000000   -0.000000    0.000000    0.000000    0.000000
    0.000000    0.005194    0.005476    0.005675    0.006054    0.006279
    0.006326    0.007392    0.007867    0.008265    0.008816    0.009660
 Highest eigenvalues
    1.386636    1.394209    1.413626    2.538165    3.187682    3.897027
 
cpu  time for ANC gen    0.02 s
wall time for ANC gen    0.02 s
................................................................................
.............................. CYCLE   26 ......................................
................................................................................
   1    -50.7360585 -0.507361E+02  0.592E-02    8.46       0.0  T
   2    -50.7360595 -0.975263E-06  0.447E-02    8.46       1.0  T
   3    -50.7360604 -0.908998E-06  0.565E-03    8.46       3.5  T
   4    -50.7360605 -0.109027E-06  0.240E-03    8.46       8.2  T
   5    -50.7360605 -0.857401E-08  0.678E-04    8.46      28.9  T
   6    -50.7360605 -0.694058E-09  0.396E-04    8.46      49.5  T
speedup  1.02
cpu  time for SCC    0.01 s
wall time for SCC    0.01 s
speedup  1.03
cpu  time for grad    0.01 s
wall time for grad    0.01 s
 E :    -50.44396315  G :  0.004874    pred/act E change:  0.000D+00 -0.804D-04
Maxdispl :   0.0746   ||displ|| :   0.1306   Lambda : -0.206D-03
Largest |displ|/coords:  0.0746 (   2)  0.0542 (   8)  0.0415 (  13)
................................................................................
.............................. CYCLE   27 ......................................
................................................................................
   1    -50.7364243 -0.507364E+02  0.118E-01    8.46       0.0  T
   2    -50.7364264 -0.215139E-05  0.894E-02    8.47       1.0  T
   3    -50.7364286 -0.219880E-05  0.724E-03    8.48       2.7  T
   4    -50.7364288 -0.205883E-06  0.259E-03    8.47       7.6  T
   5    -50.7364288 -0.521353E-08  0.104E-03    8.47      18.9  T
speedup  0.96
cpu  time for SCC    0.01 s
wall time for SCC    0.01 s
speedup  0.98
cpu  time for grad    0.01 s
wall time for grad    0.01 s
 E :    -50.44412807  G :  0.003770    pred/act E change:  0.000D+00 -0.165D-03
Maxdispl :   0.1900   ||displ|| :   0.3145   Lambda : -0.313D-03
Largest |displ|/coords:  0.1900 (   2)  0.1183 (   8)  0.1123 (  13)
................................................................................
.............................. CYCLE   28 ......................................
................................................................................
   1    -50.7345752 -0.507346E+02  0.247E-01    8.48       0.0  T
   2    -50.7345835 -0.833271E-05  0.186E-01    8.49       1.0  T
   3    -50.7345918 -0.824720E-05  0.156E-02    8.52       1.3  T
   4    -50.7345926 -0.818662E-06  0.523E-03    8.52       3.8  T
   5    -50.7345926 -0.217892E-07  0.227E-03    8.52       8.7  T
   6    -50.7345926 -0.561903E-08  0.999E-04    8.52      19.6  T
   7    -50.7345926 -0.167932E-08  0.191E-04    8.52     102.7  T
speedup  1.06
cpu  time for SCC    0.01 s
wall time for SCC    0.01 s
speedup  0.98
cpu  time for grad    0.01 s
wall time for grad    0.02 s
 E :    -50.44419566  G :  0.016918    pred/act E change: -0.105D-03 -0.676D-04
Maxdispl :   0.0372   ||displ|| :   0.0830   Lambda : -0.299D-03
Largest |displ|/coords:  0.0372 (   8)  0.0359 (  13)  0.0315 (  10)
................................................................................
.............................. CYCLE   29 ......................................
................................................................................
   1    -50.7365134 -0.507365E+02  0.903E-02    8.53       0.0  T
   2    -50.7365163 -0.298596E-05  0.682E-02    8.53       1.0  T
   3    -50.7365187 -0.234364E-05  0.952E-03    8.52       2.1  T
   4    -50.7365191 -0.402534E-06  0.214E-03    8.53       9.2  T
   5    -50.7365191 -0.435566E-08  0.116E-03    8.53      17.0  T
speedup  1.02
cpu  time for SCC    0.00 s
wall time for SCC    0.00 s
speedup  0.92
cpu  time for grad    0.01 s
wall time for grad    0.01 s
 E :    -50.44433268  G :  0.003639    pred/act E change: -0.172D-03 -0.137D-03
Maxdispl :   0.1092   ||displ|| :   0.1413   Lambda : -0.102D-03
Largest |displ|/coords:  0.1092 (   2)  0.0502 (   7)  0.0378 (   3)
................................................................................
.............................. CYCLE   30 ......................................
................................................................................
   1    -50.7361160 -0.507361E+02  0.842E-02    8.51       0.0  T
   2    -50.7361171 -0.107242E-05  0.639E-02    8.52       1.0  T
   3    -50.7361184 -0.127787E-05  0.508E-03    8.52       3.9  T
   4    -50.7361185 -0.676717E-07  0.244E-03    8.52       8.0  T
   5    -50.7361185 -0.447322E-08  0.602E-04    8.52      32.6  T
   6    -50.7361185 -0.413131E-09  0.369E-04    8.52      53.2  T
speedup  1.07
cpu  time for SCC    0.01 s
wall time for SCC    0.01 s
speedup  0.97
cpu  time for grad    0.01 s
wall time for grad    0.01 s
 E :    -50.44441510  G :  0.002732    pred/act E change: -0.151D-03 -0.824D-04
Maxdispl :   0.3744   ||displ|| :   0.4637   Lambda : -0.246D-03
Largest |displ|/coords:  0.3744 (   2)  0.1413 (   7)  0.1238 (   1)
................................................................................
.............................. CYCLE   31 ......................................
................................................................................
   1    -50.7324514 -0.507325E+02  0.256E-01    8.47       0.0  T
   2    -50.7324599 -0.856517E-05  0.193E-01    8.48       1.0  T
   3    -50.7324701 -0.101568E-04  0.155E-02    8.51       1.3  T
   4    -50.7324707 -0.563218E-06  0.622E-03    8.50       3.2  T
   5    -50.7324707 -0.398981E-07  0.212E-03    8.50       9.2  T
   6    -50.7324707 -0.712519E-08  0.119E-03    8.50      16.5  T
   7    -50.7324707 -0.182825E-08  0.270E-04    8.50      72.7  T
   8    -50.7324707 -0.235509E-09  0.830E-05    8.50     236.3  T
speedup  1.01
cpu  time for SCC    0.01 s
wall time for SCC    0.01 s
speedup  1.02
cpu  time for grad    0.02 s
wall time for grad    0.02 s
 E :    -50.44455788  G :  0.009950    pred/act E change: -0.522D-04 -0.143D-03
Maxdispl :   0.1344   ||displ|| :   0.1555   Lambda : -0.126D-03
Largest |displ|/coords:  0.1344 (   2)  0.0493 (   3)  0.0374 (   1)
................................................................................
.............................. CYCLE   32 ......................................
................................................................................
   1    -50.7338006 -0.507338E+02  0.643E-02    8.51       0.0  T
   2    -50.7338016 -0.981287E-06  0.485E-02    8.51       1.0  T
   3    -50.7338025 -0.899325E-06  0.538E-03    8.50       3.6  T
   4    -50.7338026 -0.115269E-06  0.165E-03    8.51      11.9  T
   5    -50.7338026 -0.431172E-08  0.683E-04    8.51      28.7  T
speedup  1.00
cpu  time for SCC    0.01 s
wall time for SCC    0.01 s
speedup  0.98
cpu  time for grad    0.01 s
wall time for grad    0.01 s
 E :    -50.44465104  G :  0.006347    pred/act E change: -0.149D-03 -0.932D-04
Maxdispl :   0.3142   ||displ|| :   0.3613   Lambda : -0.151D-03
Largest |displ|/coords:  0.3142 (   2)  0.1016 (   3)  0.0807 (   1)
................................................................................
.............................. CYCLE   33 ......................................
................................................................................
   1    -50.7335632 -0.507336E+02  0.164E-01    8.49       0.0  T
   2    -50.7335667 -0.342849E-05  0.124E-01    8.49       1.0  T
   3    -50.7335712 -0.457928E-05  0.895E-03    8.50       2.2  T
   4    -50.7335714 -0.132688E-06  0.320E-03    8.50       6.1  T
   5    -50.7335714 -0.166648E-07  0.131E-03    8.50      14.9  T
   6    -50.7335714 -0.356145E-08  0.804E-04    8.50      24.4  T
speedup  1.05
cpu  time for SCC    0.01 s
wall time for SCC    0.01 s
speedup  1.01
cpu  time for grad    0.01 s
wall time for grad    0.01 s
 E :    -50.44476402  G :  0.006490    pred/act E change: -0.644D-04 -0.113D-03
Maxdispl :   0.2624   ||displ|| :   0.3026   Lambda : -0.158D-03
Largest |displ|/coords:  0.2624 (   2)  0.1001 (   3)  0.0539 (   6)
................................................................................
.............................. CYCLE   34 ......................................
................................................................................
   1    -50.7359826 -0.507360E+02  0.135E-01    8.53       0.0  T
   2    -50.7359856 -0.297758E-05  0.102E-01    8.52       1.0  T
   3    -50.7359891 -0.351445E-05  0.883E-03    8.51       2.2  T
   4    -50.7359893 -0.222108E-06  0.325E-03    8.51       6.0  T
   5    -50.7359893 -0.132824E-07  0.134E-03    8.51      14.6  T
   6    -50.7359893 -0.287879E-08  0.588E-04    8.51      33.4  T
speedup  1.02
cpu  time for SCC    0.01 s
wall time for SCC    0.01 s
speedup  1.01
cpu  time for grad    0.01 s
wall time for grad    0.01 s
 E :    -50.44486735  G :  0.004030    pred/act E change: -0.853D-04 -0.103D-03
Maxdispl :   0.4322   ||displ|| :   0.5082   Lambda : -0.156D-03
Largest |displ|/coords:  0.4322 (   2)  0.1626 (   3)  0.0815 (   7)
................................................................................
.............................. CYCLE   35 ......................................
................................................................................
   1    -50.7324124 -0.507324E+02  0.265E-01    8.40       0.0  T
   2    -50.7324233 -0.109013E-04  0.201E-01    8.41       1.0  T
   3    -50.7324375 -0.142439E-04  0.157E-02    8.41       1.2  T
   4    -50.7324380 -0.510733E-06  0.561E-03    8.41       3.5  T
   5    -50.7324381 -0.375897E-07  0.242E-03    8.41       8.1  T
   6    -50.7324381 -0.112247E-07  0.130E-03    8.41      15.1  T
speedup  1.03
cpu  time for SCC    0.01 s
wall time for SCC    0.01 s
speedup  0.99
cpu  time for grad    0.01 s
wall time for grad    0.01 s
 E :    -50.44484401  G :  0.015697    pred/act E change: -0.865D-04  0.233D-04
Maxdispl :   0.1101   ||displ|| :   0.1412   Lambda : -0.288D-03
Largest |displ|/coords:  0.1101 (   2)  0.0576 (   1)  0.0385 (   3)
................................................................................
.............................. CYCLE   36 ......................................
................................................................................
   1    -50.7363793 -0.507364E+02  0.825E-02    8.47       0.0  T
   2    -50.7363821 -0.285135E-05  0.621E-02    8.47       1.0  T
   3    -50.7363845 -0.235759E-05  0.955E-03    8.45       2.1  T
   4    -50.7363848 -0.353356E-06  0.280E-03    8.46       7.0  T
   5    -50.7363848 -0.123774E-07  0.119E-03    8.46      16.5  T
speedup  1.00
cpu  time for SCC    0.01 s
wall time for SCC    0.00 s
speedup  0.97
cpu  time for grad    0.01 s
wall time for grad    0.01 s
 E :    -50.44498193  G :  0.004556    pred/act E change: -0.981D-04 -0.138D-03
Maxdispl :   0.0731   ||displ|| :   0.1015   Lambda : -0.597D-04
Largest |displ|/coords:  0.0731 (   2)  0.0388 (   3)  0.0300 (   8)
................................................................................
.............................. CYCLE   37 ......................................
................................................................................
   1    -50.7380392 -0.507380E+02  0.574E-02    8.49       0.0  T
   2    -50.7380398 -0.543330E-06  0.434E-02    8.49       1.0  T
   3    -50.7380403 -0.572399E-06  0.391E-03    8.48       5.0  T
   4    -50.7380404 -0.525842E-07  0.148E-03    8.48      13.3  T
   5    -50.7380404 -0.239235E-08  0.507E-04    8.48      38.6  T
speedup  1.02
cpu  time for SCC    0.00 s
wall time for SCC    0.00 s
speedup  1.05
cpu  time for grad    0.01 s
wall time for grad    0.01 s
 E :    -50.44502647  G :  0.003780    pred/act E change: -0.147D-03 -0.445D-04
Maxdispl :   0.3911   ||displ|| :   0.5064   Lambda : -0.165D-03
Largest |displ|/coords:  0.3911 (   2)  0.1662 (   3)  0.1487 (   7)
................................................................................
.............................. CYCLE   38 ......................................
................................................................................
   1    -50.7352901 -0.507353E+02  0.268E-01    8.42       0.0  T
   2    -50.7353008 -0.107104E-04  0.203E-01    8.43       1.0  T
   3    -50.7353127 -0.119165E-04  0.166E-02    8.44       1.2  T
   4    -50.7353136 -0.910448E-06  0.710E-03    8.43       2.8  T
   5    -50.7353136 -0.386317E-07  0.240E-03    8.43       8.2  T
   6    -50.7353136 -0.909613E-08  0.117E-03    8.43      16.8  T
   7    -50.7353136 -0.223817E-08  0.343E-04    8.43      57.1  T
   8    -50.7353136 -0.308177E-09  0.120E-04    8.43     163.5  T
speedup  1.07
cpu  time for SCC    0.01 s
wall time for SCC    0.01 s
speedup  0.99
cpu  time for grad    0.02 s
wall time for grad    0.02 s
 E :    -50.44505377  G :  0.010210    pred/act E change: -0.302D-04 -0.273D-04
Maxdispl :   0.0429   ||displ|| :   0.0760   Lambda : -0.182D-03
Largest |displ|/coords:  0.0429 (   6)  0.0418 (   7)  0.0264 (   4)
................................................................................
.............................. CYCLE   39 ......................................
................................................................................
   1    -50.7376937 -0.507377E+02  0.449E-02    8.44       0.0  T
   2    -50.7376952 -0.151490E-05  0.324E-02    8.44       1.0  T
   3    -50.7376956 -0.388300E-06  0.684E-03    8.43       2.9  T
   4    -50.7376958 -0.213952E-06  0.871E-04    8.43      22.5  T
   5    -50.7376958 -0.626670E-09  0.424E-04    8.43      46.3  T
speedup  0.80
cpu  time for SCC    0.00 s
wall time for SCC    0.00 s
speedup  0.98
cpu  time for grad    0.01 s
wall time for grad    0.01 s
 E :    -50.44512826  G :  0.005000    pred/act E change: -0.104D-03 -0.745D-04
Maxdispl :   0.0176   ||displ|| :   0.0456   Lambda : -0.612D-04
Largest |displ|/coords:  0.0176 (   7)  0.0145 (   2)  0.0141 (  10)
................................................................................
.............................. CYCLE   40 ......................................
................................................................................
   1    -50.7390431 -0.507390E+02  0.355E-02    8.51       0.0  T
   2    -50.7390436 -0.508036E-06  0.254E-02    8.51       1.0  T
   3    -50.7390440 -0.334702E-06  0.514E-03    8.51       3.8  T
   4    -50.7390440 -0.367916E-07  0.189E-03    8.51      10.4  T
   5    -50.7390440 -0.382475E-08  0.326E-04    8.51      60.2  T
speedup  0.78
cpu  time for SCC    0.00 s
wall time for SCC    0.01 s
speedup  0.91
cpu  time for grad    0.01 s
wall time for grad    0.01 s
 E :    -50.44516040  G :  0.003180    pred/act E change: -0.917D-04 -0.321D-04
Maxdispl :   0.2403   ||displ|| :   0.3186   Lambda : -0.832D-04
Largest |displ|/coords:  0.2403 (   2)  0.1020 (   3)  0.0885 (   7)
................................................................................
.............................. CYCLE   41 ......................................
................................................................................
   1    -50.7375356 -0.507375E+02  0.164E-01    8.48       0.0  T
   2    -50.7375392 -0.363554E-05  0.124E-01    8.49       1.0  T
   3    -50.7375438 -0.464628E-05  0.809E-03    8.49       2.4  T
   4    -50.7375440 -0.166860E-06  0.353E-03    8.49       5.6  T
   5    -50.7375440 -0.111513E-07  0.119E-03    8.49      16.4  T
   6    -50.7375440 -0.313879E-08  0.583E-04    8.49      33.7  T
   7    -50.7375440 -0.679620E-09  0.160E-04    8.49     122.6  T
speedup  1.03
cpu  time for SCC    0.01 s
wall time for SCC    0.01 s
speedup  1.01
cpu  time for grad    0.02 s
wall time for grad    0.02 s
 E :    -50.44522636  G :  0.004132    pred/act E change: -0.307D-04 -0.660D-04
Maxdispl :   0.2904   ||displ|| :   0.4179   Lambda : -0.101D-03
Largest |displ|/coords:  0.2904 (   2)  0.1403 (   3)  0.1325 (   5)
................................................................................
.............................. CYCLE   42 ......................................
................................................................................
   1    -50.7346724 -0.507347E+02  0.220E-01    8.41       0.0  T
   2    -50.7346791 -0.670978E-05  0.166E-01    8.41       1.0  T
   3    -50.7346876 -0.856473E-05  0.105E-02    8.42       1.9  T
   4    -50.7346879 -0.301796E-06  0.514E-03    8.42       3.8  T
   5    -50.7346880 -0.221556E-07  0.151E-03    8.42      12.9  T
   6    -50.7346880 -0.396606E-08  0.804E-04    8.42      24.4  T
speedup  1.03
cpu  time for SCC    0.01 s
wall time for SCC    0.01 s
speedup  0.99
cpu  time for grad    0.01 s
wall time for grad    0.01 s
 E :    -50.44526895  G :  0.007943    pred/act E change: -0.458D-04 -0.426D-04
Maxdispl :   0.0500   ||displ|| :   0.0700   Lambda : -0.952D-04
Largest |displ|/coords:  0.0500 (   2)  0.0169 (   6)  0.0168 (   1)
................................................................................
.............................. CYCLE   43 ......................................
................................................................................
   1    -50.7369550 -0.507370E+02  0.383E-02    8.48       0.0  T
   2    -50.7369558 -0.801265E-06  0.275E-02    8.47       1.0  T
   3    -50.7369564 -0.506030E-06  0.607E-03    8.47       3.2  T
   4    -50.7369564 -0.749771E-07  0.200E-03    8.48       9.8  T
   5    -50.7369564 -0.512547E-08  0.462E-04    8.48      42.5  T
speedup  1.02
cpu  time for SCC    0.00 s
wall time for SCC    0.00 s
speedup  0.98
cpu  time for grad    0.01 s
wall time for grad    0.01 s
 E :    -50.44532219  G :  0.003549    pred/act E change: -0.592D-04 -0.532D-04
Maxdispl :   0.1036   ||displ|| :   0.1954   Lambda : -0.734D-04
Largest |displ|/coords:  0.1036 (   2)  0.0682 (   5)  0.0674 (   8)
................................................................................
.............................. CYCLE   44 ......................................
................................................................................
   1    -50.7375253 -0.507375E+02  0.116E-01    8.52       0.0  T
   2    -50.7375275 -0.215946E-05  0.872E-02    8.51       1.0  T
   3    -50.7375300 -0.251834E-05  0.787E-03    8.51       2.5  T
   4    -50.7375301 -0.138929E-06  0.325E-03    8.52       6.0  T
   5    -50.7375301 -0.107171E-07  0.914E-04    8.52      21.4  T
   6    -50.7375301 -0.114780E-08  0.491E-04    8.52      39.9  T
speedup  0.86
cpu  time for SCC    0.00 s
wall time for SCC    0.01 s
speedup  0.96
cpu  time for grad    0.01 s
wall time for grad    0.01 s
 E :    -50.44535434  G :  0.005025    pred/act E change: -0.478D-04 -0.321D-04
Maxdispl :   0.1185   ||displ|| :   0.2087   Lambda : -0.573D-04
Largest |displ|/coords:  0.1185 (   2)  0.0839 (   5)  0.0782 (   3)
................................................................................
.............................. CYCLE   45 ......................................
................................................................................
   1    -50.7363522 -0.507364E+02  0.114E-01    8.47       0.0  T
   2    -50.7363542 -0.207965E-05  0.868E-02    8.46       1.0  T
   3    -50.7363567 -0.244787E-05  0.616E-03    8.46       3.2  T
   4    -50.7363568 -0.140306E-06  0.295E-03    8.46       6.6  T
   5    -50.7363568 -0.946527E-08  0.821E-04    8.46      23.9  T
speedup  1.00
cpu  time for SCC    0.00 s
wall time for SCC    0.01 s
speedup  0.98
cpu  time for grad    0.01 s
wall time for grad    0.01 s
 E :    -50.44539316  G :  0.004168    pred/act E change: -0.381D-04 -0.388D-04
Maxdispl :   0.0774   ||displ|| :   0.1418   Lambda : -0.558D-04
Largest |displ|/coords:  0.0774 (   2)  0.0552 (   3)  0.0462 (   5)
................................................................................
.............................. CYCLE   46 ......................................
................................................................................
   1    -50.7364750 -0.507365E+02  0.805E-02    8.48       0.0  T
   2    -50.7364760 -0.979604E-06  0.609E-02    8.48       1.0  T
   3    -50.7364772 -0.121043E-05  0.500E-03    8.47       3.9  T
   4    -50.7364773 -0.540130E-07  0.191E-03    8.47      10.3  T
   5    -50.7364773 -0.473293E-08  0.663E-04    8.47      29.6  T
speedup  1.18
cpu  time for SCC    0.01 s
wall time for SCC    0.01 s
speedup  1.05
cpu  time for grad    0.01 s
wall time for grad    0.01 s
 E :    -50.44542780  G :  0.003608    pred/act E change: -0.299D-04 -0.346D-04
Maxdispl :   0.1307   ||displ|| :   0.2174   Lambda : -0.453D-04
Largest |displ|/coords:  0.1307 (   2)  0.0779 (   3)  0.0736 (   5)
................................................................................
.............................. CYCLE   47 ......................................
................................................................................
   1    -50.7363663 -0.507364E+02  0.125E-01    8.44       0.0  T
   2    -50.7363688 -0.252827E-05  0.947E-02    8.44       1.0  T
   3    -50.7363719 -0.316658E-05  0.810E-03    8.43       2.4  T
   4    -50.7363721 -0.135928E-06  0.359E-03    8.43       5.5  T
   5    -50.7363721 -0.111198E-07  0.950E-04    8.43      20.7  T
   6    -50.7363721 -0.120753E-08  0.567E-04    8.43      34.6  T
speedup  1.00
cpu  time for SCC    0.01 s
wall time for SCC    0.01 s
speedup  1.01
cpu  time for grad    0.01 s
wall time for grad    0.01 s
 E :    -50.44545346  G :  0.003490    pred/act E change: -0.285D-04 -0.257D-04
Maxdispl :   0.0299   ||displ|| :   0.0719   Lambda : -0.397D-04
Largest |displ|/coords:  0.0299 (   2)  0.0274 (   6)  0.0226 (   3)
................................................................................
.............................. CYCLE   48 ......................................
................................................................................
   1    -50.7384385 -0.507384E+02  0.467E-02    8.48       0.0  T
   2    -50.7384392 -0.636475E-06  0.352E-02    8.48       1.0  T
   3    -50.7384398 -0.631063E-06  0.485E-03    8.47       4.0  T
   4    -50.7384399 -0.732104E-07  0.146E-03    8.47      13.4  T
   5    -50.7384399 -0.400523E-08  0.564E-04    8.47      34.8  T
   6    -50.7384399 -0.424052E-09  0.290E-04    8.47      67.7  T
speedup  1.07
cpu  time for SCC    0.01 s
wall time for SCC    0.01 s
speedup  0.98
cpu  time for grad    0.01 s
wall time for grad    0.01 s
 E :    -50.44546872  G :  0.003451    pred/act E change: -0.237D-04 -0.153D-04
Maxdispl :   0.1372   ||displ|| :   0.2197   Lambda : -0.410D-04
Largest |displ|/coords:  0.1372 (   2)  0.0638 (   3)  0.0626 (   8)
................................................................................
.............................. CYCLE   49 ......................................
................................................................................
   1    -50.7367979 -0.507368E+02  0.126E-01    8.46       0.0  T
   2    -50.7368003 -0.242215E-05  0.953E-02    8.46       1.0  T
   3    -50.7368033 -0.295600E-05  0.733E-03    8.46       2.7  T
   4    -50.7368035 -0.157517E-06  0.309E-03    8.46       6.4  T
   5    -50.7368035 -0.932862E-08  0.957E-04    8.46      20.5  T
   6    -50.7368035 -0.130449E-08  0.442E-04    8.46      44.4  T
speedup  1.02
cpu  time for SCC    0.01 s
wall time for SCC    0.01 s
speedup  0.95
cpu  time for grad    0.01 s
wall time for grad    0.01 s
 E :    -50.44546797  G :  0.005186    pred/act E change: -0.200D-04  0.747D-06
Maxdispl :   0.0538   ||displ|| :   0.0865   Lambda : -0.543D-04
Largest |displ|/coords:  0.0538 (   2)  0.0328 (   3)  0.0225 (   8)
................................................................................
.............................. CYCLE   50 ......................................
................................................................................
   1    -50.7380302 -0.507380E+02  0.472E-02    8.49       0.0  T
   2    -50.7380309 -0.620635E-06  0.355E-02    8.50       1.0  T
   3    -50.7380314 -0.495164E-06  0.500E-03    8.50       3.9  T
   4    -50.7380314 -0.834259E-07  0.163E-03    8.50      12.0  T
   5    -50.7380314 -0.429930E-08  0.501E-04    8.50      39.1  T
speedup  1.06
cpu  time for SCC    0.01 s
wall time for SCC    0.00 s
speedup  1.01
cpu  time for grad    0.01 s
wall time for grad    0.01 s
 E :    -50.44548896  G :  0.002496    pred/act E change: -0.215D-04 -0.210D-04
Maxdispl :   0.0346   ||displ|| :   0.0588   Lambda : -0.311D-04
Largest |displ|/coords:  0.0346 (   5)  0.0274 (   3)  0.0192 (   2)
................................................................................
.............................. CYCLE   51 ......................................
................................................................................
   1    -50.7379011 -0.507379E+02  0.405E-02    8.47       0.0  T
   2    -50.7379015 -0.440987E-06  0.303E-02    8.47       1.0  T
   3    -50.7379019 -0.398606E-06  0.373E-03    8.47       5.3  T
   4    -50.7379020 -0.482637E-07  0.129E-03    8.47      15.2  T
   5    -50.7379020 -0.185932E-08  0.396E-04    8.47      49.5  T
   6    -50.7379020 -0.249386E-09  0.191E-04    8.47     102.5  T
speedup  0.98
cpu  time for SCC    0.01 s
wall time for SCC    0.01 s
speedup  1.01
cpu  time for grad    0.01 s
wall time for grad    0.01 s
 E :    -50.44549375  G :  0.003793    pred/act E change: -0.273D-04 -0.479D-05
Maxdispl :   0.0343   ||displ|| :   0.0547   Lambda : -0.218D-04
Largest |displ|/coords:  0.0343 (   2)  0.0170 (   5)  0.0137 (   8)
................................................................................
.............................. CYCLE   52 ......................................
................................................................................
   1    -50.7378694 -0.507379E+02  0.349E-02    8.47       0.0  T
   2    -50.7378697 -0.219692E-06  0.263E-02    8.47       1.0  T
   3    -50.7378699 -0.240222E-06  0.263E-03    8.48       7.5  T
   4    -50.7378699 -0.179318E-07  0.922E-04    8.47      21.3  T
   5    -50.7378699 -0.112515E-08  0.316E-04    8.47      62.1  T
speedup  1.02
cpu  time for SCC    0.01 s
wall time for SCC    0.00 s
speedup  1.02
cpu  time for grad    0.01 s
wall time for grad    0.01 s
 E :    -50.44550704  G :  0.001711    pred/act E change: -0.156D-04 -0.133D-04
Maxdispl :   0.0595   ||displ|| :   0.0894   Lambda : -0.133D-04
Largest |displ|/coords:  0.0595 (   2)  0.0218 (   5)  0.0198 (   3)

generating ANC from model Hessian ...
 Shifting diagonal of input Hessian by   5.033020190925843E-003
 Lowest  eigenvalues of input Hessian
    0.005000   -0.000000   -0.000000   -0.000000   -0.000000    0.000000
    0.000000    0.005255    0.005600    0.005754    0.006111    0.006699
    0.006776    0.007001    0.007371    0.008041    0.008983    0.009484
 Highest eigenvalues
    1.384606    1.387344    1.406594    2.582119    3.180862    3.910542
 
cpu  time for ANC gen    0.02 s
wall time for ANC gen    0.02 s
................................................................................
.............................. CYCLE   53 ......................................
................................................................................
   1    -50.7378445 -0.507378E+02  0.549E-02    8.49       0.0  T
   2    -50.7378451 -0.559523E-06  0.416E-02    8.50       1.0  T
   3    -50.7378457 -0.596871E-06  0.406E-03    8.50       4.8  T
   4    -50.7378457 -0.568999E-07  0.136E-03    8.50      14.4  T
   5    -50.7378457 -0.211391E-08  0.468E-04    8.50      41.9  T
   6    -50.7378457 -0.283798E-09  0.225E-04    8.50      87.0  T
speedup  1.03
cpu  time for SCC    0.01 s
wall time for SCC    0.01 s
speedup  1.02
cpu  time for grad    0.01 s
wall time for grad    0.01 s
 E :    -50.44551307  G :  0.001580    pred/act E change:  0.000D+00 -0.603D-05
Maxdispl :   0.0221   ||displ|| :   0.0458   Lambda : -0.194D-04
Largest |displ|/coords:  0.0221 (   8)  0.0220 (   7)  0.0201 (   6)
................................................................................
.............................. CYCLE   54 ......................................
................................................................................
   1    -50.7379401 -0.507379E+02  0.307E-02    8.50       0.0  T
   2    -50.7379402 -0.748839E-07  0.229E-02    8.50       1.0  T
   3    -50.7379403 -0.865918E-07  0.155E-03    8.50      12.7  T
   4    -50.7379403 -0.313150E-08  0.493E-04    8.50      39.8  T
   5    -50.7379403 -0.205389E-09  0.219E-04    8.50      89.7  T
speedup  0.98
cpu  time for SCC    0.00 s
wall time for SCC    0.01 s
speedup  1.01
cpu  time for grad    0.01 s
wall time for grad    0.01 s
 E :    -50.44552857  G :  0.000699    pred/act E change:  0.000D+00 -0.155D-04
Maxdispl :   0.0720   ||displ|| :   0.1302   Lambda : -0.384D-04
Largest |displ|/coords:  0.0720 (   8)  0.0637 (   6)  0.0630 (   7)
................................................................................
.............................. CYCLE   55 ......................................
................................................................................
   1    -50.7376361 -0.507376E+02  0.825E-02    8.49       0.0  T
   2    -50.7376367 -0.557807E-06  0.614E-02    8.49       1.0  T
   3    -50.7376373 -0.602276E-06  0.411E-03    8.49       4.8  T
   4    -50.7376373 -0.327071E-07  0.141E-03    8.49      13.9  T
   5    -50.7376373 -0.236833E-08  0.632E-04    8.49      31.0  T
   6    -50.7376373 -0.941668E-09  0.242E-04    8.49      80.9  T
speedup  0.86
cpu  time for SCC    0.00 s
wall time for SCC    0.01 s
speedup  0.96
cpu  time for grad    0.01 s
wall time for grad    0.01 s
 E :    -50.44555129  G :  0.002105    pred/act E change: -0.973D-05 -0.227D-04
Maxdispl :   0.0366   ||displ|| :   0.0662   Lambda : -0.132D-04
Largest |displ|/coords:  0.0366 (   7)  0.0350 (   6)  0.0263 (   8)
................................................................................
.............................. CYCLE   56 ......................................
................................................................................
   1    -50.7375920 -0.507376E+02  0.373E-02    8.49       0.0  T
   2    -50.7375921 -0.119520E-06  0.277E-02    8.49       1.0  T
   3    -50.7375922 -0.138957E-06  0.194E-03    8.49      10.1  T
   4    -50.7375922 -0.564555E-08  0.753E-04    8.49      26.0  T
   5    -50.7375922 -0.639190E-09  0.277E-04    8.49      70.7  T
speedup  1.02
cpu  time for SCC    0.01 s
wall time for SCC    0.00 s
speedup  0.95
cpu  time for grad    0.01 s
wall time for grad    0.01 s
 E :    -50.44556197  G :  0.001877    pred/act E change: -0.195D-04 -0.107D-04
Maxdispl :   0.0843   ||displ|| :   0.1607   Lambda : -0.319D-04
Largest |displ|/coords:  0.0843 (   7)  0.0835 (   6)  0.0626 (   1)
................................................................................
.............................. CYCLE   57 ......................................
................................................................................
   1    -50.7375389 -0.507375E+02  0.854E-02    8.50       0.0  T
   2    -50.7375396 -0.747327E-06  0.637E-02    8.49       1.0  T
   3    -50.7375405 -0.854006E-06  0.499E-03    8.49       3.9  T
   4    -50.7375405 -0.456883E-07  0.202E-03    8.50       9.7  T
   5    -50.7375405 -0.479810E-08  0.697E-04    8.50      28.1  T
   6    -50.7375405 -0.761432E-09  0.354E-04    8.50      55.5  T
speedup  0.89
cpu  time for SCC    0.00 s
wall time for SCC    0.01 s
speedup  0.99
cpu  time for grad    0.01 s
wall time for grad    0.01 s
 E :    -50.44558330  G :  0.001604    pred/act E change: -0.661D-05 -0.213D-04
Maxdispl :   0.0682   ||displ|| :   0.1230   Lambda : -0.176D-04
Largest |displ|/coords:  0.0682 (   1)  0.0647 (   7)  0.0540 (   6)
................................................................................
.............................. CYCLE   58 ......................................
................................................................................
   1    -50.7377457 -0.507377E+02  0.534E-02    8.50       0.0  T
   2    -50.7377461 -0.383898E-06  0.399E-02    8.49       1.0  T
   3    -50.7377465 -0.380104E-06  0.366E-03    8.49       5.4  T
   4    -50.7377465 -0.359469E-07  0.123E-03    8.49      15.9  T
   5    -50.7377465 -0.202672E-08  0.494E-04    8.49      39.7  T
   6    -50.7377465 -0.432806E-09  0.244E-04    8.49      80.5  T
speedup  1.00
cpu  time for SCC    0.01 s
wall time for SCC    0.01 s
speedup  1.02
cpu  time for grad    0.01 s
wall time for grad    0.01 s
 E :    -50.44559603  G :  0.001498    pred/act E change: -0.164D-04 -0.127D-04
Maxdispl :   0.1048   ||displ|| :   0.1780   Lambda : -0.170D-04
Largest |displ|/coords:  0.1048 (   1)  0.0915 (   7)  0.0791 (   6)
................................................................................
.............................. CYCLE   59 ......................................
................................................................................
   1    -50.7373228 -0.507373E+02  0.816E-02    8.48       0.0  T
   2    -50.7373236 -0.766828E-06  0.611E-02    8.48       1.0  T
   3    -50.7373245 -0.889118E-06  0.514E-03    8.48       3.8  T
   4    -50.7373245 -0.504231E-07  0.168E-03    8.48      11.7  T
   5    -50.7373245 -0.377293E-08  0.734E-04    8.48      26.7  T
   6    -50.7373245 -0.101539E-08  0.358E-04    8.48      54.8  T
speedup  0.98
cpu  time for SCC    0.01 s
wall time for SCC    0.01 s
speedup  0.95
cpu  time for grad    0.01 s
wall time for grad    0.01 s
 E :    -50.44560510  G :  0.002299    pred/act E change: -0.892D-05 -0.908D-05
Maxdispl :   0.0868   ||displ|| :   0.1100   Lambda : -0.211D-04
Largest |displ|/coords:  0.0868 (   1)  0.0411 (   7)  0.0347 (   9)
................................................................................
.............................. CYCLE   60 ......................................
................................................................................
   1    -50.7386974 -0.507387E+02  0.388E-02    8.49       0.0  T
   2    -50.7386981 -0.701920E-06  0.287E-02    8.49       1.0  T
   3    -50.7386985 -0.349895E-06  0.513E-03    8.48       3.8  T
   4    -50.7386986 -0.113688E-06  0.124E-03    8.48      15.8  T
   5    -50.7386986 -0.224587E-08  0.437E-04    8.48      44.9  T
   6    -50.7386986 -0.209859E-09  0.227E-04    8.48      86.5  T
speedup  0.98
cpu  time for SCC    0.01 s
wall time for SCC    0.01 s
speedup  0.95
cpu  time for grad    0.01 s
wall time for grad    0.01 s
 E :    -50.44560705  G :  0.002749    pred/act E change: -0.879D-05 -0.195D-05
Maxdispl :   0.0154   ||displ|| :   0.0310   Lambda : -0.140D-04
Largest |displ|/coords:  0.0154 (   7)  0.0151 (   8)  0.0143 (   9)
................................................................................
.............................. CYCLE   61 ......................................
................................................................................
   1    -50.7381163 -0.507381E+02  0.207E-02    8.48       0.0  T
   2    -50.7381164 -0.143671E-06  0.153E-02    8.48       1.3  T
   3    -50.7381165 -0.623108E-07  0.211E-03    8.48       9.3  T
   4    -50.7381165 -0.256046E-07  0.536E-04    8.48      36.6  T
   5    -50.7381165 -0.304361E-09  0.169E-04    8.48     115.8  T
speedup  1.02
cpu  time for SCC    0.00 s
wall time for SCC    0.00 s
speedup  1.01
cpu  time for grad    0.01 s
wall time for grad    0.01 s
 E :    -50.44561497  G :  0.000817    pred/act E change: -0.107D-04 -0.791D-05
Maxdispl :   0.0124   ||displ|| :   0.0220   Lambda : -0.413D-05
Largest |displ|/coords:  0.0124 (   3)  0.0074 (   9)  0.0070 (   7)
................................................................................
.............................. CYCLE   62 ......................................
................................................................................
   1    -50.7380127 -0.507380E+02  0.155E-02    8.48       0.0  T
   2    -50.7380127 -0.403695E-07  0.117E-02    8.48       1.7  T
   3    -50.7380128 -0.404619E-07  0.119E-03    8.48      16.5  T
   4    -50.7380128 -0.446876E-08  0.401E-04    8.48      48.9  T
   5    -50.7380128 -0.266361E-09  0.128E-04    8.48     153.2  T
speedup  0.83
cpu  time for SCC    0.00 s
wall time for SCC    0.00 s
speedup  0.94
cpu  time for grad    0.01 s
wall time for grad    0.01 s
 E :    -50.44561766  G :  0.000932    pred/act E change: -0.703D-05 -0.270D-05
Maxdispl :   0.0281   ||displ|| :   0.0428   Lambda : -0.455D-05
Largest |displ|/coords:  0.0281 (   1)  0.0187 (   7)  0.0134 (   3)
................................................................................
.............................. CYCLE   63 ......................................
................................................................................
   1    -50.7381664 -0.507382E+02  0.234E-02    8.49       0.0  T
   2    -50.7381665 -0.752626E-07  0.176E-02    8.49       1.1  T
   3    -50.7381666 -0.871390E-07  0.190E-03    8.48      10.3  T
   4    -50.7381666 -0.510217E-08  0.566E-04    8.48      34.7  T
   5    -50.7381666 -0.602896E-09  0.226E-04    8.48      86.9  T
speedup  1.00
cpu  time for SCC    0.00 s
wall time for SCC    0.01 s
speedup  1.01
cpu  time for grad    0.01 s
wall time for grad    0.01 s
 E :    -50.44562095  G :  0.000765    pred/act E change: -0.207D-05 -0.329D-05
Maxdispl :   0.0520   ||displ|| :   0.0751   Lambda : -0.419D-05
Largest |displ|/coords:  0.0520 (   1)  0.0386 (   7)  0.0193 (   5)
................................................................................
.............................. CYCLE   64 ......................................
................................................................................
   1    -50.7382616 -0.507383E+02  0.381E-02    8.49       0.0  T
   2    -50.7382618 -0.193997E-06  0.286E-02    8.49       1.0  T
   3    -50.7382621 -0.235882E-06  0.298E-03    8.48       6.6  T
   4    -50.7382621 -0.122106E-07  0.897E-04    8.48      21.9  T
   5    -50.7382621 -0.149948E-08  0.379E-04    8.48      51.8  T
speedup  1.00
cpu  time for SCC    0.00 s
wall time for SCC    0.00 s
speedup  1.00
cpu  time for grad    0.01 s
wall time for grad    0.01 s
 E :    -50.44562379  G :  0.000692    pred/act E change: -0.228D-05 -0.284D-05
Maxdispl :   0.0330   ||displ|| :   0.0508   Lambda : -0.282D-05
Largest |displ|/coords:  0.0330 (   1)  0.0235 (   7)  0.0194 (   5)
................................................................................
.............................. CYCLE   65 ......................................
................................................................................
   1    -50.7384859 -0.507385E+02  0.228E-02    8.48       0.0  T
   2    -50.7384860 -0.874164E-07  0.171E-02    8.48       1.1  T
   3    -50.7384860 -0.829665E-07  0.203E-03    8.48       9.6  T
   4    -50.7384860 -0.884420E-08  0.647E-04    8.48      30.3  T
   5    -50.7384860 -0.673928E-09  0.232E-04    8.48      84.6  T
speedup  1.13
cpu  time for SCC    0.01 s
wall time for SCC    0.01 s
speedup  0.99
cpu  time for grad    0.01 s
wall time for grad    0.01 s
 E :    -50.44562557  G :  0.000595    pred/act E change: -0.211D-05 -0.178D-05
Maxdispl :   0.0453   ||displ|| :   0.0787   Lambda : -0.279D-05
Largest |displ|/coords:  0.0453 (   1)  0.0438 (   7)  0.0273 (   5)
................................................................................
.............................. CYCLE   66 ......................................
................................................................................
   1    -50.7383231 -0.507383E+02  0.409E-02    8.48       0.0  T
   2    -50.7383233 -0.222885E-06  0.308E-02    8.48       1.0  T
   3    -50.7383236 -0.264235E-06  0.297E-03    8.47       6.6  T
   4    -50.7383236 -0.159995E-07  0.117E-03    8.47      16.8  T
   5    -50.7383236 -0.190761E-08  0.385E-04    8.47      50.9  T
   6    -50.7383236 -0.200451E-09  0.225E-04    8.47      87.0  T
speedup  1.00
[...]
   2    -50.7393073 -0.173499E-07  0.685E-03    8.41       2.9  T
   3    -50.7393074 -0.189881E-07  0.850E-04    8.41      23.1  T
   4    -50.7393074 -0.134397E-08  0.256E-04    8.41      76.7  T
speedup  1.03
cpu  time for SCC    0.00 s
wall time for SCC    0.00 s
speedup  1.04
cpu  time for grad    0.01 s
wall time for grad    0.01 s
 E :    -50.44576539  G :  0.000309    pred/act E change: -0.314D-06 -0.381D-06
Maxdispl :   0.0095   ||displ|| :   0.0178   Lambda : -0.519D-06
Largest |displ|/coords:  0.0095 (   1)  0.0063 (   9)  0.0058 (   4)
................................................................................
.............................. CYCLE  111 ......................................
................................................................................
   1    -50.7392383 -0.507392E+02  0.107E-02    8.41       0.0  T
   2    -50.7392383 -0.229467E-07  0.805E-03    8.41       2.4  T
   3    -50.7392383 -0.260900E-07  0.104E-03    8.41      18.9  T
   4    -50.7392383 -0.152927E-08  0.246E-04    8.41      79.6  T
   5    -50.7392383 -0.972307E-10  0.759E-05    8.41     258.5  T
speedup  1.04
cpu  time for SCC    0.00 s
wall time for SCC    0.00 s
speedup  0.97
cpu  time for grad    0.01 s
wall time for grad    0.01 s
 E :    -50.44576575  G :  0.000293    pred/act E change: -0.263D-06 -0.359D-06
Maxdispl :   0.0118   ||displ|| :   0.0150   Lambda : -0.345D-06
Largest |displ|/coords:  0.0118 (   1)  0.0040 (   9)  0.0039 (   8)
................................................................................
.............................. CYCLE  112 ......................................
................................................................................
   1    -50.7392435 -0.507392E+02  0.735E-03    8.41       0.0  T
   2    -50.7392435 -0.101453E-07  0.540E-03    8.41       3.6  T
   3    -50.7392435 -0.103177E-07  0.822E-04    8.41      23.9  T
   4    -50.7392435 -0.607976E-09  0.146E-04    8.41     134.8  T
speedup  1.03
cpu  time for SCC    0.00 s
wall time for SCC    0.00 s
speedup  1.03
cpu  time for grad    0.01 s
wall time for grad    0.01 s
 E :    -50.44576597  G :  0.000228    pred/act E change: -0.260D-06 -0.225D-06
Maxdispl :   0.0044   ||displ|| :   0.0100   Lambda : -0.219D-06
Largest |displ|/coords:  0.0044 (   1)  0.0044 (   8)  0.0036 (   2)

generating ANC from model Hessian ...
 Shifting diagonal of input Hessian by   5.153333165939840E-003
 Lowest  eigenvalues of input Hessian
    0.005000   -0.000000   -0.000000   -0.000000    0.000000    0.000000
    0.000000    0.005372    0.005490    0.005819    0.006209    0.006550
    0.006953    0.007073    0.007384    0.008107    0.008729    0.009548
 Highest eigenvalues
    1.387222    1.389286    1.410982    2.592864    3.180858    3.903136
 
cpu  time for ANC gen    0.03 s
wall time for ANC gen    0.03 s
................................................................................
.............................. CYCLE  113 ......................................
................................................................................
   1    -50.7392257 -0.507392E+02  0.628E-03    8.41       0.0  T
   2    -50.7392257 -0.793761E-08  0.473E-03    8.41       4.2  T
   3    -50.7392257 -0.912961E-08  0.613E-04    8.41      32.0  T
   4    -50.7392257 -0.551779E-09  0.160E-04    8.41     122.4  T
speedup  1.22
cpu  time for SCC    0.00 s
wall time for SCC    0.00 s
speedup  1.02
cpu  time for grad    0.01 s
wall time for grad    0.01 s
 E :    -50.44576614  G :  0.000167    pred/act E change:  0.000D+00 -0.168D-06
Maxdispl :   0.0018   ||displ|| :   0.0031   Lambda : -0.128D-06
Largest |displ|/coords:  0.0018 (   5)  0.0013 (   2)  0.0010 (  10)
................................................................................
.............................. CYCLE  114 ......................................
................................................................................
   1    -50.7392491 -0.507392E+02  0.212E-03    8.41       0.0  T
   2    -50.7392491 -0.802920E-09  0.159E-03    8.41      12.3  T
   3    -50.7392491 -0.872930E-09  0.194E-04    8.41     101.1  T
   4    -50.7392491 -0.656684E-10  0.660E-05    8.41     297.1  T
speedup  1.08
cpu  time for SCC    0.00 s
wall time for SCC    0.00 s
speedup  1.06
cpu  time for grad    0.01 s
wall time for grad    0.01 s
 E :    -50.44576625  G :  0.000126    pred/act E change:  0.000D+00 -0.105D-06
Maxdispl :   0.0048   ||displ|| :   0.0109   Lambda : -0.369D-06
Largest |displ|/coords:  0.0048 (   5)  0.0043 (   2)  0.0038 (  10)
................................................................................
.............................. CYCLE  115 ......................................
................................................................................
   1    -50.7393098 -0.507393E+02  0.801E-03    8.42       0.0  T
   2    -50.7393098 -0.993273E-08  0.599E-03    8.41       3.3  T
   3    -50.7393098 -0.108093E-07  0.703E-04    8.41      27.9  T
   4    -50.7393098 -0.862954E-09  0.259E-04    8.41      75.8  T
speedup  1.00
cpu  time for SCC    0.00 s
wall time for SCC    0.00 s
speedup  1.01
cpu  time for grad    0.01 s
wall time for grad    0.01 s
 E :    -50.44576648  G :  0.000175    pred/act E change: -0.638D-07 -0.236D-06
Maxdispl :   0.0032   ||displ|| :   0.0074   Lambda : -0.158D-06
Largest |displ|/coords:  0.0032 (   2)  0.0026 (   5)  0.0020 (  17)
................................................................................
.............................. CYCLE  116 ......................................
................................................................................
   1    -50.7393256 -0.507393E+02  0.560E-03    8.41       0.0  T
   2    -50.7393256 -0.467053E-08  0.420E-03    8.41       4.7  T
   3    -50.7393257 -0.516447E-08  0.455E-04    8.41      43.1  T
   4    -50.7393257 -0.411440E-09  0.178E-04    8.41     110.3  T
speedup  0.95
cpu  time for SCC    0.00 s
wall time for SCC    0.00 s
speedup  0.98
cpu  time for grad    0.01 s
wall time for grad    0.01 s
 E :    -50.44576660  G :  0.000180    pred/act E change: -0.184D-06 -0.114D-06
Maxdispl :   0.0049   ||displ|| :   0.0143   Lambda : -0.266D-06
Largest |displ|/coords:  0.0049 (   2)  0.0048 (  10)  0.0045 (   9)
................................................................................
.............................. CYCLE  117 ......................................
................................................................................
   1    -50.7393383 -0.507393E+02  0.107E-02    8.42       0.0  T
   2    -50.7393384 -0.198694E-07  0.806E-03    8.41       2.4  T
   3    -50.7393384 -0.245637E-07  0.838E-04    8.41      23.4  T
   4    -50.7393384 -0.144889E-08  0.309E-04    8.41      63.5  T
speedup  1.04
cpu  time for SCC    0.00 s
wall time for SCC    0.00 s
speedup  1.01
cpu  time for grad    0.01 s
wall time for grad    0.01 s
 E :    -50.44576673  G :  0.000187    pred/act E change: -0.790D-07 -0.130D-06
Maxdispl :   0.0023   ||displ|| :   0.0059   Lambda : -0.175D-06
Largest |displ|/coords:  0.0023 (   7)  0.0022 (   3)  0.0021 (   6)
................................................................................
.............................. CYCLE  118 ......................................
................................................................................
   1    -50.7393367 -0.507393E+02  0.362E-03    8.41       0.0  T
   2    -50.7393367 -0.237821E-08  0.272E-03    8.41       7.2  T
   3    -50.7393367 -0.212608E-08  0.304E-04    8.41      64.6  T
   4    -50.7393367 -0.318956E-09  0.120E-04    8.41     163.1  T
speedup  1.19
cpu  time for SCC    0.00 s
wall time for SCC    0.00 s
speedup  1.07
cpu  time for grad    0.01 s
wall time for grad    0.01 s
 E :    -50.44576683  G :  0.000149    pred/act E change: -0.133D-06 -0.105D-06
Maxdispl :   0.0026   ||displ|| :   0.0043   Lambda : -0.112D-06
Largest |displ|/coords:  0.0026 (   7)  0.0016 (   1)  0.0014 (   6)
................................................................................
.............................. CYCLE  119 ......................................
................................................................................
   1    -50.7393305 -0.507393E+02  0.228E-03    8.41       0.0  T
   2    -50.7393305 -0.193896E-08  0.169E-03    8.41      11.6  T
   3    -50.7393305 -0.108066E-08  0.367E-04    8.41      53.5  T
   4    -50.7393305 -0.277481E-09  0.113E-04    8.41     174.1  T
speedup  1.09
cpu  time for SCC    0.00 s
wall time for SCC    0.00 s
speedup  1.02
cpu  time for grad    0.01 s
wall time for grad    0.01 s
 E :    -50.44576692  G :  0.000109    pred/act E change: -0.875D-07 -0.843D-07
Maxdispl :   0.0051   ||displ|| :   0.0085   Lambda : -0.119D-06
Largest |displ|/coords:  0.0051 (   7)  0.0034 (   6)  0.0030 (   1)

   *** GEOMETRY OPTIMIZATION CONVERGED AFTER 119 ITERATIONS ***

------------------------------------------------------------------------
 total energy gain (kcal):     -0.0005
------------------------------------------------------------------------
================
 final structure:
================
$coord
        5.20829339930901        1.29243487312622        1.22977190140534      S 
        3.16859748358698        0.36882478098609        2.79062901016858      O 
        7.56826481403375        1.72963810052688        2.39692766222586      O 
        5.55564511131431       -0.61191620449284       -0.98820485249965      O 
        4.32612877983237        3.74877453630322       -0.10394808465379      O 
        2.50473384567957        3.69457948796911       -0.57893561536964      H 
        3.94134485693114       -1.49848542864895       -1.34390582993891      H 
       -0.38824729686906        3.90349069227161       -1.48429038389190      O 
       -0.56594464705709        5.38698492219479       -2.50774751812844      H 
        1.43553623517097       -3.20062553912784       -1.85222634278282      O 
        1.95619344548766       -4.88292376028416       -2.27831568756157      H 
       -1.80440334441228        1.69686141479368        3.05210086782495      O 
       -0.04288965711757        1.55869832275981        3.54467852015817      H 
       -1.74534824365041        2.74184086939334        1.55134468916792      H 
       -2.11065913969355        0.04489548977787       -3.87270240288619      O 
       -1.02223393188784        2.43725495242717       -2.53763474328339      H 
       -0.80725849682330       -1.20992193660123       -3.58851633301488      H 
       -3.51590433294617       -0.44662583543248       -2.74091529689477      H 
       -0.54671120929015       -3.29540870079746        2.63464670552384      O 
       -1.43906464937524       -1.67806770324211        2.73766681290043      H 
        0.59194703274807       -3.30150570918686       -0.15255831349217      H 
        0.99997593090176       -2.96686170172286        3.54157837282915      H 
       -5.53892512461497       -1.26988525562096       -0.28655943248984      N 
       -7.40950501087636       -1.09413265149664       -0.64346011758877      H 
       -5.10036598764444       -0.09053990523469        1.16112530258731      H 
       -5.21919986268196       -3.05737812956894        0.31945114750619      H 
$end
 
 Bond Distances (Angstroems)
 ---------------------------
S1-O2=1.4443         S1-O3=1.4123         S1-O4=1.5579         S1-O5=1.5510         O2-S1=1.4443         O3-S1=1.4123         
O4-S1=1.5579         O4-H7=0.9926         O5-S1=1.5510         O5-H6=0.9965         H6-O5=0.9965         H7-O4=0.9926         
O8-H9=0.9584         O8-H16=1.0126        H9-O8=0.9584         O10-H11=0.9588       O10-H21=1.0055       H11-O10=0.9588       
O12-H13=0.9707       O12-H14=0.9682       H13-O12=0.9707       H14-O12=0.9682       O15-H17=0.9692       O15-H18=0.9896       
H16-O8=1.0126        H17-O15=0.9692       H18-O15=0.9896       O19-H20=0.9790       O19-H22=0.9646       H20-O19=0.9790       
H21-O10=1.0055       H22-O19=0.9646       N23-H24=1.0120       N23-H25=1.0150       N23-H26=1.0130       H24-N23=1.0120       
H25-N23=1.0150       H26-N23=1.0130       
 N  H  Rav=1.0133 sigma=0.0012  Rmin=1.0120  Rmax=1.0150     3
 O  H  Rav=0.9805 sigma=0.0176  Rmin=0.9584  Rmax=1.0126    12
 S  O  Rav=1.4914 sigma=0.0641  Rmin=1.4123  Rmax=1.5579     4
 
 selected bond angles (degree)
 --------------------
O3-S1-O2=117.78                O4-S1-O2=107.47                O4-S1-O3=109.34                O5-S1-O2=108.60                
O5-S1-O3=109.14                O5-S1-O4=103.58                H7-O4-S1=110.31                H6-O5-S1=112.44                
H16-O8-H9=106.50               H21-O10-H11=106.78             
 
 selected dihedral angles (degree)
 ---------------------------------
H7-O4-S1-O2= 26.76            H7-O4-S1-O3=155.68            H7-O4-S1-O5=271.93            H6-O5-S1-O2=324.15            
H6-O5-S1-O3=194.56            H6-O5-S1-O4= 78.17            
 
 CMA Distance (Angstroems)
 ---------------------------
R(CMA):  3.6619

========================================================================
 FINAL SINGLEPOINT CALCULATION ON OPTIMIZED GEOMETRY
========================================================================

 Ncao       : 65
 Nao        : 64
 Nshell     : 38
 Nel        : 80
 T(el)      :   300.0
 intcut     :    25.0
 scfconv/Eh :  0.100E-05
   qconv/e  :  0.100E-03
 intneglect :  0.100E-07
 broydamp   :      0.250
 iter      E             dE          RMSdq      gap      omega  full diag
   1    -50.7393305 -0.507393E+02  0.388E-05    8.41       0.0  T
   2    -50.7393305 -0.980549E-12  0.255E-05    8.41     769.7  T
   3    -50.7393305 -0.476064E-12  0.548E-06    8.41    3577.0  T
speedup  0.97
cpu  time for SCC    0.00 s
wall time for SCC    0.00 s

   *** convergence criteria satisfied after 3 iterations ***

          eigenvalues
 #    :          28         29         30         31         32         33         34         35
 occ. :        2.000      2.000      2.000      2.000      2.000      2.000      2.000      2.000
 eps  :       -13.720    -13.490    -13.212    -12.882    -12.747    -12.579    -12.532    -12.389
 #    :          36         37         38         39         40         41         42         43
 occ. :        2.000      2.000      2.000      2.000      2.000      0.000      0.000      0.000
 eps  :       -12.319    -12.080    -12.037    -11.987    -11.354     -2.943     -0.745     -0.677
 #    :          44         45         46         47         48         49         50         51
 occ. :        0.000      0.000      0.000      0.000      0.000      0.000      0.000      0.000
 eps  :        -0.120      0.706      0.954      1.547      2.383      4.437      4.585      4.983


   #   Z            q   n(s)   n(p)   n(d)      C6AA      α(0)
   1  16 S      1.657  1.574  1.805  0.964    89.760    15.946
   2   8 O     -0.717  1.752  4.965  0.000    29.177     7.242
   3   8 O     -0.625  1.749  4.876  0.000    26.748     6.934
   4   8 O     -0.604  1.754  4.850  0.000    25.243     6.783
   5   8 O     -0.601  1.752  4.848  0.000    25.179     6.774
   6   1 H      0.386  0.614  0.000  0.000     0.509     1.120
   7   1 H      0.383  0.617  0.000  0.000     0.515     1.126
   8   8 O     -0.640  1.759  4.881  0.000    26.171     6.904
   9   1 H      0.294  0.706  0.000  0.000     0.740     1.351
  10   8 O     -0.631  1.758  4.873  0.000    25.949     6.875
  11   1 H      0.296  0.704  0.000  0.000     0.732     1.343
  12   8 O     -0.629  1.752  4.877  0.000    25.881     6.866
  13   1 H      0.316  0.684  0.000  0.000     0.675     1.291
  14   1 H      0.313  0.687  0.000  0.000     0.682     1.297
  15   8 O     -0.624  1.760  4.864  0.000    25.766     6.851
  16   1 H      0.351  0.649  0.000  0.000     0.587     1.204
  17   1 H      0.314  0.686  0.000  0.000     0.680     1.295
  18   1 H      0.319  0.681  0.000  0.000     0.667     1.283
  19   8 O     -0.609  1.752  4.856  0.000    25.392     6.801
  20   1 H      0.336  0.664  0.000  0.000     0.623     1.239
  21   1 H      0.350  0.650  0.000  0.000     0.589     1.206
  22   1 H      0.310  0.690  0.000  0.000     0.691     1.305
  23   7 N     -0.447  1.370  4.077  0.000    31.731     8.366
  24   1 H      0.152  0.848  0.000  0.000     1.386     1.844
  25   1 H      0.184  0.816  0.000  0.000     1.189     1.708
  26   1 H      0.165  0.835  0.000  0.000     1.304     1.789

 Mol. C6AA /au·bohr⁶  :       5445.367810
 Mol. C8AA /au·bohr⁸  :     117642.105847
 Mol. α(0) /au        :        106.743803

 
 Wiberg/Mayer (AO) data. WBOs > 0.1 written file <wbo>
 largest (>0.05) Wiberg bond orders for each atom
           total WBO             WBO to atom ...
     1  S   4.908    O    3 1.535    O    2 1.365    O    5 0.995    O    4 0.982
     2  O   1.725    S    1 1.365    O    3 0.124    O    5 0.091    O    4 0.090
     3  O   1.837    S    1 1.535    O    2 0.124    O    4 0.077    O    5 0.076
     4  O   1.985    S    1 0.982    H    7 0.733    O    2 0.090    O    3 0.077    O    5 0.063
     5  O   1.990    S    1 0.995    H    6 0.724    O    2 0.091    O    3 0.076    O    4 0.063
     6  H   0.851    O    5 0.724    O    8 0.107
     7  H   0.854    O    4 0.733    O   10 0.102
     8  O   1.899    H    9 0.907    H   16 0.749    H    6 0.107    O   15 0.052
     9  H   0.914    O    8 0.907
    10  O   1.912    H   11 0.907    H   21 0.765    H    7 0.102
    11  H   0.912    O   10 0.907
    12  O   1.852    H   14 0.868    H   13 0.865
    13  H   0.900    O   12 0.865
    14  H   0.902    O   12 0.868
    15  O   1.921    H   17 0.865    H   18 0.817    H   16 0.125    O    8 0.052
    16  H   0.877    O    8 0.749    O   15 0.125
    17  H   0.901    O   15 0.865
    18  H   0.898    O   15 0.817    N   23 0.080
    19  O   1.918    H   22 0.891    H   20 0.833    H   21 0.110
    20  H   0.887    O   19 0.833
    21  H   0.878    O   10 0.765    O   19 0.110
    22  H   0.904    O   19 0.891
    23  N   3.027    H   24 0.974    H   26 0.969    H   25 0.954    H   18 0.080
    24  H   0.977    N   23 0.974
    25  H   0.966    N   23 0.954
    26  H   0.973    N   23 0.969
 MOs/occ written to file <molden.input>
 
molecular dipole:
                 x           y           z       tot (Debye)
 q only:       -2.028      -0.744      -0.963
   full:       -2.147      -0.849      -0.893       6.291
molecular quadrupole (traceless):
                xx          xy          yy          xz          yz          zz
 q only:      -12.985      -7.193      13.527      -6.066      -2.476      -0.542
  q+dip:      -12.750      -7.481      15.967      -8.351      -3.311      -3.217
   full:      -12.758      -7.768      16.340      -8.037      -3.320      -3.582

SCC energy    :     -50.7393305
rep           :       0.2932006
ES            :       0.2336307
AES           :      -0.0477289
AXC           :      -0.0062909
disp          :      -0.0182783
XB            :       0.0000000
fix           :       0.0000000
total E       :     -50.4457669
atomizationE  :       4.9760711     3122.53
(atE without considering molecular charge,
 total energy contains solvation terms)
H-L gap (eV)  :          8.4111
optimized geometry written to: xtbopt.xyz


------------------------------------------------------------------------
 * finished run on 2019/09/16 at 11:44:55.828     
------------------------------------------------------------------------
 total:
 * wall-time:     0 d,  0 h,  0 min,  2.891 sec
 *  cpu-time:     0 d,  0 h,  0 min,  2.858 sec
 * ratio c/w:     0.989 speedup
 SCF:
 * wall-time:     0 d,  0 h,  0 min,  0.170 sec
 *  cpu-time:     0 d,  0 h,  0 min,  0.157 sec
 * ratio c/w:     0.921 speedup
 ANC optimizer:
 * wall-time:     0 d,  0 h,  0 min,  2.692 sec
 *  cpu-time:     0 d,  0 h,  0 min,  2.676 sec
 * ratio c/w:     0.994 speedup

