      -----------------------------------------------------------      
     |                   =====================                   |     
     |                           x T B                           |     
     |                   =====================                   |     
     |                         S. Grimme                         |     
     |          Mulliken Center for Theoretical Chemistry        |     
     |                    University of Bonn                     |     
     |                 Version 6.0.1 (SAW181210)                 |     
      -----------------------------------------------------------      

   This program is distributed in the hope that it will be useful,
   but WITHOUT ANY WARRANTY; without even the implied warranty of
   MERCHANTABILITY or FITNESS FOR A PARTICULAR PURPOSE.
   
   FOR NON-COMMERCIAL, ACADEMIA USE ONLY.
   
   Cite this work as:
   S. Grimme, C. Bannwarth, P. Shushkov, J. Comput. Theory Chem., 2017,
   13, 1989-2009.
   C. Bannwarth, S. Ehlert and S. Grimme., ChemRxiv, 2018, preprint.
   http://doi.org/10.26434/chemrxiv.7246238.v1
   
   for sTDA-xTB:
   S. Grimme and C. Bannwarth, J. Chem. Phys., 2016, 145, 054103.
   
   in the mass-spec context:
   V. Asgeirsson, C. Bauer and S. Grimme, Chem. Sci., 2017, 8, 4879.
   
   if GBSA is used:
   P. Shushkov, F. März and S. Grimme, unpublished.
   
   for ANC optimizer:
   S. Grimme, unpublished.
   Rational Function algorithm used in ANCopt:
   F. Eckert, P. Pulay, H.-J. Werner, J. Comput. Chem., 1997, 18, 1473.
   
   with help from (in alphabetical order)
   C. Bannwarth, F. Bohle, G. Brandenburg, E. Caldeweyher, M. Checinski,
   S. Dohm, S. Ehlert, S. Ehrlich, F. März, H. Neugebauer, J. Pisarek,
   P. Pracht, P. Shushkov, and S. Spicher.
   
 * started run on 2019/09/16 at 12:19:43.510     
========================================================================
 # omp threads = 1
========================================================================
number of atoms            : 26
number of electrons        : 80
charge                     : 0
spin                       : .0
first test random number   : .2504

########################################################################
# WARNING! Please study the warnings concerning your input carefully
#  - XTBPATH is not set, using XTBHOME instead
#  - the use of '-opt' is discouraged, please use '--opt' next time
#  - the use of '-chrg' is discouraged, please use '--chrg' next time
#  - the use of '-uhf' is discouraged, please use '--uhf' next time
########################################################################

           ------------------------------------------------- 
          |                 G F N 2 - x T B                 |
          | Geometry, Frequencies, Noncovalent interactions |
          |            JCTC 2018 parametrisation            |
           ------------------------------------------------- 
      method parameters     
 k(s)        :  1.8500
 k(p)        :  2.2300
 k(d)        :  2.2300
 k(f)        :  2.0000
 kEN (H0ij)  : -2.0000
 D4 a1       :  0.5200
 D4 a2       :  5.0000
 D4 s6       :  1.0000
 D4 s8       :  2.7000
 D4 s9       :  5.0000
 alphaj      :  2.0000


            Z     q(EN)     CN     RAES       Cart. coordinates
     1  S   6.0    0.58    4.30    4.23     0.44574     1.42115     3.02923
     2  O   6.0   -0.31    1.13    1.80     1.84220     3.13530     1.38819
     3  O   6.0   -0.30    1.10    1.80    -0.33293     2.09059     5.55572
     4  O   6.0   -0.25    2.05    1.83    -1.97429     0.39049     1.40855
     5  O   6.0   -0.25    2.08    1.84     1.91143    -1.23349     3.29826
     6  H   1.0    0.18    1.28    1.49     2.61288    -1.70903     1.66480
     7  H   1.0    0.16    1.20    1.47    -2.48678     1.74635     0.27482
     8  O   6.0   -0.39    1.68    1.81     3.18521    -2.14055    -1.10326
     9  H   1.0    0.17    0.95    1.42     4.57660    -3.38291    -1.03731
    10  O   6.0   -0.40    1.68    1.81    -0.82523     1.20746    -5.37863
    11  H   1.0    0.17    0.94    1.42    -1.32726     1.49396    -7.15335
    12  O   6.0   -0.29    2.06    1.83    -3.03039     3.70487    -2.12475
    13  H   1.0    0.18    1.14    1.45    -2.26383     2.82512    -3.52227
    14  H   1.0    0.15    0.97    1.43    -3.94773     5.08868    -2.87185
    15  O   6.0   -0.23    2.93    2.62     3.19364     1.82848    -3.33467
    16  H   1.0    0.16    1.17    1.46     3.57015     0.15934    -2.58497
    17  H   1.0    0.16    1.18    1.46     1.68790     1.77657    -4.43925
    18  H   1.0    0.14    0.99    1.43     3.06140     3.16483    -2.03538
    19  O   6.0   -0.23    2.92    2.59    -0.92891    -2.65737    -2.97888
    20  H   1.0    0.16    1.18    1.46    -1.07457    -1.23732    -4.18391
    21  H   1.0    0.16    1.18    1.46     0.79021    -2.79262    -2.26030
    22  H   1.0    0.12    0.97    1.43    -2.23857    -2.58240    -1.64822
    23  N   5.0   -0.20    2.92    1.92    -2.06638    -3.29720     7.26128
    24  H   1.0    0.11    0.99    1.43    -0.44050    -3.61937     6.27956
    25  H   1.0    0.10    0.99    1.43    -1.75675    -3.99553     9.02976
    26  H   1.0    0.12    0.99    1.43    -2.18324    -1.38536     7.46684

  Z AO/shell   Hii/eV     exponent
  1     Wed Apr 25 08:07:45 CEST 2018   EN: 2.200 GM2: 0.406  GM3: 0.0800  RAES: 1.40
     1s    -10.707211    1.230000
  7     Wed Apr 25 08:07:45 CEST 2018   EN: 3.040 GM2: 0.461  GM3:-0.0640  RAES: 1.90
     2s    -16.686243    2.339881
     2p    -12.523956    2.014332
  8     Wed Apr 25 08:07:45 CEST 2018   EN: 3.440 GM2: 0.452  GM3:-0.0517  RAES: 1.80
     2s    -20.229985    2.439742
     2p    -15.503117    2.137023
 16     Tue Apr 24 11:44:34 CEST 2018   EN: 2.580 GM2: 0.340  GM3:-0.0502  RAES: 3.10
     3s    -20.029654    1.981333
     3p    -11.377694    2.025643
     3d     -0.420282    1.702555
 no old-style atom pair restraining (fixing) potential

molecular fragmentation (1/2 indicates fragments):
11111112222222222222222222
# atoms in fragment 1/2:     7    19
 fragment masses (1/2) :       98.07      107.11
CMA distance (Bohr)    :   4.507
constraining FC (au)   :  0.0500
           ------------------------------------------------- 
          |        Self-Consistent Charge Iterations        |
           ------------------------------------------------- 

 Ncao       : 65
 Nao        : 64
 Nshell     : 38
 Nel        : 80
 T(el)      :   300.0
 intcut     :    25.0
 scfconv/Eh :  0.100E-05
   qconv/e  :  0.100E-03
 intneglect :  0.100E-07
 broydamp   :      0.250
 iter      E             dE          RMSdq      gap      omega  full diag
   1    -50.5306252 -0.505306E+02  0.706E+00    7.88       0.0  T
   2    -50.5819238 -0.512985E-01  0.496E+00    6.81       1.0  T
   3    -50.6199873 -0.380636E-01  0.121E+00    4.89       1.0  T
   4    -50.6247646 -0.477722E-02  0.603E-01    5.20       1.0  T
   5    -50.6258581 -0.109357E-02  0.291E-01    5.17       1.0  T
   6    -50.6262743 -0.416208E-03  0.157E-01    5.10       1.0  T
   7    -50.6264211 -0.146719E-03  0.596E-02    5.10       1.0  T
   8    -50.6264448 -0.237573E-04  0.240E-02    5.12       1.0  T
   9    -50.6264478 -0.296947E-05  0.122E-02    5.13       1.6  T
  10    -50.6264486 -0.760128E-06  0.272E-03    5.13       7.2  T
  11    -50.6264486 -0.246961E-07  0.126E-03    5.13      15.5  T
  12    -50.6264486 -0.693534E-08  0.476E-04    5.13      41.2  T
  13    -50.6264486 -0.108523E-08  0.194E-04    5.13     101.3  T
speedup  1.00
cpu  time for SCC    0.01 s
wall time for SCC    0.01 s

   *** convergence criteria satisfied after 13 iterations ***

          eigenvalues
 #    :          28         29         30         31         32         33         34         35
 occ. :        2.000      2.000      2.000      2.000      2.000      2.000      2.000      2.000
 eps  :       -12.928    -12.721    -12.652    -12.545    -12.446    -12.339    -12.080    -11.886
 #    :          36         37         38         39         40         41         42         43
 occ. :        2.000      2.000      2.000      2.000      2.000      0.000      0.000      0.000
 eps  :       -11.300    -10.953    -10.938    -10.719     -9.744     -4.612     -1.728     -1.177
 #    :          44         45         46         47         48         49         50         51
 occ. :        0.000      0.000      0.000      0.000      0.000      0.000      0.000      0.000
 eps  :        -0.690      0.839      1.123      1.872      2.829      3.055      3.521      4.691


   #   Z            q   n(s)   n(p)   n(d)      C6AA      α(0)
   1  16 S      1.650  1.633  1.796  0.921    89.905    15.959
   2   8 O     -0.680  1.766  4.913  0.000    28.160     7.115
   3   8 O     -0.633  1.772  4.861  0.000    26.932     6.958
   4   8 O     -0.612  1.760  4.852  0.000    25.456     6.811
   5   8 O     -0.608  1.762  4.846  0.000    25.360     6.798
   6   1 H      0.380  0.620  0.000  0.000     0.520     1.131
   7   1 H      0.387  0.613  0.000  0.000     0.508     1.118
   8   8 O     -0.849  1.831  5.018  0.000    33.064     7.711
   9   1 H      0.219  0.781  0.000  0.000     1.025     1.590
  10   8 O     -0.851  1.825  5.026  0.000    33.133     7.719
  11   1 H      0.212  0.788  0.000  0.000     1.060     1.618
  12   8 O     -0.664  1.755  4.909  0.000    26.779     6.984
  13   1 H      0.337  0.663  0.000  0.000     0.616     1.231
  14   1 H      0.279  0.721  0.000  0.000     0.788     1.394
  15   8 O     -0.463  1.661  4.802  0.000    22.046     6.341
  16   1 H      0.400  0.600  0.000  0.000     0.481     1.087
  17   1 H      0.401  0.599  0.000  0.000     0.477     1.083
  18   1 H      0.382  0.618  0.000  0.000     0.518     1.131
  19   8 O     -0.456  1.663  4.793  0.000    21.911     6.322
  20   1 H      0.404  0.596  0.000  0.000     0.473     1.077
  21   1 H      0.402  0.598  0.000  0.000     0.475     1.080
  22   1 H      0.370  0.630  0.000  0.000     0.543     1.158
  23   7 N     -0.446  1.402  4.043  0.000    31.689     8.360
  24   1 H      0.147  0.853  0.000  0.000     1.424     1.869
  25   1 H      0.135  0.865  0.000  0.000     1.508     1.923
  26   1 H      0.156  0.844  0.000  0.000     1.360     1.827

 Mol. C6AA /au·bohr⁶  :       5528.563601
 Mol. C8AA /au·bohr⁸  :     119421.106732
 Mol. α(0) /au        :        107.396498

 
 Wiberg/Mayer (AO) data. WBOs > 0.1 written file <wbo>
 largest (>0.05) Wiberg bond orders for each atom
           total WBO             WBO to atom ...
     1  S   4.757    O    3 1.469    O    2 1.382    O    5 0.978    O    4 0.901
     2  O   1.753    S    1 1.382    O    3 0.137    O    5 0.099    O    4 0.096
     3  O   1.809    S    1 1.469    O    2 0.137    O    4 0.094    O    5 0.087
     4  O   1.960    S    1 0.901    H    7 0.769    O    2 0.096    O    3 0.094    O    5 0.057
     5  O   1.978    S    1 0.978    H    6 0.693    O    2 0.099    O    3 0.087    O    4 0.057
     6  H   0.856    O    5 0.693    O    8 0.148
     7  H   0.851    O    4 0.769    O   12 0.063
     8  O   1.634    H    9 0.943    H   21 0.185    H   16 0.174    H    6 0.148    O   19 0.059    O   15 0.057
     9  H   0.952    O    8 0.943
    10  O   1.616    H   11 0.941    H   20 0.188    H   17 0.180    H   13 0.124    O   19 0.060    O   15 0.058    O   12 0.051
    11  H   0.955    O   10 0.941
    12  O   1.809    H   14 0.908    H   13 0.762    H    7 0.063    O   10 0.051
    13  H   0.886    O   12 0.762    O   10 0.124
    14  H   0.922    O   12 0.908
    15  O   2.275    H   18 0.819    H   16 0.661    H   17 0.655    O   10 0.058    O    8 0.057
    16  H   0.840    O   15 0.661    O    8 0.174
    17  H   0.839    O   15 0.655    O   10 0.180
    18  H   0.854    O   15 0.819
    19  O   2.275    H   22 0.846    H   21 0.649    H   20 0.645    O   10 0.060    O    8 0.059
    20  H   0.837    O   19 0.645    O   10 0.188
    21  H   0.838    O   19 0.649    O    8 0.185
    22  H   0.863    O   19 0.846
    23  N   2.929    H   25 0.980    H   24 0.973    H   26 0.969
    24  H   0.978    N   23 0.973
    25  H   0.982    N   23 0.980
    26  H   0.976    N   23 0.969
 MOs/occ written to file <molden.input>
 
molecular dipole:
                 x           y           z       tot (Debye)
 q only:        0.194      -0.340      -2.225
   full:        0.412      -0.054      -2.375       6.128
molecular quadrupole (traceless):
                xx          xy          yy          xz          yz          zz
 q only:        4.910       0.489       3.802       1.959      -2.493      -8.711
  q+dip:        2.789      -5.414       2.040       7.813      -4.366      -4.829
   full:        2.619      -6.208       2.085       7.997      -4.551      -4.704

SCC energy    :     -50.6264486
rep           :       0.2713582
ES            :       0.2781391
AES           :      -0.0490760
AXC           :      -0.0029745
disp          :      -0.0190840
XB            :       0.0000000
fix           :       0.0000000
total E       :     -50.3548719
atomizationE  :       4.8851761     3065.49
(atE without considering molecular charge,
 total energy contains solvation terms)
H-L gap (eV)  :          5.1317
           ------------------------------------------------- 
          |                 ===============                 |
          |                   A N C O P T                   |
          |                 ===============                 |
          |          Approximate Normal Coordinate          |
          |           Rational Function Optimizer           |
           ------------------------------------------------- 
dumping coords to <xtbopt.coord> and <xtbopt.log>
 optlevel               2
 Maxcycle             520
 Maxmicro              25
 Econv         1.000000000000000E-007
 Gconv         2.000000000000000E-004
 Maxdispl       1.00000000000000     
 Hlow          5.000000000000000E-003
 S6             20.0000000000000     
 Nvar               72

generating ANC from model Hessian ...
 Shifting diagonal of input Hessian by   5.214050169037146E-003
 Lowest  eigenvalues of input Hessian
    0.005000    0.005147   -0.000000   -0.000000    0.000000    0.000000
    0.000000    0.000000    0.005615    0.005776    0.005876    0.006159
    0.006328    0.006449    0.006779    0.006966    0.007808    0.008471
 Highest eigenvalues
    1.562261    1.592967    1.596938    1.951510    2.768217    3.590445
 
cpu  time for ANC gen    0.02 s
wall time for ANC gen    0.02 s
................................................................................
.............................. CYCLE    1 ......................................
................................................................................
   1    -50.6264486 -0.506264E+02  0.399E-05    5.13       0.0  T
   2    -50.6264486 -0.349587E-11  0.294E-05    5.13     666.8  T
   3    -50.6264486 -0.150635E-11  0.122E-05    5.13    1605.9  T
speedup  1.00
cpu  time for SCC    0.00 s
wall time for SCC    0.00 s
speedup  0.96
cpu  time for grad    0.01 s
wall time for grad    0.01 s
 E :    -50.35487191  G :  0.197925    pred/act E change:  0.000D+00  0.213D-07
Maxdispl :   0.1275   ||displ|| :   0.2583   Lambda : -0.369D-01
Largest |displ|/coords:  0.1275 (  54)  0.0873 (  19)  0.0752 (  43)
................................................................................
.............................. CYCLE    2 ......................................
................................................................................
   1    -50.6434274 -0.506434E+02  0.323E-01    5.61       0.0  T
   2    -50.6436462 -0.218754E-03  0.235E-01    5.62       1.0  T
   3    -50.6437558 -0.109609E-03  0.670E-02    5.63       1.0  T
   4    -50.6437686 -0.128391E-04  0.240E-02    5.64       1.0  T
   5    -50.6437699 -0.131406E-05  0.684E-03    5.64       2.9  T
   6    -50.6437700 -0.927218E-07  0.323E-03    5.64       6.1  T
   7    -50.6437700 -0.174070E-07  0.134E-03    5.64      14.6  T
speedup  0.92
cpu  time for SCC    0.01 s
wall time for SCC    0.01 s
speedup  0.96
cpu  time for grad    0.01 s
wall time for grad    0.01 s
 E :    -50.38299300  G :  0.108177    pred/act E change:  0.000D+00 -0.281D-01
Maxdispl :   0.1001   ||displ|| :   0.2829   Lambda : -0.163D-01
Largest |displ|/coords:  0.1001 (  54)  0.0966 (  19)  0.0932 (   4)
................................................................................
.............................. CYCLE    3 ......................................
................................................................................
   1    -50.6504426 -0.506504E+02  0.297E-01    6.03       0.0  T
   2    -50.6507383 -0.295711E-03  0.213E-01    6.04       1.0  T
   3    -50.6508646 -0.126258E-03  0.713E-02    6.05       1.0  T
   4    -50.6508773 -0.127493E-04  0.171E-02    6.05       1.1  T
   5    -50.6508779 -0.601295E-06  0.469E-03    6.05       4.2  T
   6    -50.6508780 -0.413403E-07  0.237E-03    6.05       8.3  T
speedup  0.88
cpu  time for SCC    0.00 s
wall time for SCC    0.01 s
speedup  0.94
cpu  time for grad    0.01 s
wall time for grad    0.01 s
 E :    -50.39590514  G :  0.067548    pred/act E change: -0.197D-01 -0.129D-01
Maxdispl :   0.1227   ||displ|| :   0.3013   Lambda : -0.804D-02
Largest |displ|/coords:  0.1227 (  19)  0.1205 (   4)  0.0937 (  23)
................................................................................
.............................. CYCLE    4 ......................................
................................................................................
   1    -50.6535736 -0.506536E+02  0.266E-01    6.33       0.0  T
   2    -50.6538537 -0.280025E-03  0.187E-01    6.33       1.0  T
   3    -50.6539677 -0.114036E-03  0.680E-02    6.34       1.0  T
   4    -50.6539776 -0.995116E-05  0.131E-02    6.35       1.5  T
   5    -50.6539779 -0.287749E-06  0.411E-03    6.35       4.8  T
   6    -50.6539779 -0.241684E-07  0.208E-03    6.35       9.4  T
speedup  1.09
cpu  time for SCC    0.01 s
wall time for SCC    0.01 s
speedup  1.04
cpu  time for grad    0.01 s
wall time for grad    0.01 s
 E :    -50.40237923  G :  0.044056    pred/act E change: -0.878D-02 -0.647D-02
Maxdispl :   0.1872   ||displ|| :   0.4313   Lambda : -0.745D-02
Largest |displ|/coords:  0.1872 (  19)  0.1412 (  23)  0.1390 (   4)
................................................................................
.............................. CYCLE    5 ......................................
................................................................................
   1    -50.6557558 -0.506558E+02  0.393E-01    6.72       0.0  T
   2    -50.6564396 -0.683774E-03  0.272E-01    6.73       1.0  T
   3    -50.6567096 -0.269999E-03  0.104E-01    6.74       1.0  T
   4    -50.6567315 -0.218584E-04  0.209E-02    6.74       1.0  T
   5    -50.6567322 -0.695812E-06  0.736E-03    6.74       2.7  T
   6    -50.6567322 -0.781231E-07  0.352E-03    6.74       5.6  T
   7    -50.6567323 -0.237583E-07  0.122E-03    6.74      16.1  T
speedup  1.11
cpu  time for SCC    0.01 s
wall time for SCC    0.01 s
speedup  1.05
cpu  time for grad    0.01 s
wall time for grad    0.01 s
 E :    -50.40703118  G :  0.026696    pred/act E change: -0.438D-02 -0.465D-02
Maxdispl :   0.1949   ||displ|| :   0.3457   Lambda : -0.203D-02
Largest |displ|/coords:  0.1949 (   4)  0.1518 (   5)  0.0885 (  23)
................................................................................
.............................. CYCLE    6 ......................................
................................................................................
   1    -50.6554890 -0.506555E+02  0.231E-01    6.76       0.0  T
   2    -50.6555618 -0.728230E-04  0.168E-01    6.76       1.0  T
   3    -50.6555891 -0.272343E-04  0.411E-02    6.76       1.0  T
   4    -50.6555975 -0.840934E-05  0.846E-03    6.76       2.3  T
   5    -50.6555976 -0.883488E-07  0.298E-03    6.76       6.6  T
   6    -50.6555976 -0.976657E-08  0.139E-03    6.76      14.1  T
speedup  1.07
cpu  time for SCC    0.01 s
wall time for SCC    0.01 s
speedup  1.03
cpu  time for grad    0.01 s
wall time for grad    0.01 s
 E :    -50.40841748  G :  0.025333    pred/act E change: -0.442D-02 -0.139D-02
Maxdispl :   0.2780   ||displ|| :   0.4608   Lambda : -0.240D-02
Largest |displ|/coords:  0.2780 (   5)  0.1552 (  19)  0.1484 (  13)
................................................................................
.............................. CYCLE    7 ......................................
................................................................................
   1    -50.6601097 -0.506601E+02  0.277E-01    6.80       0.0  T
   2    -50.6602442 -0.134488E-03  0.200E-01    6.79       1.0  T
   3    -50.6603082 -0.640238E-04  0.593E-02    6.77       1.0  T
   4    -50.6603208 -0.125985E-04  0.118E-02    6.78       1.7  T
   5    -50.6603211 -0.262399E-06  0.563E-03    6.78       3.5  T
   6    -50.6603211 -0.395826E-07  0.244E-03    6.78       8.0  T
speedup  0.93
cpu  time for SCC    0.00 s
wall time for SCC    0.01 s
speedup  0.97
cpu  time for grad    0.01 s
wall time for grad    0.01 s
 E :    -50.40971586  G :  0.029361    pred/act E change: -0.114D-02 -0.130D-02
Maxdispl :   0.2135   ||displ|| :   0.3723   Lambda : -0.194D-02
Largest |displ|/coords:  0.2135 (   5)  0.1447 (   4)  0.1170 (  20)
................................................................................
.............................. CYCLE    8 ......................................
................................................................................
   1    -50.6642415 -0.506642E+02  0.251E-01    6.68       0.0  T
   2    -50.6642902 -0.487054E-04  0.187E-01    6.66       1.0  T
   3    -50.6643177 -0.274866E-04  0.416E-02    6.62       1.0  T
   4    -50.6643243 -0.666387E-05  0.830E-03    6.63       2.4  T
   5    -50.6643245 -0.145298E-06  0.381E-03    6.63       5.1  T
   6    -50.6643245 -0.112997E-07  0.170E-03    6.63      11.5  T
speedup  1.09
cpu  time for SCC    0.01 s
wall time for SCC    0.01 s
speedup  1.03
cpu  time for grad    0.01 s
wall time for grad    0.01 s
 E :    -50.41064895  G :  0.027561    pred/act E change: -0.145D-02 -0.933D-03
Maxdispl :   0.2004   ||displ|| :   0.3964   Lambda : -0.225D-02
Largest |displ|/coords:  0.2004 (   5)  0.1479 (  12)  0.1356 (   3)
................................................................................
.............................. CYCLE    9 ......................................
................................................................................
   1    -50.6609670 -0.506610E+02  0.387E-01    6.50       0.0  T
   2    -50.6611019 -0.134899E-03  0.289E-01    6.48       1.0  T
   3    -50.6611609 -0.590350E-04  0.702E-02    6.44       1.0  T
   4    -50.6611785 -0.175945E-04  0.184E-02    6.45       1.1  T
   5    -50.6611797 -0.119512E-05  0.571E-03    6.45       3.4  T
   6    -50.6611797 -0.271091E-07  0.313E-03    6.45       6.3  T
speedup  0.91
cpu  time for SCC    0.00 s
wall time for SCC    0.01 s
speedup  0.96
cpu  time for grad    0.01 s
wall time for grad    0.01 s
 E :    -50.41123865  G :  0.034968    pred/act E change: -0.111D-02 -0.590D-03
Maxdispl :   0.1312   ||displ|| :   0.2392   Lambda : -0.187D-02
Largest |displ|/coords:  0.1312 (  12)  0.0839 (   9)  0.0803 (   5)
................................................................................
.............................. CYCLE   10 ......................................
................................................................................
   1    -50.6658907 -0.506659E+02  0.242E-01    6.46       0.0  T
   2    -50.6659185 -0.278000E-04  0.183E-01    6.48       1.0  T
   3    -50.6659409 -0.223617E-04  0.306E-02    6.50       1.0  T
   4    -50.6659445 -0.357982E-05  0.791E-03    6.49       2.5  T
   5    -50.6659446 -0.932521E-07  0.361E-03    6.49       5.4  T
   6    -50.6659446 -0.149404E-07  0.167E-03    6.49      11.8  T
speedup  0.91
cpu  time for SCC    0.00 s
wall time for SCC    0.01 s
speedup  0.92
cpu  time for grad    0.01 s
wall time for grad    0.01 s
 E :    -50.41213247  G :  0.022754    pred/act E change: -0.130D-02 -0.894D-03
Maxdispl :   0.1830   ||displ|| :   0.3872   Lambda : -0.195D-02
Largest |displ|/coords:  0.1830 (   7)  0.1509 (   3)  0.1335 (  19)
................................................................................
.............................. CYCLE   11 ......................................
................................................................................
   1    -50.6708322 -0.506708E+02  0.296E-01    6.69       0.0  T
   2    -50.6709246 -0.923920E-04  0.216E-01    6.66       1.0  T
   3    -50.6709704 -0.458008E-04  0.503E-02    6.61       1.0  T
   4    -50.6709820 -0.116219E-04  0.122E-02    6.63       1.6  T
   5    -50.6709823 -0.234946E-06  0.552E-03    6.63       3.6  T
   6    -50.6709823 -0.401647E-07  0.261E-03    6.63       7.5  T
speedup  1.09
cpu  time for SCC    0.01 s
wall time for SCC    0.01 s
speedup  1.04
cpu  time for grad    0.01 s
wall time for grad    0.01 s
 E :    -50.41207052  G :  0.043158    pred/act E change: -0.988D-03  0.619D-04
Maxdispl :   0.1084   ||displ|| :   0.2071   Lambda : -0.220D-02
Largest |displ|/coords:  0.1084 (  10)  0.1041 (   5)  0.0664 (   1)
................................................................................
.............................. CYCLE   12 ......................................
................................................................................
   1    -50.6744622 -0.506745E+02  0.140E-01    6.64       0.0  T
   2    -50.6744796 -0.174016E-04  0.104E-01    6.66       1.0  T
   3    -50.6744909 -0.113117E-04  0.232E-02    6.68       1.0  T
   4    -50.6744929 -0.204388E-05  0.804E-03    6.67       2.4  T
   5    -50.6744930 -0.878223E-07  0.281E-03    6.67       7.0  T
   6    -50.6744930 -0.125202E-07  0.139E-03    6.67      14.1  T
speedup  0.91
cpu  time for SCC    0.01 s
wall time for SCC    0.01 s
speedup  0.96
cpu  time for grad    0.01 s
wall time for grad    0.01 s
 E :    -50.41355235  G :  0.027933    pred/act E change: -0.112D-02 -0.148D-02
Maxdispl :   0.2651   ||displ|| :   0.5377   Lambda : -0.344D-02
Largest |displ|/coords:  0.2651 (  10)  0.2290 (   5)  0.1579 (   6)
................................................................................
.............................. CYCLE   13 ......................................
................................................................................
   1    -50.6607043 -0.506607E+02  0.427E-01    6.63       0.0  T
   2    -50.6608935 -0.189162E-03  0.312E-01    6.69       1.0  T
   3    -50.6609790 -0.854815E-04  0.764E-02    6.78       1.0  T
   4    -50.6610021 -0.231187E-04  0.208E-02    6.74       1.0  T
   5    -50.6610029 -0.790119E-06  0.802E-03    6.74       2.4  T
   6    -50.6610030 -0.115082E-06  0.425E-03    6.74       4.6  T
   7    -50.6610030 -0.305510E-07  0.109E-03    6.74      18.0  T
speedup  0.94
cpu  time for SCC    0.01 s
wall time for SCC    0.01 s
speedup  0.97
cpu  time for grad    0.01 s
wall time for grad    0.01 s
 E :    -50.41363134  G :  0.053436    pred/act E change: -0.115D-02 -0.790D-04
Maxdispl :   0.2219   ||displ|| :   0.4104   Lambda : -0.847D-02
Largest |displ|/coords:  0.2219 (   7)  0.1982 (  10)  0.1580 (   8)
................................................................................
.............................. CYCLE   14 ......................................
................................................................................
   1    -50.6885536 -0.506886E+02  0.391E-01    6.95       0.0  T
   2    -50.6886963 -0.142665E-03  0.281E-01    6.89       1.0  T
   3    -50.6887598 -0.634653E-04  0.615E-02    6.79       1.0  T
   4    -50.6887757 -0.159395E-04  0.149E-02    6.84       1.3  T
   5    -50.6887760 -0.295951E-06  0.699E-03    6.83       2.8  T
   6    -50.6887760 -0.403823E-07  0.283E-03    6.83       6.9  T
   7    -50.6887761 -0.197893E-07  0.921E-04    6.83      21.3  T
speedup  0.97
cpu  time for SCC    0.01 s
wall time for SCC    0.01 s
speedup  0.98
cpu  time for grad    0.01 s
wall time for grad    0.01 s
 E :    -50.41553168  G :  0.057483    pred/act E change: -0.222D-02 -0.190D-02
Maxdispl :   0.1390   ||displ|| :   0.3127   Lambda : -0.539D-02
Largest |displ|/coords:  0.1390 (   3)  0.1222 (  10)  0.1132 (   5)
................................................................................
.............................. CYCLE   15 ......................................
................................................................................
   1    -50.6749565 -0.506750E+02  0.281E-01    6.79       0.0  T
   2    -50.6750470 -0.905029E-04  0.205E-01    6.82       1.0  T
   3    -50.6750913 -0.443007E-04  0.504E-02    6.87       1.0  T
   4    -50.6751013 -0.100168E-04  0.145E-02    6.85       1.4  T
   5    -50.6751017 -0.434562E-06  0.543E-03    6.85       3.6  T
   6    -50.6751018 -0.471098E-07  0.308E-03    6.85       6.4  T
speedup  1.09
cpu  time for SCC    0.01 s
wall time for SCC    0.01 s
speedup  1.03
cpu  time for grad    0.01 s
wall time for grad    0.01 s
 E :    -50.41829388  G :  0.035103    pred/act E change: -0.495D-02 -0.276D-02
Maxdispl :   0.1406   ||displ|| :   0.3431   Lambda : -0.312D-02
Largest |displ|/coords:  0.1406 (  21)  0.1259 (   5)  0.0979 (   3)
................................................................................
.............................. CYCLE   16 ......................................
................................................................................
   1    -50.6811893 -0.506812E+02  0.202E-01    6.87       0.0  T
   2    -50.6812632 -0.739608E-04  0.155E-01    6.89       1.0  T
   3    -50.6813158 -0.526273E-04  0.532E-02    6.91       1.0  T
   4    -50.6813249 -0.908698E-05  0.196E-02    6.91       1.0  T
   5    -50.6813257 -0.749286E-06  0.546E-03    6.91       3.6  T
   6    -50.6813257 -0.273821E-07  0.287E-03    6.91       6.8  T
speedup  0.89
cpu  time for SCC    0.01 s
wall time for SCC    0.01 s
speedup  0.94
cpu  time for grad    0.01 s
wall time for grad    0.01 s
 E :    -50.42082715  G :  0.036488    pred/act E change: -0.296D-02 -0.253D-02
Maxdispl :   0.2892   ||displ|| :   0.5879   Lambda : -0.782D-02
Largest |displ|/coords:  0.2892 (  21)  0.2030 (  25)  0.1707 (   3)
................................................................................
.............................. CYCLE   17 ......................................
................................................................................
   1    -50.7050132 -0.507050E+02  0.424E-01    7.06       0.0  T
   2    -50.7055216 -0.508355E-03  0.319E-01    7.08       1.0  T
   3    -50.7058288 -0.307271E-03  0.122E-01    7.12       1.0  T
   4    -50.7058723 -0.434924E-04  0.432E-02    7.13       1.0  T
   5    -50.7058765 -0.417738E-05  0.131E-02    7.13       1.5  T
   6    -50.7058767 -0.223026E-06  0.841E-03    7.13       2.3  T
   7    -50.7058768 -0.635331E-07  0.167E-03    7.13      11.7  T
   8    -50.7058768 -0.821665E-08  0.571E-04    7.13      34.3  T
speedup  0.97
cpu  time for SCC    0.01 s
wall time for SCC    0.01 s
speedup  0.98
cpu  time for grad    0.01 s
wall time for grad    0.02 s
 E :    -50.42515969  G :  0.056180    pred/act E change: -0.174D-02 -0.433D-02
Maxdispl :   0.1418   ||displ|| :   0.2862   Lambda : -0.583D-02
Largest |displ|/coords:  0.1418 (  22)  0.1048 (  11)  0.0715 (  30)
................................................................................
.............................. CYCLE   18 ......................................
................................................................................
   1    -50.6905371 -0.506905E+02  0.243E-01    6.96       0.0  T
   2    -50.6906044 -0.673525E-04  0.179E-01    6.95       1.0  T
   3    -50.6906531 -0.486526E-04  0.433E-02    6.93       1.0  T
   4    -50.6906589 -0.582717E-05  0.158E-02    6.93       1.2  T
   5    -50.6906593 -0.416782E-06  0.470E-03    6.93       4.2  T
   6    -50.6906593 -0.387978E-07  0.266E-03    6.93       7.4  T
speedup  1.09
cpu  time for SCC    0.01 s
wall time for SCC    0.01 s
speedup  1.03
cpu  time for grad    0.01 s
wall time for grad    0.01 s
 E :    -50.42633228  G :  0.034507    pred/act E change: -0.526D-02 -0.117D-02
Maxdispl :   0.1288   ||displ|| :   0.3371   Lambda : -0.434D-02
Largest |displ|/coords:  0.1288 (  25)  0.1281 (  21)  0.0960 (   5)
................................................................................
.............................. CYCLE   19 ......................................
................................................................................
   1    -50.7014556 -0.507015E+02  0.243E-01    7.03       0.0  T
   2    -50.7016019 -0.146317E-03  0.181E-01    7.03       1.0  T
   3    -50.7016729 -0.709689E-04  0.693E-02    7.04       1.0  T
   4    -50.7016841 -0.112596E-04  0.210E-02    7.04       1.0  T
   5    -50.7016854 -0.121486E-05  0.651E-03    7.04       3.0  T
   6    -50.7016854 -0.499079E-07  0.374E-03    7.04       5.2  T
   7    -50.7016854 -0.175042E-07  0.924E-04    7.04      21.2  T
speedup  0.94
cpu  time for SCC    0.01 s
wall time for SCC    0.01 s
speedup  0.97
cpu  time for grad    0.01 s
wall time for grad    0.01 s
 E :    -50.42882838  G :  0.029271    pred/act E change: -0.316D-02 -0.250D-02
Maxdispl :   0.2020   ||displ|| :   0.4696   Lambda : -0.433D-02
Largest |displ|/coords:  0.2020 (  21)  0.1267 (   3)  0.1230 (  25)
................................................................................
.............................. CYCLE   20 ......................................
................................................................................
   1    -50.7097345 -0.507097E+02  0.352E-01    7.02       0.0  T
   2    -50.7099658 -0.231289E-03  0.265E-01    7.03       1.0  T
   3    -50.7101057 -0.139845E-03  0.877E-02    7.05       1.0  T
   4    -50.7101277 -0.219992E-04  0.305E-02    7.05       1.0  T
   5    -50.7101297 -0.204308E-05  0.924E-03    7.05       2.1  T
   6    -50.7101298 -0.102845E-06  0.528E-03    7.05       3.7  T
   7    -50.7101298 -0.372507E-07  0.128E-03    7.05      15.3  T
speedup  1.08
cpu  time for SCC    0.01 s
wall time for SCC    0.01 s
speedup  1.03
cpu  time for grad    0.01 s
wall time for grad    0.01 s
 E :    -50.42889511  G :  0.056418    pred/act E change: -0.242D-02 -0.667D-04
Maxdispl :   0.1772   ||displ|| :   0.4085   Lambda : -0.874D-02
Largest |displ|/coords:  0.1772 (  21)  0.1171 (  16)  0.1134 (  11)
................................................................................
.............................. CYCLE   21 ......................................
................................................................................
   1    -50.7039316 -0.507039E+02  0.352E-01    6.93       0.0  T
   2    -50.7042129 -0.281323E-03  0.261E-01    6.93       1.0  T
   3    -50.7043733 -0.160369E-03  0.865E-02    6.91       1.0  T
   4    -50.7043959 -0.226742E-04  0.303E-02    6.90       1.0  T
   5    -50.7043982 -0.230324E-05  0.992E-03    6.90       2.0  T
   6    -50.7043983 -0.120265E-06  0.496E-03    6.90       4.0  T
   7    -50.7043984 -0.307244E-07  0.126E-03    6.90      15.6  T
speedup  0.94
cpu  time for SCC    0.01 s
wall time for SCC    0.01 s
speedup  0.97
cpu  time for grad    0.01 s
wall time for grad    0.01 s
 E :    -50.42922721  G :  0.043137    pred/act E change: -0.264D-02 -0.332D-03
Maxdispl :   0.0833   ||displ|| :   0.1981   Lambda : -0.366D-02
Largest |displ|/coords:  0.0833 (  21)  0.0662 (  11)  0.0639 (  16)
................................................................................
.............................. CYCLE   22 ......................................
................................................................................
   1    -50.7071393 -0.507071E+02  0.185E-01    6.94       0.0  T
   2    -50.7072032 -0.639246E-04  0.138E-01    6.94       1.0  T
   3    -50.7072376 -0.343360E-04  0.474E-02    6.95       1.0  T
   4    -50.7072431 -0.555264E-05  0.168E-02    6.95       1.2  T
   5    -50.7072437 -0.617593E-06  0.444E-03    6.95       4.4  T
   6    -50.7072438 -0.232860E-07  0.236E-03    6.95       8.3  T
speedup  1.03
cpu  time for SCC    0.01 s
wall time for SCC    0.01 s
speedup  1.01
cpu  time for grad    0.01 s
wall time for grad    0.01 s
 E :    -50.43161333  G :  0.023416    pred/act E change: -0.510D-02 -0.239D-02
Maxdispl :   0.1439   ||displ|| :   0.2898   Lambda : -0.209D-02
Largest |displ|/coords:  0.1439 (  21)  0.0986 (  18)  0.0732 (  25)
................................................................................
.............................. CYCLE   23 ......................................
................................................................................
   1    -50.7154083 -0.507154E+02  0.225E-01    6.99       0.0  T
   2    -50.7155005 -0.921866E-04  0.172E-01    7.00       1.0  T
   3    -50.7155596 -0.591096E-04  0.589E-02    7.01       1.0  T
   4    -50.7155702 -0.105690E-04  0.224E-02    7.02       1.0  T
   5    -50.7155709 -0.757742E-06  0.610E-03    7.02       3.2  T
   6    -50.7155710 -0.570294E-07  0.308E-03    7.02       6.4  T
   7    -50.7155710 -0.161680E-07  0.895E-04    7.01      21.9  T
speedup  1.08
cpu  time for SCC    0.01 s
wall time for SCC    0.01 s
speedup  1.03
cpu  time for grad    0.01 s
wall time for grad    0.01 s
 E :    -50.43178810  G :  0.040261    pred/act E change: -0.190D-02 -0.175D-03
Maxdispl :   0.0669   ||displ|| :   0.1828   Lambda : -0.256D-02
Largest |displ|/coords:  0.0669 (  17)  0.0665 (  14)  0.0600 (  12)
................................................................................
.............................. CYCLE   24 ......................................
................................................................................
   1    -50.7144237 -0.507144E+02  0.137E-01    6.97       0.0  T
   2    -50.7144439 -0.201828E-04  0.998E-02    6.96       1.0  T
   3    -50.7144552 -0.113488E-04  0.253E-02    6.95       1.0  T
   4    -50.7144569 -0.170627E-05  0.851E-03    6.95       2.3  T
   5    -50.7144571 -0.120466E-06  0.227E-03    6.95       8.7  T
   6    -50.7144571 -0.103115E-07  0.124E-03    6.95      15.8  T
speedup  0.91
cpu  time for SCC    0.01 s
wall time for SCC    0.01 s
speedup  0.96
cpu  time for grad    0.01 s
wall time for grad    0.01 s
 E :    -50.43320647  G :  0.028364    pred/act E change: -0.113D-02 -0.142D-02
Maxdispl :   0.0799   ||displ|| :   0.2291   Lambda : -0.224D-02
Largest |displ|/coords:  0.0799 (   7)  0.0727 (  18)  0.0693 (  15)
................................................................................
.............................. CYCLE   25 ......................................
................................................................................
   1    -50.7129670 -0.507130E+02  0.216E-01    6.97       0.0  T
   2    -50.7130479 -0.809444E-04  0.164E-01    6.96       1.0  T
   3    -50.7130881 -0.401529E-04  0.546E-02    6.94       1.0  T
   4    -50.7130964 -0.830793E-05  0.166E-02    6.94       1.2  T
   5    -50.7130971 -0.711436E-06  0.517E-03    6.94       3.8  T
   6    -50.7130971 -0.298408E-07  0.273E-03    6.94       7.2  T
speedup  1.05
cpu  time for SCC    0.01 s
wall time for SCC    0.01 s
speedup  1.02
cpu  time for grad    0.01 s
wall time for grad    0.01 s
 E :    -50.43412827  G :  0.039365    pred/act E change: -0.132D-02 -0.922D-03
Maxdispl :   0.1188   ||displ|| :   0.3103   Lambda : -0.316D-02
Largest |displ|/coords:  0.1188 (  14)  0.0940 (   3)  0.0825 (  30)

generating ANC from model Hessian ...
 Shifting diagonal of input Hessian by   4.922272841789172E-003
 Lowest  eigenvalues of input Hessian
   -0.000000   -0.000000   -0.000000   -0.000000    0.000000    0.000000
    0.005000    0.005103    0.005187    0.005498    0.005724    0.006061
    0.006200    0.006416    0.007121    0.007423    0.008119    0.008731
 Highest eigenvalues
    1.393048    1.397170    1.437420    2.521684    3.391427    3.832537
 
cpu  time for ANC gen    0.02 s
wall time for ANC gen    0.02 s
................................................................................
.............................. CYCLE   26 ......................................
................................................................................
   1    -50.7208752 -0.507209E+02  0.236E-01    6.94       0.0  T
   2    -50.7210004 -0.125180E-03  0.178E-01    6.93       1.0  T
   3    -50.7210615 -0.611643E-04  0.667E-02    6.90       1.0  T
   4    -50.7210719 -0.104066E-04  0.241E-02    6.91       1.0  T
   5    -50.7210730 -0.110955E-05  0.653E-03    6.91       3.0  T
   6    -50.7210731 -0.836943E-07  0.349E-03    6.91       5.6  T
   7    -50.7210731 -0.155449E-07  0.101E-03    6.91      19.3  T
   8    -50.7210731 -0.288340E-08  0.324E-04    6.91      60.5  T
   9    -50.7210731 -0.291323E-09  0.999E-05    6.91     196.3  T
speedup  1.10
cpu  time for SCC    0.01 s
wall time for SCC    0.01 s
speedup  1.01
cpu  time for grad    0.02 s
wall time for grad    0.02 s
 E :    -50.43651779  G :  0.031812    pred/act E change:  0.000D+00 -0.239D-02
Maxdispl :   0.1273   ||displ|| :   0.2355   Lambda : -0.187D-02
Largest |displ|/coords:  0.1273 (  14)  0.0892 (  12)  0.0862 (  19)
................................................................................
.............................. CYCLE   27 ......................................
................................................................................
   1    -50.7221730 -0.507222E+02  0.159E-01    6.89       0.0  T
   2    -50.7221858 -0.127585E-04  0.119E-01    6.89       1.0  T
   3    -50.7221923 -0.656819E-05  0.204E-02    6.90       1.0  T
   4    -50.7221943 -0.201422E-05  0.557E-03    6.90       3.5  T
   5    -50.7221944 -0.535925E-07  0.228E-03    6.90       8.6  T
speedup  1.04
cpu  time for SCC    0.00 s
wall time for SCC    0.00 s
speedup  1.00
cpu  time for grad    0.01 s
wall time for grad    0.01 s
 E :    -50.43793984  G :  0.021644    pred/act E change:  0.000D+00 -0.142D-02
Maxdispl :   0.1408   ||displ|| :   0.3792   Lambda : -0.192D-02
Largest |displ|/coords:  0.1408 (  19)  0.1342 (   4)  0.1256 (  14)
................................................................................
.............................. CYCLE   28 ......................................
................................................................................
   1    -50.7218709 -0.507219E+02  0.271E-01    6.85       0.0  T
   2    -50.7219197 -0.488319E-04  0.203E-01    6.85       1.0  T
   3    -50.7219453 -0.255666E-04  0.418E-02    6.85       1.0  T
   4    -50.7219527 -0.745585E-05  0.121E-02    6.85       1.6  T
   5    -50.7219530 -0.294034E-06  0.467E-03    6.85       4.2  T
   6    -50.7219531 -0.253785E-07  0.265E-03    6.85       7.4  T
speedup  0.89
cpu  time for SCC    0.00 s
wall time for SCC    0.01 s
speedup  0.96
cpu  time for grad    0.01 s
wall time for grad    0.01 s
 E :    -50.43929148  G :  0.024421    pred/act E change: -0.988D-03 -0.135D-02
Maxdispl :   0.1379   ||displ|| :   0.3938   Lambda : -0.160D-02
Largest |displ|/coords:  0.1379 (   4)  0.1298 (  14)  0.1170 (   9)
................................................................................
.............................. CYCLE   29 ......................................
................................................................................
   1    -50.7237673 -0.507238E+02  0.217E-01    6.82       0.0  T
   2    -50.7238240 -0.567319E-04  0.161E-01    6.82       1.0  T
   3    -50.7238521 -0.280946E-04  0.425E-02    6.81       1.0  T
   4    -50.7238589 -0.677709E-05  0.128E-02    6.81       1.5  T
   5    -50.7238593 -0.377387E-06  0.512E-03    6.81       3.8  T
   6    -50.7238593 -0.355787E-07  0.278E-03    6.81       7.1  T
speedup  1.07
cpu  time for SCC    0.01 s
wall time for SCC    0.01 s
speedup  1.03
cpu  time for grad    0.01 s
wall time for grad    0.01 s
 E :    -50.44054886  G :  0.026732    pred/act E change: -0.110D-02 -0.126D-02
Maxdispl :   0.1775   ||displ|| :   0.5417   Lambda : -0.264D-02
Largest |displ|/coords:  0.1775 (   1)  0.1607 (  14)  0.1565 (   4)
................................................................................
.............................. CYCLE   30 ......................................
................................................................................
   1    -50.7281306 -0.507281E+02  0.362E-01    6.81       0.0  T
   2    -50.7282966 -0.166079E-03  0.273E-01    6.80       1.0  T
   3    -50.7283917 -0.950318E-04  0.795E-02    6.77       1.0  T
   4    -50.7284122 -0.205575E-04  0.233E-02    6.78       1.0  T
   5    -50.7284136 -0.135409E-05  0.921E-03    6.78       2.1  T
   6    -50.7284137 -0.855255E-07  0.489E-03    6.78       4.0  T
   7    -50.7284137 -0.464455E-07  0.901E-04    6.78      21.8  T
speedup  0.94
cpu  time for SCC    0.01 s
wall time for SCC    0.01 s
speedup  0.97
cpu  time for grad    0.01 s
wall time for grad    0.01 s
 E :    -50.44222359  G :  0.028057    pred/act E change: -0.926D-03 -0.167D-02
Maxdispl :   0.1324   ||displ|| :   0.3347   Lambda : -0.259D-02
Largest |displ|/coords:  0.1324 (   1)  0.1142 (  28)  0.1061 (  31)
................................................................................
.............................. CYCLE   31 ......................................
................................................................................
   1    -50.7472155 -0.507472E+02  0.238E-01    6.86       0.0  T
   2    -50.7473071 -0.915702E-04  0.177E-01    6.85       1.0  T
   3    -50.7473692 -0.621034E-04  0.579E-02    6.83       1.0  T
   4    -50.7473778 -0.865622E-05  0.151E-02    6.84       1.3  T
   5    -50.7473784 -0.529007E-06  0.682E-03    6.84       2.9  T
   6    -50.7473784 -0.377494E-07  0.322E-03    6.84       6.1  T
   7    -50.7473784 -0.186731E-07  0.958E-04    6.84      20.5  T
speedup  1.08
cpu  time for SCC    0.01 s
wall time for SCC    0.01 s
speedup  1.03
cpu  time for grad    0.01 s
wall time for grad    0.01 s
 E :    -50.44194708  G :  0.047397    pred/act E change: -0.170D-02  0.277D-03
Maxdispl :   0.0952   ||displ|| :   0.2273   Lambda : -0.324D-02
Largest |displ|/coords:  0.0952 (  23)  0.0722 (   2)  0.0707 (  11)
................................................................................
.............................. CYCLE   32 ......................................
................................................................................
   1    -50.7373371 -0.507373E+02  0.202E-01    6.86       0.0  T
   2    -50.7373789 -0.417830E-04  0.148E-01    6.85       1.0  T
   3    -50.7374038 -0.249278E-04  0.357E-02    6.85       1.0  T
   4    -50.7374080 -0.423517E-05  0.107E-02    6.85       1.8  T
   5    -50.7374083 -0.270208E-06  0.419E-03    6.85       4.7  T
   6    -50.7374083 -0.179370E-07  0.218E-03    6.85       9.0  T
speedup  0.89
cpu  time for SCC    0.00 s
wall time for SCC    0.01 s
speedup  1.02
cpu  time for grad    0.01 s
wall time for grad    0.01 s
 E :    -50.44361130  G :  0.016420    pred/act E change: -0.144D-02 -0.166D-02
Maxdispl :   0.1097   ||displ|| :   0.2125   Lambda : -0.870D-03
Largest |displ|/coords:  0.1097 (   4)  0.0675 (  11)  0.0671 (  10)
................................................................................
.............................. CYCLE   33 ......................................
................................................................................
   1    -50.7365270 -0.507365E+02  0.162E-01    6.84       0.0  T
   2    -50.7365386 -0.115533E-04  0.121E-01    6.84       1.0  T
   3    -50.7365453 -0.666532E-05  0.192E-02    6.85       1.0  T
   4    -50.7365469 -0.162957E-05  0.673E-03    6.85       2.9  T
   5    -50.7365470 -0.103411E-06  0.233E-03    6.84       8.4  T
   6    -50.7365470 -0.437699E-08  0.121E-03    6.84      16.1  T
speedup  1.07
cpu  time for SCC    0.01 s
wall time for SCC    0.01 s
speedup  1.01
cpu  time for grad    0.01 s
wall time for grad    0.01 s
 E :    -50.44375008  G :  0.016082    pred/act E change: -0.170D-02 -0.139D-03
Maxdispl :   0.1297   ||displ|| :   0.2035   Lambda : -0.594D-03
Largest |displ|/coords:  0.1297 (   1)  0.0907 (   4)  0.0440 (  12)
................................................................................
.............................. CYCLE   34 ......................................
................................................................................
   1    -50.7390891 -0.507391E+02  0.113E-01    6.89       0.0  T
   2    -50.7390983 -0.917911E-05  0.849E-02    6.88       1.0  T
   3    -50.7391045 -0.627713E-05  0.192E-02    6.86       1.0  T
   4    -50.7391059 -0.134604E-05  0.597E-03    6.86       3.3  T
   5    -50.7391060 -0.655467E-07  0.249E-03    6.86       7.9  T
   6    -50.7391060 -0.834993E-08  0.130E-03    6.86      15.1  T
speedup  1.07
cpu  time for SCC    0.01 s
wall time for SCC    0.01 s
speedup  1.02
cpu  time for grad    0.01 s
wall time for grad    0.01 s
 E :    -50.44411562  G :  0.009488    pred/act E change: -0.455D-03 -0.366D-03
Maxdispl :   0.1262   ||displ|| :   0.2140   Lambda : -0.318D-03
Largest |displ|/coords:  0.1262 (   1)  0.0892 (  10)  0.0577 (  17)
................................................................................
.............................. CYCLE   35 ......................................
................................................................................
   1    -50.7385280 -0.507385E+02  0.121E-01    6.87       0.0  T
   2    -50.7385353 -0.735559E-05  0.900E-02    6.87       1.0  T
   3    -50.7385402 -0.482589E-05  0.161E-02    6.88       1.2  T
   4    -50.7385411 -0.929089E-06  0.489E-03    6.88       4.0  T
   5    -50.7385411 -0.437912E-07  0.204E-03    6.88       9.6  T
   6    -50.7385411 -0.568636E-08  0.101E-03    6.88      19.4  T
speedup  0.89
cpu  time for SCC    0.00 s
wall time for SCC    0.01 s
speedup  0.95
cpu  time for grad    0.01 s
wall time for grad    0.01 s
 E :    -50.44416334  G :  0.014340    pred/act E change: -0.309D-03 -0.477D-04
Maxdispl :   0.1019   ||displ|| :   0.1408   Lambda : -0.313D-03
Largest |displ|/coords:  0.1019 (   1)  0.0449 (   3)  0.0406 (   8)
................................................................................
.............................. CYCLE   36 ......................................
................................................................................
   1    -50.7416740 -0.507417E+02  0.769E-02    6.90       0.0  T
   2    -50.7416767 -0.269072E-05  0.571E-02    6.90       1.0  T
   3    -50.7416782 -0.151327E-05  0.924E-03    6.88       2.1  T
   4    -50.7416786 -0.382363E-06  0.282E-03    6.89       6.9  T
   5    -50.7416786 -0.126455E-07  0.110E-03    6.89      17.9  T
speedup  1.06
cpu  time for SCC    0.01 s
wall time for SCC    0.00 s
speedup  1.02
cpu  time for grad    0.01 s
wall time for grad    0.01 s
 E :    -50.44431042  G :  0.005471    pred/act E change: -0.166D-03 -0.147D-03
Maxdispl :   0.1261   ||displ|| :   0.1700   Lambda : -0.187D-03
Largest |displ|/coords:  0.1261 (   1)  0.0596 (   3)  0.0574 (  10)
................................................................................
.............................. CYCLE   37 ......................................
................................................................................
   1    -50.7397323 -0.507397E+02  0.104E-01    6.89       0.0  T
   2    -50.7397377 -0.539698E-05  0.776E-02    6.89       1.0  T
   3    -50.7397410 -0.323584E-05  0.134E-02    6.89       1.5  T
   4    -50.7397417 -0.777760E-06  0.353E-03    6.89       5.6  T
   5    -50.7397418 -0.239084E-07  0.140E-03    6.89      14.0  T
   6    -50.7397418 -0.211078E-08  0.832E-04    6.89      23.6  T
speedup  0.91
cpu  time for SCC    0.00 s
wall time for SCC    0.01 s
speedup  1.03
cpu  time for grad    0.01 s
wall time for grad    0.01 s
 E :    -50.44437208  G :  0.010384    pred/act E change: -0.160D-03 -0.617D-04
Maxdispl :   0.0920   ||displ|| :   0.1235   Lambda : -0.143D-03
Largest |displ|/coords:  0.0920 (   1)  0.0476 (   3)  0.0280 (   9)
................................................................................
.............................. CYCLE   38 ......................................
................................................................................
   1    -50.7399950 -0.507400E+02  0.482E-02    6.90       0.0  T
   2    -50.7399963 -0.127039E-05  0.360E-02    6.90       1.0  T
   3    -50.7399973 -0.102195E-05  0.664E-03    6.90       3.0  T
   4    -50.7399975 -0.154183E-06  0.191E-03    6.90      10.3  T
   5    -50.7399975 -0.519494E-08  0.861E-04    6.90      22.8  T
speedup  1.09
cpu  time for SCC    0.00 s
wall time for SCC    0.00 s
speedup  1.03
cpu  time for grad    0.01 s
wall time for grad    0.01 s
 E :    -50.44446723  G :  0.005511    pred/act E change: -0.962D-04 -0.952D-04
Maxdispl :   0.2251   ||displ|| :   0.3300   Lambda : -0.224D-03
Largest |displ|/coords:  0.2251 (   1)  0.1294 (   3)  0.1160 (  10)
................................................................................
.............................. CYCLE   39 ......................................
................................................................................
   1    -50.7390808 -0.507391E+02  0.147E-01    6.90       0.0  T
   2    -50.7390857 -0.491996E-05  0.108E-01    6.91       1.0  T
   3    -50.7390889 -0.322012E-05  0.123E-02    6.93       1.6  T
   4    -50.7390895 -0.580300E-06  0.348E-03    6.92       5.6  T
   5    -50.7390895 -0.140311E-07  0.156E-03    6.92      12.6  T
   6    -50.7390895 -0.269304E-08  0.630E-04    6.92      31.1  T
speedup  0.91
cpu  time for SCC    0.01 s
wall time for SCC    0.01 s
speedup  0.96
cpu  time for grad    0.01 s
wall time for grad    0.01 s
 E :    -50.44451874  G :  0.009191    pred/act E change: -0.727D-04 -0.515D-04
Maxdispl :   0.1542   ||displ|| :   0.1961   Lambda : -0.206D-03
Largest |displ|/coords:  0.1542 (   1)  0.0818 (   3)  0.0378 (   8)
................................................................................
.............................. CYCLE   40 ......................................
................................................................................
   1    -50.7401841 -0.507402E+02  0.734E-02    6.96       0.0  T
   2    -50.7401859 -0.186041E-05  0.551E-02    6.95       1.0  T
   3    -50.7401871 -0.119780E-05  0.807E-03    6.94       2.4  T
   4    -50.7401874 -0.318669E-06  0.220E-03    6.95       8.9  T
   5    -50.7401874 -0.672574E-08  0.967E-04    6.95      20.3  T
speedup  1.02
cpu  time for SCC    0.00 s
wall time for SCC    0.00 s
speedup  1.01
cpu  time for grad    0.01 s
wall time for grad    0.01 s
 E :    -50.44464197  G :  0.005099    pred/act E change: -0.124D-03 -0.123D-03
Maxdispl :   0.1398   ||displ|| :   0.1883   Lambda : -0.106D-03
Largest |displ|/coords:  0.1398 (   1)  0.0848 (   3)  0.0560 (   6)
................................................................................
.............................. CYCLE   41 ......................................
................................................................................
   1    -50.7394120 -0.507394E+02  0.860E-02    6.97       0.0  T
   2    -50.7394142 -0.221821E-05  0.640E-02    6.97       1.0  T
   3    -50.7394160 -0.176673E-05  0.888E-03    6.97       2.2  T
   4    -50.7394163 -0.243370E-06  0.260E-03    6.97       7.5  T
   5    -50.7394163 -0.856855E-08  0.109E-03    6.97      18.0  T
speedup  0.85
cpu  time for SCC    0.00 s
wall time for SCC    0.00 s
speedup  0.94
cpu  time for grad    0.01 s
wall time for grad    0.01 s
 E :    -50.44471060  G :  0.006025    pred/act E change: -0.107D-03 -0.686D-04
Maxdispl :   0.1565   ||displ|| :   0.2303   Lambda : -0.104D-03
Largest |displ|/coords:  0.1565 (   1)  0.1108 (   3)  0.0825 (   6)
................................................................................
.............................. CYCLE   42 ......................................
................................................................................
   1    -50.7392992 -0.507393E+02  0.104E-01    7.00       0.0  T
   2    -50.7393014 -0.225299E-05  0.769E-02    7.01       1.0  T
   3    -50.7393036 -0.219115E-05  0.938E-03    7.01       2.1  T
   4    -50.7393038 -0.145255E-06  0.320E-03    7.01       6.1  T
   5    -50.7393038 -0.127270E-07  0.109E-03    7.01      18.0  T
   6    -50.7393038 -0.131833E-08  0.596E-04    7.01      32.9  T
speedup  1.07
cpu  time for SCC    0.01 s
wall time for SCC    0.01 s
speedup  1.02
cpu  time for grad    0.01 s
wall time for grad    0.01 s
 E :    -50.44478346  G :  0.006127    pred/act E change: -0.551D-04 -0.729D-04
Maxdispl :   0.1748   ||displ|| :   0.2643   Lambda : -0.113D-03
Largest |displ|/coords:  0.1748 (   1)  0.1212 (   3)  0.0900 (   6)
................................................................................
.............................. CYCLE   43 ......................................
................................................................................
   1    -50.7391444 -0.507391E+02  0.119E-01    7.05       0.0  T
   2    -50.7391470 -0.260205E-05  0.878E-02    7.05       1.0  T
   3    -50.7391497 -0.266913E-05  0.107E-02    7.05       1.8  T
   4    -50.7391498 -0.155994E-06  0.361E-03    7.05       5.4  T
   5    -50.7391499 -0.167262E-07  0.122E-03    7.05      16.0  T
   6    -50.7391499 -0.144676E-08  0.657E-04    7.05      29.8  T
speedup  0.91
cpu  time for SCC    0.00 s
wall time for SCC    0.01 s
speedup  0.96
cpu  time for grad    0.01 s
wall time for grad    0.01 s
 E :    -50.44486026  G :  0.006773    pred/act E change: -0.549D-04 -0.768D-04
Maxdispl :   0.1338   ||displ|| :   0.2280   Lambda : -0.113D-03
Largest |displ|/coords:  0.1338 (   1)  0.1114 (   3)  0.0905 (   6)
................................................................................
.............................. CYCLE   44 ......................................
................................................................................
   1    -50.7394074 -0.507394E+02  0.115E-01    7.08       0.0  T
   2    -50.7394101 -0.275092E-05  0.843E-02    7.08       1.0  T
   3    -50.7394128 -0.266618E-05  0.111E-02    7.09       1.8  T
   4    -50.7394130 -0.168668E-06  0.354E-03    7.09       5.5  T
   5    -50.7394130 -0.163487E-07  0.121E-03    7.09      16.2  T
   6    -50.7394130 -0.145175E-08  0.645E-04    7.09      30.4  T
speedup  1.09
cpu  time for SCC    0.01 s
wall time for SCC    0.01 s
speedup  1.03
cpu  time for grad    0.01 s
wall time for grad    0.01 s
 E :    -50.44493592  G :  0.006068    pred/act E change: -0.604D-04 -0.757D-04
Maxdispl :   0.2192   ||displ|| :   0.3301   Lambda : -0.125D-03
Largest |displ|/coords:  0.2192 (   1)  0.1499 (   3)  0.0963 (   6)
................................................................................
.............................. CYCLE   45 ......................................
................................................................................
   1    -50.7392898 -0.507393E+02  0.144E-01    7.13       0.0  T
   2    -50.7392932 -0.343939E-05  0.107E-01    7.13       1.0  T
   3    -50.7392972 -0.402844E-05  0.129E-02    7.12       1.5  T
   4    -50.7392974 -0.151406E-06  0.397E-03    7.13       4.9  T
   5    -50.7392974 -0.217246E-07  0.154E-03    7.13      12.8  T
   6    -50.7392974 -0.231281E-08  0.722E-04    7.13      27.2  T
speedup  0.89
cpu  time for SCC    0.00 s
wall time for SCC    0.01 s
speedup  0.95
cpu  time for grad    0.01 s
wall time for grad    0.01 s
 E :    -50.44501916  G :  0.005760    pred/act E change: -0.593D-04 -0.832D-04
Maxdispl :   0.2577   ||displ|| :   0.3615   Lambda : -0.116D-03
Largest |displ|/coords:  0.2577 (   1)  0.1665 (   3)  0.1097 (   6)
................................................................................
.............................. CYCLE   46 ......................................
................................................................................
   1    -50.7383891 -0.507384E+02  0.164E-01    7.16       0.0  T
   2    -50.7383942 -0.514775E-05  0.121E-01    7.17       1.0  T
   3    -50.7383994 -0.510855E-05  0.141E-02    7.17       1.4  T
   4    -50.7383997 -0.302878E-06  0.555E-03    7.17       3.5  T
   5    -50.7383997 -0.292161E-07  0.159E-03    7.17      12.4  T
   6    -50.7383997 -0.224294E-08  0.816E-04    7.17      24.0  T
speedup  1.09
cpu  time for SCC    0.01 s
wall time for SCC    0.01 s
speedup  1.03
cpu  time for grad    0.01 s
wall time for grad    0.01 s
 E :    -50.44506240  G :  0.008080    pred/act E change: -0.692D-04 -0.432D-04
Maxdispl :   0.0813   ||displ|| :   0.1847   Lambda : -0.170D-03
Largest |displ|/coords:  0.0813 (   3)  0.0804 (   1)  0.0568 (   2)
................................................................................
.............................. CYCLE   47 ......................................
................................................................................
   1    -50.7427045 -0.507427E+02  0.924E-02    7.19       0.0  T
   2    -50.7427090 -0.451700E-05  0.675E-02    7.18       1.0  T
   3    -50.7427114 -0.237979E-05  0.147E-02    7.17       1.3  T
   4    -50.7427120 -0.553851E-06  0.423E-03    7.17       4.6  T
   5    -50.7427120 -0.233225E-07  0.135E-03    7.17      14.5  T
   6    -50.7427120 -0.307568E-08  0.626E-04    7.17      31.3  T
speedup  0.91
cpu  time for SCC    0.00 s
wall time for SCC    0.01 s
speedup  0.96
cpu  time for grad    0.01 s
wall time for grad    0.01 s
 E :    -50.44508703  G :  0.007914    pred/act E change: -0.656D-04 -0.246D-04
Maxdispl :   0.2022   ||displ|| :   0.3235   Lambda : -0.199D-03
Largest |displ|/coords:  0.2022 (   1)  0.1525 (   6)  0.1350 (   3)
................................................................................
.............................. CYCLE   48 ......................................
................................................................................
   1    -50.7384013 -0.507384E+02  0.170E-01    7.19       0.0  T
   2    -50.7384088 -0.752972E-05  0.125E-01    7.21       1.0  T
   3    -50.7384139 -0.509786E-05  0.134E-02    7.23       1.5  T
   4    -50.7384148 -0.875591E-06  0.442E-03    7.22       4.4  T
   5    -50.7384148 -0.142075E-07  0.182E-03    7.22      10.8  T
   6    -50.7384148 -0.412771E-08  0.607E-04    7.22      32.3  T
speedup  1.09
cpu  time for SCC    0.01 s
wall time for SCC    0.01 s
speedup  1.02
cpu  time for grad    0.01 s
wall time for grad    0.01 s
 E :    -50.44509009  G :  0.012697    pred/act E change: -0.881D-04 -0.306D-05
Maxdispl :   0.0546   ||displ|| :   0.1103   Lambda : -0.272D-03
Largest |displ|/coords:  0.0546 (   6)  0.0480 (   1)  0.0392 (   9)
................................................................................
.............................. CYCLE   49 ......................................
................................................................................
   1    -50.7389217 -0.507389E+02  0.928E-02    7.25       0.0  T
   2    -50.7389238 -0.212941E-05  0.679E-02    7.24       1.0  T
   3    -50.7389254 -0.158004E-05  0.757E-03    7.23       2.6  T
   4    -50.7389256 -0.213807E-06  0.246E-03    7.23       8.0  T
   5    -50.7389256 -0.614662E-08  0.996E-04    7.23      19.7  T
speedup  0.85
cpu  time for SCC    0.00 s
wall time for SCC    0.00 s
speedup  0.93
cpu  time for grad    0.01 s
wall time for grad    0.01 s
 E :    -50.44519781  G :  0.006133    pred/act E change: -0.110D-03 -0.108D-03
Maxdispl :   0.1288   ||displ|| :   0.2212   Lambda : -0.103D-03
Largest |displ|/coords:  0.1288 (   1)  0.1160 (   3)  0.0824 (   6)
................................................................................
.............................. CYCLE   50 ......................................
................................................................................
   1    -50.7406444 -0.507406E+02  0.951E-02    7.27       0.0  T
   2    -50.7406465 -0.211797E-05  0.700E-02    7.26       1.0  T
   3    -50.7406484 -0.185045E-05  0.948E-03    7.26       2.1  T
   4    -50.7406486 -0.168038E-06  0.333E-03    7.26       5.9  T
   5    -50.7406486 -0.118280E-07  0.106E-03    7.26      18.5  T
   6    -50.7406486 -0.115782E-08  0.522E-04    7.26      37.5  T
speedup  1.07
cpu  time for SCC    0.01 s
wall time for SCC    0.01 s
speedup  1.01
cpu  time for grad    0.01 s
wall time for grad    0.01 s
 E :    -50.44527074  G :  0.004445    pred/act E change: -0.137D-03 -0.729D-04
Maxdispl :   0.3890   ||displ|| :   0.6154   Lambda : -0.157D-03
Largest |displ|/coords:  0.3890 (   1)  0.3261 (   3)  0.1971 (   6)
................................................................................
.............................. CYCLE   51 ......................................
................................................................................
   1    -50.7398127 -0.507398E+02  0.232E-01    7.35       0.0  T
   2    -50.7398218 -0.912265E-05  0.172E-01    7.35       1.0  T
   3    -50.7398314 -0.955989E-05  0.191E-02    7.35       1.0  T
   4    -50.7398319 -0.503506E-06  0.765E-03    7.35       2.6  T
   5    -50.7398319 -0.547415E-07  0.234E-03    7.35       8.4  T
   6    -50.7398319 -0.427181E-08  0.119E-03    7.35      16.5  T
speedup  1.05
cpu  time for SCC    0.01 s
wall time for SCC    0.01 s
speedup  1.00
cpu  time for grad    0.01 s
wall time for grad    0.01 s
 E :    -50.44543273  G :  0.006898    pred/act E change: -0.542D-04 -0.162D-03
Maxdispl :   0.3406   ||displ|| :   0.5397   Lambda : -0.202D-03
Largest |displ|/coords:  0.3406 (   1)  0.3079 (   3)  0.1468 (   6)
................................................................................
.............................. CYCLE   52 ......................................
................................................................................
   1    -50.7394428 -0.507394E+02  0.174E-01    7.43       0.0  T
   2    -50.7394482 -0.540823E-05  0.129E-01    7.44       1.0  T
   3    -50.7394538 -0.564373E-05  0.146E-02    7.44       1.3  T
   4    -50.7394542 -0.329982E-06  0.578E-03    7.44       3.4  T
   5    -50.7394542 -0.344053E-07  0.179E-03    7.44      10.9  T
   6    -50.7394542 -0.297515E-08  0.913E-04    7.44      21.5  T
speedup  0.89
cpu  time for SCC    0.00 s
wall time for SCC    0.01 s
speedup  1.01
cpu  time for grad    0.01 s
wall time for grad    0.01 s
 E :    -50.44565390  G :  0.008237    pred/act E change: -0.108D-03 -0.221D-03
Maxdispl :   0.3573   ||displ|| :   0.5702   Lambda : -0.288D-03
Largest |displ|/coords:  0.3573 (   1)  0.3363 (   3)  0.1416 (   6)

generating ANC from model Hessian ...
 Shifting diagonal of input Hessian by   5.537783893420231E-003
 Lowest  eigenvalues of input Hessian
    0.005000   -0.000000   -0.000000   -0.000000   -0.000000    0.000000
    0.000000    0.005588    0.005732    0.006112    0.006479    0.006574
    0.006890    0.007069    0.007418    0.007963    0.008069    0.008441
 Highest eigenvalues
    1.393058    1.399257    1.408934    2.648003    3.243566    3.831632
 
cpu  time for ANC gen    0.02 s
wall time for ANC gen    0.02 s
................................................................................
.............................. CYCLE   53 ......................................
................................................................................
   1    -50.7380174 -0.507380E+02  0.175E-01    7.53       0.0  T
   2    -50.7380227 -0.532898E-05  0.130E-01    7.53       1.0  T
   3    -50.7380283 -0.553737E-05  0.147E-02    7.54       1.3  T
   4    -50.7380286 -0.313899E-06  0.520E-03    7.54       3.8  T
   5    -50.7380286 -0.286484E-07  0.181E-03    7.54      10.8  T
   6    -50.7380286 -0.287577E-08  0.845E-04    7.54      23.2  T
   7    -50.7380286 -0.122203E-08  0.218E-04    7.54      89.9  T
speedup  1.11
cpu  time for SCC    0.01 s
wall time for SCC    0.01 s
speedup  1.06
cpu  time for grad    0.02 s
wall time for grad    0.02 s
 E :    -50.44594118  G :  0.011098    pred/act E change:  0.000D+00 -0.287D-03
Maxdispl :   0.1670   ||displ|| :   0.2422   Lambda : -0.599D-03
Largest |displ|/coords:  0.1670 (   1)  0.0811 (  12)  0.0810 (  10)
................................................................................
.............................. CYCLE   54 ......................................
................................................................................
   1    -50.7397279 -0.507397E+02  0.228E-01    7.61       0.0  T
   2    -50.7397376 -0.968670E-05  0.167E-01    7.61       1.0  T
   3    -50.7397476 -0.100090E-04  0.140E-02    7.61       1.4  T
   4    -50.7397479 -0.284313E-06  0.464E-03    7.61       4.2  T
   5    -50.7397479 -0.181860E-07  0.204E-03    7.61       9.6  T
   6    -50.7397479 -0.460846E-08  0.749E-04    7.61      26.2  T
speedup  1.05
cpu  time for SCC    0.01 s
wall time for SCC    0.01 s
speedup  1.01
cpu  time for grad    0.01 s
wall time for grad    0.01 s
 E :    -50.44641045  G :  0.007430    pred/act E change:  0.000D+00 -0.469D-03
Maxdispl :   0.4068   ||displ|| :   0.4837   Lambda : -0.782D-03
Largest |displ|/coords:  0.4068 (   1)  0.1230 (  10)  0.1050 (  12)
................................................................................
.............................. CYCLE   55 ......................................
................................................................................
   1    -50.7387842 -0.507388E+02  0.342E-01    7.73       0.0  T
   2    -50.7388113 -0.271648E-04  0.250E-01    7.75       1.0  T
   3    -50.7388351 -0.237696E-04  0.263E-02    7.80       1.0  T
   4    -50.7388370 -0.185657E-05  0.888E-03    7.78       2.2  T
   5    -50.7388370 -0.747781E-07  0.382E-03    7.78       5.1  T
   6    -50.7388371 -0.257459E-07  0.141E-03    7.79      13.9  T
   7    -50.7388371 -0.546290E-08  0.482E-04    7.79      40.7  T
speedup  1.08
cpu  time for SCC    0.01 s
wall time for SCC    0.01 s
speedup  1.01
cpu  time for grad    0.01 s
wall time for grad    0.01 s
 E :    -50.44693567  G :  0.015046    pred/act E change: -0.317D-03 -0.525D-03
Maxdispl :   0.3277   ||displ|| :   0.3841   Lambda : -0.678D-03
Largest |displ|/coords:  0.3277 (   1)  0.0746 (   6)  0.0651 (   2)
................................................................................
.............................. CYCLE   56 ......................................
................................................................................
   1    -50.7416977 -0.507417E+02  0.164E-01    7.89       0.0  T
   2    -50.7417052 -0.742045E-05  0.121E-01    7.90       1.0  T
   3    -50.7417116 -0.648220E-05  0.184E-02    7.91       1.1  T
   4    -50.7417123 -0.695188E-06  0.571E-03    7.92       3.4  T
   5    -50.7417124 -0.483827E-07  0.230E-03    7.92       8.5  T
   6    -50.7417124 -0.812860E-08  0.121E-03    7.91      16.3  T
speedup  1.09
cpu  time for SCC    0.01 s
wall time for SCC    0.01 s
speedup  1.03
cpu  time for grad    0.01 s
wall time for grad    0.01 s
 E :    -50.44733951  G :  0.013030    pred/act E change: -0.483D-03 -0.404D-03
Maxdispl :   0.2098   ||displ|| :   0.2996   Lambda : -0.475D-03
Largest |displ|/coords:  0.2098 (   1)  0.1124 (  10)  0.1000 (   4)
................................................................................
.............................. CYCLE   57 ......................................
................................................................................
   1    -50.7420526 -0.507421E+02  0.167E-01    7.94       0.0  T
   2    -50.7420588 -0.628750E-05  0.122E-01    7.95       1.0  T
   3    -50.7420646 -0.572328E-05  0.151E-02    7.97       1.3  T
   4    -50.7420650 -0.385696E-06  0.430E-03    7.96       4.6  T
   5    -50.7420650 -0.264704E-07  0.191E-03    7.96      10.3  T
   6    -50.7420650 -0.558734E-08  0.934E-04    7.97      21.0  T
speedup  0.91
cpu  time for SCC    0.00 s
wall time for SCC    0.01 s
speedup  0.95
cpu  time for grad    0.01 s
wall time for grad    0.01 s
 E :    -50.44764990  G :  0.008302    pred/act E change: -0.389D-03 -0.310D-03
Maxdispl :   0.1515   ||displ|| :   0.2313   Lambda : -0.371D-03
Largest |displ|/coords:  0.1515 (   4)  0.0767 (  10)  0.0643 (   8)
................................................................................
.............................. CYCLE   58 ......................................
................................................................................
   1    -50.7440123 -0.507440E+02  0.125E-01    7.95       0.0  T
   2    -50.7440238 -0.114435E-04  0.899E-02    7.93       1.0  T
   3    -50.7440281 -0.432391E-05  0.199E-02    7.89       1.0  T
   4    -50.7440295 -0.135661E-05  0.440E-03    7.90       4.5  T
   5    -50.7440295 -0.285521E-07  0.161E-03    7.90      12.2  T
   6    -50.7440295 -0.256065E-08  0.789E-04    7.90      24.9  T
speedup  1.05
cpu  time for SCC    0.01 s
wall time for SCC    0.01 s
speedup  1.00
cpu  time for grad    0.01 s
wall time for grad    0.01 s
 E :    -50.44776215  G :  0.010049    pred/act E change: -0.259D-03 -0.112D-03
Maxdispl :   0.2484   ||displ|| :   0.3479   Lambda : -0.384D-03
Largest |displ|/coords:  0.2484 (   1)  0.1331 (  10)  0.1225 (   4)
................................................................................
.............................. CYCLE   59 ......................................
................................................................................
   1    -50.7381418 -0.507381E+02  0.220E-01    7.85       0.0  T
   2    -50.7381599 -0.180934E-04  0.161E-01    7.88       1.0  T
   3    -50.7381706 -0.107459E-04  0.261E-02    7.92       1.0  T
   4    -50.7381728 -0.219045E-05  0.706E-03    7.90       2.8  T
   5    -50.7381729 -0.599277E-07  0.288E-03    7.90       6.8  T
   6    -50.7381729 -0.128660E-07  0.127E-03    7.91      15.5  T
speedup  1.07
cpu  time for SCC    0.01 s
wall time for SCC    0.01 s
speedup  0.94
cpu  time for grad    0.01 s
wall time for grad    0.01 s
 E :    -50.44788282  G :  0.011130    pred/act E change: -0.195D-03 -0.121D-03
Maxdispl :   0.0554   ||displ|| :   0.1032   Lambda : -0.236D-03
Largest |displ|/coords:  0.0554 (  12)  0.0513 (   1)  0.0364 (  10)
................................................................................
.............................. CYCLE   60 ......................................
................................................................................
   1    -50.7415322 -0.507415E+02  0.719E-02    7.94       0.0  T
   2    -50.7415345 -0.232315E-05  0.527E-02    7.93       1.0  T
   3    -50.7415358 -0.133832E-05  0.835E-03    7.91       2.3  T
   4    -50.7415361 -0.306663E-06  0.251E-03    7.92       7.8  T
   5    -50.7415362 -0.642623E-08  0.951E-04    7.92      20.6  T
speedup  0.87
cpu  time for SCC    0.00 s
wall time for SCC    0.00 s
speedup  1.01
cpu  time for grad    0.01 s
wall time for grad    0.01 s
 E :    -50.44801224  G :  0.004249    pred/act E change: -0.215D-03 -0.129D-03
Maxdispl :   0.0771   ||displ|| :   0.1541   Lambda : -0.139D-03
Largest |displ|/coords:  0.0771 (   4)  0.0712 (  10)  0.0687 (  11)
................................................................................
.............................. CYCLE   61 ......................................
................................................................................
   1    -50.7417522 -0.507418E+02  0.801E-02    7.92       0.0  T
   2    -50.7417533 -0.110879E-05  0.592E-02    7.91       1.0  T
   3    -50.7417543 -0.924806E-06  0.810E-03    7.91       2.4  T
   4    -50.7417544 -0.115574E-06  0.287E-03    7.91       6.8  T
   5    -50.7417544 -0.922030E-08  0.779E-04    7.91      25.2  T
speedup  0.87
cpu  time for SCC    0.00 s
wall time for SCC    0.00 s
speedup  0.93
cpu  time for grad    0.01 s
wall time for grad    0.01 s
 E :    -50.44810026  G :  0.007312    pred/act E change: -0.119D-03 -0.880D-04
Maxdispl :   0.2195   ||displ|| :   0.3654   Lambda : -0.240D-03
Largest |displ|/coords:  0.2195 (   4)  0.1485 (  11)  0.1248 (  10)
................................................................................
.............................. CYCLE   62 ......................................
................................................................................
   1    -50.7394429 -0.507394E+02  0.197E-01    7.88       0.0  T
   2    -50.7394491 -0.617221E-05  0.145E-01    7.88       1.0  T
   3    -50.7394555 -0.636017E-05  0.211E-02    7.89       1.0  T
   4    -50.7394559 -0.465586E-06  0.551E-03    7.89       3.6  T
   5    -50.7394560 -0.561340E-07  0.220E-03    7.89       8.9  T
   6    -50.7394560 -0.778737E-08  0.130E-03    7.89      15.1  T
speedup  1.07
cpu  time for SCC    0.01 s
wall time for SCC    0.01 s
speedup  1.01
cpu  time for grad    0.01 s
wall time for grad    0.01 s
 E :    -50.44817750  G :  0.009455    pred/act E change: -0.710D-04 -0.772D-04
Maxdispl :   0.1008   ||displ|| :   0.1715   Lambda : -0.245D-03
Largest |displ|/coords:  0.1008 (   4)  0.0751 (   1)  0.0560 (  10)
................................................................................
.............................. CYCLE   63 ......................................
................................................................................
   1    -50.7401422 -0.507401E+02  0.101E-01    7.90       0.0  T
   2    -50.7401447 -0.246305E-05  0.742E-02    7.90       1.0  T
   3    -50.7401472 -0.248240E-05  0.111E-02    7.91       1.8  T
   4    -50.7401473 -0.172273E-06  0.386E-03    7.91       5.1  T
   5    -50.7401474 -0.210955E-07  0.123E-03    7.91      16.0  T
   6    -50.7401474 -0.193667E-08  0.727E-04    7.91      27.0  T
speedup  1.02
cpu  time for SCC    0.01 s
wall time for SCC    0.01 s
speedup  0.97
cpu  time for grad    0.01 s
wall time for grad    0.01 s
 E :    -50.44829770  G :  0.007417    pred/act E change: -0.136D-03 -0.120D-03
Maxdispl :   0.0443   ||displ|| :   0.0918   Lambda : -0.942D-04
Largest |displ|/coords:  0.0443 (   4)  0.0439 (  10)  0.0307 (   2)
................................................................................
.............................. CYCLE   64 ......................................
................................................................................
   1    -50.7410907 -0.507411E+02  0.506E-02    7.95       0.0  T
   2    -50.7410912 -0.560141E-06  0.376E-02    7.95       1.0  T
   3    -50.7410918 -0.554623E-06  0.520E-03    7.95       3.8  T
   4    -50.7410918 -0.512276E-07  0.156E-03    7.95      12.6  T
   5    -50.7410918 -0.452198E-08  0.603E-04    7.95      32.5  T
speedup  0.98
cpu  time for SCC    0.00 s
wall time for SCC    0.01 s
speedup  1.02
cpu  time for grad    0.01 s
wall time for grad    0.01 s
 E :    -50.44836552  G :  0.004472    pred/act E change: -0.126D-03 -0.678D-04
Maxdispl :   0.1597   ||displ|| :   0.2854   Lambda : -0.126D-03
Largest |displ|/coords:  0.1597 (   4)  0.1333 (  10)  0.0997 (  11)
................................................................................
.............................. CYCLE   65 ......................................
................................................................................
   1    -50.7394393 -0.507394E+02  0.157E-01    7.96       0.0  T
   2    -50.7394443 -0.499791E-05  0.116E-01    7.97       1.0  T
[...]
wall time for grad    0.01 s
 E :    -50.44860640  G :  0.001803    pred/act E change: -0.508D-05 -0.725D-05
Maxdispl :   0.0429   ||displ|| :   0.0639   Lambda : -0.746D-05
Largest |displ|/coords:  0.0429 (   2)  0.0222 (   3)  0.0151 (  13)
................................................................................
.............................. CYCLE   77 ......................................
................................................................................
   1    -50.7415304 -0.507415E+02  0.314E-02    8.01       0.0  T
   2    -50.7415306 -0.169493E-06  0.235E-02    8.01       1.0  T
   3    -50.7415307 -0.171943E-06  0.261E-03    8.01       7.5  T
   4    -50.7415307 -0.148773E-07  0.847E-04    8.01      23.1  T
   5    -50.7415307 -0.891170E-09  0.293E-04    8.01      67.0  T
speedup  1.02
cpu  time for SCC    0.00 s
wall time for SCC    0.00 s
speedup  1.02
cpu  time for grad    0.01 s
wall time for grad    0.01 s
 E :    -50.44861120  G :  0.001564    pred/act E change: -0.645D-05 -0.480D-05
Maxdispl :   0.0353   ||displ|| :   0.0482   Lambda : -0.628D-05
Largest |displ|/coords:  0.0353 (   2)  0.0121 (   7)  0.0116 (  10)
................................................................................
.............................. CYCLE   78 ......................................
................................................................................
   1    -50.7412458 -0.507412E+02  0.236E-02    8.00       0.0  T
   2    -50.7412459 -0.122733E-06  0.176E-02    8.01       1.1  T
   3    -50.7412460 -0.879109E-07  0.237E-03    8.01       8.3  T
   4    -50.7412460 -0.166496E-07  0.846E-04    8.01      23.2  T
   5    -50.7412460 -0.621299E-09  0.228E-04    8.01      86.0  T
speedup  1.02
cpu  time for SCC    0.00 s
wall time for SCC    0.00 s
speedup  1.01
cpu  time for grad    0.01 s
wall time for grad    0.01 s
 E :    -50.44861552  G :  0.001382    pred/act E change: -0.374D-05 -0.432D-05
Maxdispl :   0.0294   ||displ|| :   0.0389   Lambda : -0.560D-05
Largest |displ|/coords:  0.0294 (   2)  0.0119 (   7)  0.0093 (  12)
................................................................................
.............................. CYCLE   79 ......................................
................................................................................
   1    -50.7411528 -0.507412E+02  0.213E-02    8.00       0.0  T
   2    -50.7411529 -0.108598E-06  0.158E-02    8.00       1.2  T
   3    -50.7411530 -0.729351E-07  0.245E-03    8.00       8.0  T
   4    -50.7411530 -0.139047E-07  0.102E-03    8.00      19.2  T
   5    -50.7411530 -0.926185E-09  0.205E-04    8.00      95.8  T
   6    -50.7411530 -0.518057E-10  0.122E-04    8.00     160.6  T
speedup  1.07
cpu  time for SCC    0.01 s
wall time for SCC    0.01 s
speedup  1.03
cpu  time for grad    0.01 s
wall time for grad    0.01 s
 E :    -50.44861896  G :  0.001075    pred/act E change: -0.314D-05 -0.343D-05
Maxdispl :   0.0102   ||displ|| :   0.0175   Lambda : -0.289D-05
Largest |displ|/coords:  0.0102 (   2)  0.0052 (   4)  0.0048 (  12)
................................................................................
.............................. CYCLE   80 ......................................
................................................................................
   1    -50.7413665 -0.507414E+02  0.123E-02    8.00       0.0  T
   2    -50.7413665 -0.558221E-07  0.902E-03    8.00       2.2  T
   3    -50.7413666 -0.333366E-07  0.166E-03    8.00      11.8  T
   4    -50.7413666 -0.645337E-08  0.697E-04    8.00      28.1  T
   5    -50.7413666 -0.513843E-09  0.120E-04    8.00     163.1  T
speedup  0.87
cpu  time for SCC    0.00 s
wall time for SCC    0.00 s
speedup  0.98
cpu  time for grad    0.01 s
wall time for grad    0.01 s
 E :    -50.44862018  G :  0.000832    pred/act E change: -0.280D-05 -0.122D-05
Maxdispl :   0.0139   ||displ|| :   0.0211   Lambda : -0.193D-05
Largest |displ|/coords:  0.0139 (   2)  0.0078 (   7)  0.0072 (   3)
................................................................................
.............................. CYCLE   81 ......................................
................................................................................
   1    -50.7414000 -0.507414E+02  0.134E-02    8.01       0.0  T
   2    -50.7414000 -0.268776E-07  0.996E-03    8.01       2.0  T
   3    -50.7414000 -0.243382E-07  0.119E-03    8.01      16.5  T
   4    -50.7414000 -0.257020E-08  0.425E-04    8.01      46.2  T
   5    -50.7414000 -0.207919E-09  0.109E-04    8.01     180.3  T
speedup  1.06
cpu  time for SCC    0.00 s
wall time for SCC    0.00 s
speedup  1.04
cpu  time for grad    0.01 s
wall time for grad    0.01 s
 E :    -50.44862114  G :  0.000600    pred/act E change: -0.144D-05 -0.959D-06
Maxdispl :   0.0020   ||displ|| :   0.0056   Lambda : -0.745D-06
Largest |displ|/coords:  0.0020 (   8)  0.0019 (  15)  0.0017 (  14)

generating ANC from model Hessian ...
 Shifting diagonal of input Hessian by   4.866640669606071E-003
 Lowest  eigenvalues of input Hessian
   -0.000000   -0.000000   -0.000000   -0.000000   -0.000000    0.000000
    0.005000    0.005234    0.005491    0.005863    0.006003    0.006506
    0.006588    0.006716    0.008504    0.008957    0.009569    0.010406
 Highest eigenvalues
    1.389145    1.407478    1.413204    2.681113    3.254938    3.842080
 
cpu  time for ANC gen    0.02 s
wall time for ANC gen    0.02 s
................................................................................
.............................. CYCLE   82 ......................................
................................................................................
   1    -50.7413993 -0.507414E+02  0.384E-03    8.00       0.0  T
   2    -50.7413993 -0.916695E-08  0.285E-03    8.00       6.9  T
   3    -50.7413993 -0.424063E-08  0.549E-04    8.00      35.7  T
   4    -50.7413993 -0.146432E-08  0.136E-04    8.00     143.8  T
speedup  1.00
cpu  time for SCC    0.00 s
wall time for SCC    0.00 s
speedup  1.00
cpu  time for grad    0.01 s
wall time for grad    0.01 s
 E :    -50.44862162  G :  0.000282    pred/act E change:  0.000D+00 -0.488D-06
Maxdispl :   0.0024   ||displ|| :   0.0042   Lambda : -0.225D-06
Largest |displ|/coords:  0.0024 (   4)  0.0020 (  12)  0.0015 (   3)
................................................................................
.............................. CYCLE   83 ......................................
................................................................................
   1    -50.7413855 -0.507414E+02  0.279E-03    8.00       0.0  T
   2    -50.7413855 -0.148736E-08  0.209E-03    8.00       9.4  T
   3    -50.7413855 -0.122871E-08  0.218E-04    8.00      89.9  T
   4    -50.7413855 -0.176740E-09  0.833E-05    8.00     235.4  T
speedup  1.00
cpu  time for SCC    0.00 s
wall time for SCC    0.00 s
speedup  0.94
cpu  time for grad    0.01 s
wall time for grad    0.01 s
 E :    -50.44862180  G :  0.000188    pred/act E change:  0.000D+00 -0.171D-06
Maxdispl :   0.0031   ||displ|| :   0.0079   Lambda : -0.301D-06
Largest |displ|/coords:  0.0031 (   4)  0.0030 (   7)  0.0028 (   3)
................................................................................
.............................. CYCLE   84 ......................................
................................................................................
   1    -50.7413578 -0.507414E+02  0.516E-03    8.01       0.0  T
   2    -50.7413578 -0.544400E-08  0.388E-03    8.01       5.1  T
   3    -50.7413578 -0.435900E-08  0.433E-04    8.01      45.3  T
   4    -50.7413578 -0.695337E-09  0.164E-04    8.01     119.6  T
speedup  1.03
cpu  time for SCC    0.00 s
wall time for SCC    0.00 s
speedup  1.02
cpu  time for grad    0.01 s
wall time for grad    0.01 s
 E :    -50.44862198  G :  0.000132    pred/act E change: -0.112D-06 -0.180D-06
Maxdispl :   0.0017   ||displ|| :   0.0041   Lambda : -0.919D-07
Largest |displ|/coords:  0.0017 (   7)  0.0015 (  14)  0.0015 (  12)
................................................................................
.............................. CYCLE   85 ......................................
................................................................................
   1    -50.7413452 -0.507413E+02  0.278E-03    8.01       0.0  T
   2    -50.7413452 -0.897970E-09  0.209E-03    8.01       9.4  T
   3    -50.7413452 -0.974794E-09  0.188E-04    8.01     104.6  T
   4    -50.7413452 -0.794955E-10  0.770E-05    8.01     254.6  T
speedup  1.05
cpu  time for SCC    0.00 s
wall time for SCC    0.00 s
speedup  1.03
cpu  time for grad    0.01 s
wall time for grad    0.01 s
 E :    -50.44862204  G :  0.000132    pred/act E change: -0.150D-06 -0.658D-07
Maxdispl :   0.0025   ||displ|| :   0.0055   Lambda : -0.101D-06
Largest |displ|/coords:  0.0025 (  14)  0.0022 (   7)  0.0016 (  16)

   *** GEOMETRY OPTIMIZATION CONVERGED AFTER 85 ITERATIONS ***

------------------------------------------------------------------------
 total energy gain (kcal):     -0.0003
------------------------------------------------------------------------
================
 final structure:
================
$coord
        1.25461174162251        2.19618589713315        3.00030397685472      S 
        2.88575161971817        3.90379559797001        1.32223789143116      O 
        0.40541721810234        3.53922512731403        5.15577008745765      O 
       -1.00726717718205        1.46838549697043        1.26872915179566      O 
        2.54319775668163       -0.16464621661049        3.47508177024905      O 
        3.28189758887824       -2.00438033757213        1.11336659454616      H 
       -1.80457103300676        2.93575230741704        0.39622271822714      H 
        3.71791315103573       -2.93777321213271       -0.44421502978544      O 
        5.20862083864780       -3.89322174824570       -0.06438926705655      H 
       -1.67187430928696        0.56745879616711       -4.38112717755212      O 
       -1.91340452654456       -0.09204363249988       -6.05041445778956      H 
       -3.26319850671219        4.59352300963515       -1.69070035985775      O 
       -2.81349826040753        3.37344301069804       -3.00442798449683      H 
       -5.05518839208321        4.46517885651289       -1.44595594858393      H 
        3.16614443457901        1.54423700238158       -2.83392434733395      O 
        3.59475615037443       -0.16201950103891       -2.27598832714906      H 
        1.44644282513427        1.42792244659832       -3.50268710101502      H 
        3.11217772374568        3.05254280403961       -0.40279118350111      H 
       -1.44256749497344       -3.45782815398495       -1.56370677763511      O 
       -1.74268853118758       -0.92757800827868       -3.21332001627658      H 
        0.37024686305245       -3.66106965572550       -1.42505449749732      H 
       -2.00849253832036       -3.31175447762917        0.19996202150738      H 
       -2.12689619860844       -3.24613349675760        3.58816675541681      N 
       -0.48418069301224       -2.29597094187908        3.88247180264159      H 
       -2.11578672480682       -4.80538161882723        4.69845204891060      H 
       -3.53756350653694       -2.10784935161776        4.19793769430359      H 
$end
 
 Bond Distances (Angstroems)
 ---------------------------
S1-O2=1.5330         S1-O3=1.4171         S1-O4=1.5558         S1-O5=1.4453         O2-S1=1.5330         O2-H18=1.0250        
O3-S1=1.4171         O4-S1=1.5558         O4-H7=0.9971         O5-S1=1.4453         H6-O8=0.9882         H7-O4=0.9971         
O8-H6=0.9882         O8-H9=0.9583         H9-O8=0.9583         O10-H11=0.9584       O10-H20=1.0046       H11-O10=0.9584       
O12-H13=0.9781       O12-H14=0.9595       H13-O12=0.9781       H14-O12=0.9595       O15-H16=0.9767       O15-H17=0.9784       
H16-O15=0.9767       H17-O15=0.9784       H18-O2=1.0250        O19-H21=0.9681       O19-H22=0.9832       H20-O10=1.0046       
H21-O19=0.9681       H22-O19=0.9832       N23-H24=1.0162       N23-H25=1.0129       N23-H26=1.0120       H24-N23=1.0162       
H25-N23=1.0129       H26-N23=1.0120       
 N  H  Rav=1.0137 sigma=0.0018  Rmin=1.0120  Rmax=1.0162     3
 O  H  Rav=0.9813 sigma=0.0194  Rmin=0.9583  Rmax=1.0250    12
 S  O  Rav=1.4878 sigma=0.0581  Rmin=1.4171  Rmax=1.5558     4
 
 selected bond angles (degree)
 --------------------
O3-S1-O2=110.44                O4-S1-O2=103.76                O4-S1-O3=110.75                O5-S1-O2=110.15                
O5-S1-O3=116.31                O5-S1-O4=104.56                H18-O2-S1=108.82               H7-O4-S1=113.92                
H9-O8-H6=106.32                H20-O10-H11=105.98             
 
 selected dihedral angles (degree)
 ---------------------------------
H18-O2-S1-O3=193.70           H18-O2-S1-O4=312.42           H18-O2-S1-O5= 63.86           H7-O4-S1-O2=311.26            
H7-O4-S1-O3= 69.76            H7-O4-S1-O5=195.78            
 
 CMA Distance (Angstroems)
 ---------------------------
R(CMA):  2.6750

========================================================================
 FINAL SINGLEPOINT CALCULATION ON OPTIMIZED GEOMETRY
========================================================================

 Ncao       : 65
 Nao        : 64
 Nshell     : 38
 Nel        : 80
 T(el)      :   300.0
 intcut     :    25.0
 scfconv/Eh :  0.100E-05
   qconv/e  :  0.100E-03
 intneglect :  0.100E-07
 broydamp   :      0.250
 iter      E             dE          RMSdq      gap      omega  full diag
   1    -50.7413452 -0.507413E+02  0.256E-05    8.01       0.0  T
   2    -50.7413452 -0.568434E-12  0.165E-05    8.01    1188.9  T
   3    -50.7413452 -0.326850E-12  0.340E-06    8.01    5772.3  T
speedup  0.69
cpu  time for SCC    0.00 s
wall time for SCC    0.00 s

   *** convergence criteria satisfied after 3 iterations ***

          eigenvalues
 #    :          28         29         30         31         32         33         34         35
 occ. :        2.000      2.000      2.000      2.000      2.000      2.000      2.000      2.000
 eps  :       -13.693    -13.456    -13.093    -12.854    -12.660    -12.519    -12.471    -12.436
 #    :          36         37         38         39         40         41         42         43
 occ. :        2.000      2.000      2.000      2.000      2.000      0.000      0.000      0.000
 eps  :       -12.421    -12.210    -12.074    -11.761    -10.886     -2.880     -1.036     -0.276
 #    :          44         45         46         47         48         49         50         51
 occ. :        0.000      0.000      0.000      0.000      0.000      0.000      0.000      0.000
 eps  :         0.256      1.161      1.256      1.655      2.634      3.039      4.519      5.499


   #   Z            q   n(s)   n(p)   n(d)      C6AA      α(0)
   1  16 S      1.689  1.574  1.783  0.954    89.012    15.879
   2   8 O     -0.615  1.760  4.854  0.000    25.519     6.819
   3   8 O     -0.652  1.753  4.898  0.000    27.422     7.021
   4   8 O     -0.618  1.745  4.874  0.000    25.596     6.830
   5   8 O     -0.709  1.759  4.950  0.000    28.958     7.215
   6   1 H      0.335  0.665  0.000  0.000     0.624     1.241
   7   1 H      0.389  0.611  0.000  0.000     0.505     1.115
   8   8 O     -0.625  1.744  4.881  0.000    25.803     6.856
   9   1 H      0.291  0.709  0.000  0.000     0.748     1.359
  10   8 O     -0.640  1.755  4.885  0.000    26.175     6.905
  11   1 H      0.287  0.713  0.000  0.000     0.761     1.371
  12   8 O     -0.592  1.751  4.841  0.000    25.007     6.749
  13   1 H      0.341  0.659  0.000  0.000     0.609     1.226
  14   1 H      0.298  0.702  0.000  0.000     0.726     1.339
  15   8 O     -0.623  1.763  4.859  0.000    25.723     6.846
  16   1 H      0.330  0.670  0.000  0.000     0.638     1.255
  17   1 H      0.334  0.666  0.000  0.000     0.628     1.245
  18   1 H      0.395  0.605  0.000  0.000     0.491     1.099
  19   8 O     -0.623  1.752  4.871  0.000    25.737     6.847
  20   1 H      0.349  0.651  0.000  0.000     0.592     1.209
  21   1 H      0.312  0.688  0.000  0.000     0.686     1.301
  22   1 H      0.319  0.681  0.000  0.000     0.667     1.283
  23   7 N     -0.453  1.374  4.079  0.000    31.921     8.391
  24   1 H      0.176  0.824  0.000  0.000     1.238     1.743
  25   1 H      0.155  0.845  0.000  0.000     1.368     1.832
  26   1 H      0.151  0.849  0.000  0.000     1.394     1.850

 Mol. C6AA /au·bohr⁶  :       5454.325076
 Mol. C8AA /au·bohr⁸  :     117736.117448
 Mol. α(0) /au        :        106.823051

 
 Wiberg/Mayer (AO) data. WBOs > 0.1 written file <wbo>
 largest (>0.05) Wiberg bond orders for each atom
           total WBO             WBO to atom ...
     1  S   4.873    O    3 1.497    O    5 1.346    O    2 1.021    O    4 0.974
     2  O   1.977    S    1 1.021    H   18 0.665    O    5 0.089    O    3 0.080    O    4 0.068    O   15 0.050
     3  O   1.804    S    1 1.497    O    5 0.119    O    4 0.092    O    2 0.080
     4  O   1.969    S    1 0.974    H    7 0.718    O    3 0.092    O    5 0.069    O    2 0.068
     5  O   1.764    S    1 1.346    O    3 0.119    O    2 0.089    H    6 0.070    O    4 0.069
     6  H   0.887    O    8 0.812    O    5 0.070
     7  H   0.849    O    4 0.718    O   12 0.111
     8  O   1.867    H    9 0.906    H    6 0.812
     9  H   0.915    O    8 0.906
    10  O   1.870    H   11 0.910    H   20 0.772    H   17 0.052
    11  H   0.918    O   10 0.910
    12  O   1.926    H   14 0.909    H   13 0.834    H    7 0.111
    13  H   0.884    O   12 0.834
    14  H   0.911    O   12 0.909
    15  O   1.945    H   16 0.839    H   17 0.834    H   18 0.161    O    2 0.050
    16  H   0.891    O   15 0.839
    17  H   0.889    O   15 0.834    O   10 0.052
    18  H   0.844    O    2 0.665    O   15 0.161
    19  O   1.899    H   21 0.873    H   22 0.830    H   20 0.102
    20  H   0.878    O   10 0.772    O   19 0.102
    21  H   0.903    O   19 0.873
    22  H   0.898    O   19 0.830    N   23 0.063
    23  N   3.003    H   26 0.975    H   25 0.972    H   24 0.945    H   22 0.063
    24  H   0.969    N   23 0.945
    25  H   0.976    N   23 0.972
    26  H   0.977    N   23 0.975
 MOs/occ written to file <molden.input>
 
molecular dipole:
                 x           y           z       tot (Debye)
 q only:       -0.814      -0.941      -1.376
   full:       -0.850      -1.240      -1.071       4.692
molecular quadrupole (traceless):
                xx          xy          yy          xz          yz          zz
 q only:        9.718      -8.460      -5.160      -0.317      -9.137      -4.558
  q+dip:       11.499     -11.872      -9.126       0.596     -10.996      -2.374
   full:       11.716     -12.028      -9.316       0.667     -11.076      -2.400

SCC energy    :     -50.7413452
rep           :       0.2923315
ES            :       0.2315030
AES           :      -0.0510732
AXC           :      -0.0064893
disp          :      -0.0195770
XB            :       0.0000000
fix           :       0.0000000
total E       :     -50.4486220
atomizationE  :       4.9789262     3124.32
(atE without considering molecular charge,
 total energy contains solvation terms)
H-L gap (eV)  :          8.0062
optimized geometry written to: xtbopt.xyz


------------------------------------------------------------------------
 * finished run on 2019/09/16 at 12:19:45.624     
------------------------------------------------------------------------
 total:
 * wall-time:     0 d,  0 h,  0 min,  2.112 sec
 *  cpu-time:     0 d,  0 h,  0 min,  2.093 sec
 * ratio c/w:     0.991 speedup
 SCF:
 * wall-time:     0 d,  0 h,  0 min,  0.163 sec
 *  cpu-time:     0 d,  0 h,  0 min,  0.160 sec
 * ratio c/w:     0.980 speedup
 ANC optimizer:
 * wall-time:     0 d,  0 h,  0 min,  1.920 sec
 *  cpu-time:     0 d,  0 h,  0 min,  1.908 sec
 * ratio c/w:     0.993 speedup

