      -----------------------------------------------------------      
     |                   =====================                   |     
     |                           x T B                           |     
     |                   =====================                   |     
     |                         S. Grimme                         |     
     |          Mulliken Center for Theoretical Chemistry        |     
     |                    University of Bonn                     |     
     |                 Version 6.0.1 (SAW181210)                 |     
      -----------------------------------------------------------      

   This program is distributed in the hope that it will be useful,
   but WITHOUT ANY WARRANTY; without even the implied warranty of
   MERCHANTABILITY or FITNESS FOR A PARTICULAR PURPOSE.
   
   FOR NON-COMMERCIAL, ACADEMIA USE ONLY.
   
   Cite this work as:
   S. Grimme, C. Bannwarth, P. Shushkov, J. Comput. Theory Chem., 2017,
   13, 1989-2009.
   C. Bannwarth, S. Ehlert and S. Grimme., ChemRxiv, 2018, preprint.
   http://doi.org/10.26434/chemrxiv.7246238.v1
   
   for sTDA-xTB:
   S. Grimme and C. Bannwarth, J. Chem. Phys., 2016, 145, 054103.
   
   in the mass-spec context:
   V. Asgeirsson, C. Bauer and S. Grimme, Chem. Sci., 2017, 8, 4879.
   
   if GBSA is used:
   P. Shushkov, F. März and S. Grimme, unpublished.
   
   for ANC optimizer:
   S. Grimme, unpublished.
   Rational Function algorithm used in ANCopt:
   F. Eckert, P. Pulay, H.-J. Werner, J. Comput. Chem., 1997, 18, 1473.
   
   with help from (in alphabetical order)
   C. Bannwarth, F. Bohle, G. Brandenburg, E. Caldeweyher, M. Checinski,
   S. Dohm, S. Ehlert, S. Ehrlich, F. März, H. Neugebauer, J. Pisarek,
   P. Pracht, P. Shushkov, and S. Spicher.
   
 * started run on 2019/09/16 at 12:31:08.174     
========================================================================
 # omp threads = 1
========================================================================
number of atoms            : 26
number of electrons        : 80
charge                     : 0
spin                       : .0
first test random number   : .1965

########################################################################
# WARNING! Please study the warnings concerning your input carefully
#  - XTBPATH is not set, using XTBHOME instead
#  - the use of '-opt' is discouraged, please use '--opt' next time
#  - the use of '-chrg' is discouraged, please use '--chrg' next time
#  - the use of '-uhf' is discouraged, please use '--uhf' next time
########################################################################

           ------------------------------------------------- 
          |                 G F N 2 - x T B                 |
          | Geometry, Frequencies, Noncovalent interactions |
          |            JCTC 2018 parametrisation            |
           ------------------------------------------------- 
      method parameters     
 k(s)        :  1.8500
 k(p)        :  2.2300
 k(d)        :  2.2300
 k(f)        :  2.0000
 kEN (H0ij)  : -2.0000
 D4 a1       :  0.5200
 D4 a2       :  5.0000
 D4 s6       :  1.0000
 D4 s8       :  2.7000
 D4 s9       :  5.0000
 alphaj      :  2.0000


            Z     q(EN)     CN     RAES       Cart. coordinates
     1  S   6.0    0.58    4.29    4.23     0.42486    -0.49584    -4.54963
     2  O   6.0   -0.31    1.15    1.80     0.17687    -3.00814    -3.45040
     3  O   6.0   -0.28    1.09    1.80    -0.16766     0.04892    -7.15535
     4  O   6.0   -0.25    2.07    1.83    -1.07806     1.45746    -2.68650
     5  O   6.0   -0.23    2.06    1.83     3.23083     0.59610    -4.10025
     6  H   1.0    0.17    1.23    1.47     3.79292     0.14957    -2.40585
     7  H   1.0    0.17    1.20    1.47    -2.49444     0.53451    -1.95960
     8  O   6.0   -0.39    1.63    1.81     3.67122    -0.59414     0.52462
     9  H   1.0    0.17    0.95    1.42     5.44085    -0.17779     0.94746
    10  O   6.0   -0.39    1.55    1.80    -3.49160    -0.78339     0.69964
    11  H   1.0    0.17    0.95    1.42    -5.34835    -0.80692     0.51075
    12  O   6.0   -0.30    2.08    1.84    -2.37487    -4.23764     3.60598
    13  H   1.0    0.15    0.97    1.43    -3.75919    -4.52081     4.75406
    14  H   1.0    0.18    1.15    1.45    -2.95876    -2.95330     2.45525
    15  O   6.0   -0.22    2.92    2.58     1.68987    -4.67223     0.94792
    16  H   1.0    0.16    1.17    1.46     2.75140    -3.13809     1.04490
    17  H   1.0    0.14    1.06    1.44     0.35532    -4.68427     2.25515
    18  H   1.0    0.15    1.01    1.43     0.99184    -4.93238    -0.76572
    19  O   6.0   -0.23    2.94    2.64     0.07369     1.42677     2.51195
    20  H   1.0    0.16    1.20    1.46    -1.45692     0.52638     1.93196
    21  H   1.0    0.16    1.19    1.46     1.63658     0.65891     1.83536
    22  H   1.0    0.12    1.06    1.44    -0.01565     3.25888     2.15574
    23  N   5.0   -0.22    3.03    1.93    -0.20691     6.22180     0.64778
    24  H   1.0    0.10    0.99    1.43    -1.63550     7.47810     0.95091
    25  H   1.0    0.11    1.00    1.43    -0.61353     5.36141    -1.02717
    26  H   1.0    0.10    0.99    1.43     1.36517     7.28616     0.32104

  Z AO/shell   Hii/eV     exponent
  1     Wed Apr 25 08:07:45 CEST 2018   EN: 2.200 GM2: 0.406  GM3: 0.0800  RAES: 1.40
     1s    -10.707211    1.230000
  7     Wed Apr 25 08:07:45 CEST 2018   EN: 3.040 GM2: 0.461  GM3:-0.0640  RAES: 1.90
     2s    -16.686243    2.339881
     2p    -12.523956    2.014332
  8     Wed Apr 25 08:07:45 CEST 2018   EN: 3.440 GM2: 0.452  GM3:-0.0517  RAES: 1.80
     2s    -20.229985    2.439742
     2p    -15.503117    2.137023
 16     Tue Apr 24 11:44:34 CEST 2018   EN: 2.580 GM2: 0.340  GM3:-0.0502  RAES: 3.10
     3s    -20.029654    1.981333
     3p    -11.377694    2.025643
     3d     -0.420282    1.702555
 no old-style atom pair restraining (fixing) potential

molecular fragmentation (1/2 indicates fragments):
11111112222222222222222222
# atoms in fragment 1/2:     7    19
 fragment masses (1/2) :       98.07      107.11
CMA distance (Bohr)    :   5.892
constraining FC (au)   :  0.0500
           ------------------------------------------------- 
          |        Self-Consistent Charge Iterations        |
           ------------------------------------------------- 

 Ncao       : 65
 Nao        : 64
 Nshell     : 38
 Nel        : 80
 T(el)      :   300.0
 intcut     :    25.0
 scfconv/Eh :  0.100E-05
   qconv/e  :  0.100E-03
 intneglect :  0.100E-07
 broydamp   :      0.250
 iter      E             dE          RMSdq      gap      omega  full diag
   1    -50.5321387 -0.505321E+02  0.710E+00    8.03       0.0  T
   2    -50.5806284 -0.484897E-01  0.500E+00    7.25       1.0  T
   3    -50.6189260 -0.382976E-01  0.119E+00    4.90       1.0  T
   4    -50.6229108 -0.398474E-02  0.636E-01    5.07       1.0  T
   5    -50.6242096 -0.129888E-02  0.270E-01    5.11       1.0  T
   6    -50.6245599 -0.350252E-03  0.156E-01    5.15       1.0  T
   7    -50.6247062 -0.146293E-03  0.525E-02    5.15       1.0  T
   8    -50.6247231 -0.169160E-04  0.251E-02    5.14       1.0  T
   9    -50.6247263 -0.324248E-05  0.122E-02    5.15       1.6  T
  10    -50.6247270 -0.693043E-06  0.258E-03    5.16       7.6  T
  11    -50.6247271 -0.246526E-07  0.127E-03    5.16      15.4  T
  12    -50.6247271 -0.558647E-08  0.433E-04    5.16      45.3  T
  13    -50.6247271 -0.734026E-09  0.203E-04    5.16      96.5  T
speedup  0.96
cpu  time for SCC    0.01 s
wall time for SCC    0.02 s

   *** convergence criteria satisfied after 13 iterations ***

          eigenvalues
 #    :          28         29         30         31         32         33         34         35
 occ. :        2.000      2.000      2.000      2.000      2.000      2.000      2.000      2.000
 eps  :       -13.037    -12.626    -12.303    -12.283    -12.252    -12.084    -11.908    -11.640
 #    :          36         37         38         39         40         41         42         43
 occ. :        2.000      2.000      2.000      2.000      2.000      0.000      0.000      0.000
 eps  :       -11.622    -10.720    -10.596     -9.594     -9.538     -4.382     -1.505     -0.719
 #    :          44         45         46         47         48         49         50         51
 occ. :        0.000      0.000      0.000      0.000      0.000      0.000      0.000      0.000
 eps  :        -0.525      0.506      1.139      2.213      2.395      4.000      4.754      4.809


   #   Z            q   n(s)   n(p)   n(d)      C6AA      α(0)
   1  16 S      1.634  1.632  1.807  0.927    90.283    15.992
   2   8 O     -0.678  1.762  4.916  0.000    28.122     7.110
   3   8 O     -0.632  1.773  4.859  0.000    26.913     6.955
   4   8 O     -0.613  1.761  4.853  0.000    25.479     6.814
   5   8 O     -0.598  1.760  4.838  0.000    25.108     6.764
   6   1 H      0.379  0.621  0.000  0.000     0.523     1.134
   7   1 H      0.377  0.623  0.000  0.000     0.526     1.138
   8   8 O     -0.855  1.833  5.022  0.000    33.278     7.736
   9   1 H      0.210  0.790  0.000  0.000     1.070     1.625
  10   8 O     -0.886  1.833  5.054  0.000    34.308     7.854
  11   1 H      0.189  0.811  0.000  0.000     1.178     1.705
  12   8 O     -0.664  1.741  4.923  0.000    26.773     6.984
  13   1 H      0.273  0.727  0.000  0.000     0.808     1.412
  14   1 H      0.341  0.659  0.000  0.000     0.607     1.222
  15   8 O     -0.440  1.651  4.789  0.000    21.591     6.276
  16   1 H      0.407  0.593  0.000  0.000     0.468     1.072
  17   1 H      0.413  0.587  0.000  0.000     0.461     1.067
  18   1 H      0.401  0.599  0.000  0.000     0.483     1.092
  19   8 O     -0.481  1.665  4.816  0.000    22.419     6.395
  20   1 H      0.410  0.590  0.000  0.000     0.460     1.063
  21   1 H      0.395  0.605  0.000  0.000     0.489     1.096
  22   1 H      0.364  0.636  0.000  0.000     0.556     1.171
  23   7 N     -0.443  1.381  4.062  0.000    31.608     8.350
  24   1 H      0.155  0.845  0.000  0.000     1.371     1.834
  25   1 H      0.187  0.813  0.000  0.000     1.175     1.698
  26   1 H      0.156  0.844  0.000  0.000     1.360     1.827

 Mol. C6AA /au·bohr⁶  :       5529.237299
 Mol. C8AA /au·bohr⁸  :     119540.893634
 Mol. α(0) /au        :        107.385892

 
 Wiberg/Mayer (AO) data. WBOs > 0.1 written file <wbo>
 largest (>0.05) Wiberg bond orders for each atom
           total WBO             WBO to atom ...
     1  S   4.777    O    3 1.479    O    2 1.375    O    5 0.973    O    4 0.918
     2  O   1.758    S    1 1.375    O    3 0.134    O    5 0.097    O    4 0.097
     3  O   1.811    S    1 1.479    O    2 0.134    O    4 0.097    O    5 0.085
     4  O   1.960    S    1 0.918    H    7 0.733    O    3 0.097    O    2 0.097    O    5 0.058
     5  O   1.986    S    1 0.973    H    6 0.722    O    2 0.097    O    3 0.085    O    4 0.058
     6  H   0.856    O    5 0.722    O    8 0.117
     7  H   0.858    O    4 0.733    O   10 0.107
     8  O   1.608    H    9 0.947    H   16 0.187    H   21 0.180    H    6 0.117    O   15 0.060    O   19 0.059
     9  H   0.956    O    8 0.947
    10  O   1.507    H   11 0.946    H   20 0.162    H   14 0.137    H    7 0.107    O   12 0.055
    11  H   0.964    O   10 0.946
    12  O   1.813    H   13 0.909    H   14 0.744    H   17 0.075    O   10 0.055
    13  H   0.925    O   12 0.909
    14  H   0.884    O   12 0.744    O   10 0.137
    15  O   2.301    H   18 0.792    H   17 0.746    H   16 0.644    O    8 0.060
    16  H   0.834    O   15 0.644    O    8 0.187
    17  H   0.829    O   15 0.746    O   12 0.075
    18  H   0.839    O   15 0.792
    19  O   2.261    H   22 0.779    H   21 0.660    H   20 0.660    O    8 0.059
    20  H   0.832    O   19 0.660    O   10 0.162
    21  H   0.844    O   19 0.660    O    8 0.180
    22  H   0.867    O   19 0.779    N   23 0.081
    23  N   3.021    H   24 0.972    H   26 0.972    H   25 0.955    H   22 0.081
    24  H   0.976    N   23 0.972
    25  H   0.965    N   23 0.955
    26  H   0.976    N   23 0.972
 MOs/occ written to file <molden.input>
 
molecular dipole:
                 x           y           z       tot (Debye)
 q only:        0.399       0.178       2.288
   full:       -0.068       0.686       2.029       5.446
molecular quadrupole (traceless):
                xx          xy          yy          xz          yz          zz
 q only:        0.366      -3.739      18.224       1.303       1.192     -18.590
  q+dip:        5.728      -1.501      18.201       0.226      -0.255     -23.929
   full:        6.680      -1.336      17.661       0.096      -0.174     -24.340

SCC energy    :     -50.6247271
rep           :       0.2714147
ES            :       0.2920850
AES           :      -0.0559256
AXC           :      -0.0034628
disp          :      -0.0190140
XB            :       0.0000000
fix           :       0.0000000
total E       :     -50.3529958
atomizationE  :       4.8833000     3064.32
(atE without considering molecular charge,
 total energy contains solvation terms)
H-L gap (eV)  :          5.1563
           ------------------------------------------------- 
          |                 ===============                 |
          |                   A N C O P T                   |
          |                 ===============                 |
          |          Approximate Normal Coordinate          |
          |           Rational Function Optimizer           |
           ------------------------------------------------- 
dumping coords to <xtbopt.coord> and <xtbopt.log>
 optlevel               2
 Maxcycle             520
 Maxmicro              25
 Econv         1.000000000000000E-007
 Gconv         2.000000000000000E-004
 Maxdispl       1.00000000000000     
 Hlow          5.000000000000000E-003
 S6             20.0000000000000     
 Nvar               72

generating ANC from model Hessian ...
 Shifting diagonal of input Hessian by   5.127209714692931E-003
 Lowest  eigenvalues of input Hessian
    0.005000    0.005105   -0.000000   -0.000000    0.000000    0.000000
    0.000000    0.000000    0.005337    0.006063    0.006250    0.006600
    0.007086    0.007505    0.008139    0.008339    0.009014    0.010827
 Highest eigenvalues
    1.573031    1.582605    1.602113    1.952919    2.770849    3.591647
 
cpu  time for ANC gen    0.02 s
wall time for ANC gen    0.02 s
................................................................................
.............................. CYCLE    1 ......................................
................................................................................
   1    -50.6247271 -0.506247E+02  0.449E-05    5.16       0.0  T
   2    -50.6247271 -0.444089E-11  0.348E-05    5.16     563.4  T
   3    -50.6247271 -0.332534E-11  0.157E-05    5.16    1248.7  T
speedup  1.00
cpu  time for SCC    0.00 s
wall time for SCC    0.00 s
speedup  1.02
cpu  time for grad    0.01 s
wall time for grad    0.01 s
 E :    -50.35299580  G :  0.184540    pred/act E change:  0.000D+00  0.301D-07
Maxdispl :   0.0932   ||displ|| :   0.3157   Lambda : -0.373D-01
Largest |displ|/coords:  0.0932 (  19)  0.0851 (  45)  0.0804 (  17)
................................................................................
.............................. CYCLE    2 ......................................
................................................................................
   1    -50.6409828 -0.506410E+02  0.368E-01    6.00       0.0  T
   2    -50.6411828 -0.199997E-03  0.270E-01    6.07       1.0  T
   3    -50.6412898 -0.106948E-03  0.652E-02    6.22       1.0  T
   4    -50.6413041 -0.143005E-04  0.245E-02    6.22       1.0  T
   5    -50.6413055 -0.148609E-05  0.686E-03    6.21       2.9  T
   6    -50.6413056 -0.974397E-07  0.354E-03    6.21       5.5  T
   7    -50.6413057 -0.216076E-07  0.149E-03    6.21      13.1  T
speedup  0.92
cpu  time for SCC    0.01 s
wall time for SCC    0.01 s
speedup  0.95
cpu  time for grad    0.01 s
wall time for grad    0.01 s
 E :    -50.38232772  G :  0.102192    pred/act E change:  0.000D+00 -0.293D-01
Maxdispl :   0.1378   ||displ|| :   0.3546   Lambda : -0.183D-01
Largest |displ|/coords:  0.1378 (  27)  0.1052 (  30)  0.0945 (  21)
................................................................................
.............................. CYCLE    3 ......................................
................................................................................
   1    -50.6493326 -0.506493E+02  0.341E-01    6.88       0.0  T
   2    -50.6496039 -0.271308E-03  0.245E-01    6.98       1.0  T
   3    -50.6497286 -0.124765E-03  0.722E-02    7.18       1.0  T
   4    -50.6497447 -0.160885E-04  0.167E-02    7.17       1.2  T
   5    -50.6497453 -0.565004E-06  0.598E-03    7.16       3.3  T
   6    -50.6497453 -0.691855E-07  0.333E-03    7.16       5.9  T
speedup  1.03
cpu  time for SCC    0.01 s
wall time for SCC    0.01 s
speedup  0.99
cpu  time for grad    0.01 s
wall time for grad    0.01 s
 E :    -50.39756000  G :  0.065043    pred/act E change: -0.205D-01 -0.152D-01
Maxdispl :   0.1373   ||displ|| :   0.3911   Lambda : -0.108D-01
Largest |displ|/coords:  0.1373 (  27)  0.1203 (  21)  0.1078 (  20)
................................................................................
.............................. CYCLE    4 ......................................
................................................................................
   1    -50.6532150 -0.506532E+02  0.304E-01    7.64       0.0  T
   2    -50.6534973 -0.282283E-03  0.215E-01    7.74       1.0  T
   3    -50.6536240 -0.126714E-03  0.723E-02    7.92       1.0  T
   4    -50.6536373 -0.132782E-04  0.141E-02    7.92       1.4  T
   5    -50.6536377 -0.444713E-06  0.611E-03    7.91       3.2  T
   6    -50.6536378 -0.653190E-07  0.344E-03    7.91       5.7  T
   7    -50.6536378 -0.171540E-07  0.108E-03    7.91      18.1  T
speedup  1.08
cpu  time for SCC    0.01 s
wall time for SCC    0.01 s
speedup  1.01
cpu  time for grad    0.01 s
wall time for grad    0.01 s
 E :    -50.40647708  G :  0.047257    pred/act E change: -0.103D-01 -0.892D-02
Maxdispl :   0.1728   ||displ|| :   0.5499   Lambda : -0.109D-01
Largest |displ|/coords:  0.1728 (  21)  0.1640 (  27)  0.1540 (  13)
................................................................................
.............................. CYCLE    5 ......................................
................................................................................
   1    -50.6560008 -0.506560E+02  0.427E-01    8.52       0.0  T
   2    -50.6566702 -0.669423E-03  0.301E-01    8.65       1.0  T
   3    -50.6569649 -0.294696E-03  0.109E-01    8.86       1.0  T
   4    -50.6569924 -0.275029E-04  0.223E-02    8.86       1.0  T
   5    -50.6569936 -0.120494E-05  0.100E-02    8.85       2.0  T
   6    -50.6569938 -0.188775E-06  0.587E-03    8.85       3.3  T
   7    -50.6569938 -0.475144E-07  0.162E-03    8.85      12.1  T
speedup  0.92
cpu  time for SCC    0.01 s
wall time for SCC    0.01 s
speedup  1.01
cpu  time for grad    0.01 s
wall time for grad    0.01 s
 E :    -50.41368951  G :  0.034178    pred/act E change: -0.621D-02 -0.721D-02
Maxdispl :   0.1781   ||displ|| :   0.5317   Lambda : -0.438D-02
Largest |displ|/coords:  0.1781 (   7)  0.1702 (   8)  0.1641 (  13)
................................................................................
.............................. CYCLE    6 ......................................
................................................................................
   1    -50.6559900 -0.506560E+02  0.313E-01    8.96       0.0  T
   2    -50.6561551 -0.165113E-03  0.231E-01    9.00       1.0  T
   3    -50.6562303 -0.751923E-04  0.657E-02    9.05       1.0  T
   4    -50.6562477 -0.173395E-04  0.147E-02    9.04       1.3  T
   5    -50.6562481 -0.414494E-06  0.580E-03    9.04       3.4  T
   6    -50.6562481 -0.395991E-07  0.323E-03    9.04       6.1  T
speedup  0.89
cpu  time for SCC    0.01 s
wall time for SCC    0.01 s
speedup  0.94
cpu  time for grad    0.01 s
wall time for grad    0.01 s
 E :    -50.41694634  G :  0.039370    pred/act E change: -0.709D-02 -0.326D-02
Maxdispl :   0.2513   ||displ|| :   0.6157   Lambda : -0.517D-02
Largest |displ|/coords:  0.2513 (   8)  0.2440 (  13)  0.2170 (   2)
................................................................................
.............................. CYCLE    7 ......................................
................................................................................
   1    -50.6659077 -0.506659E+02  0.323E-01    9.08       0.0  T
   2    -50.6661005 -0.192758E-03  0.236E-01    9.08       1.0  T
   3    -50.6661936 -0.931374E-04  0.683E-02    9.07       1.0  T
   4    -50.6662130 -0.193829E-04  0.151E-02    9.06       1.3  T
   5    -50.6662134 -0.370538E-06  0.722E-03    9.07       2.7  T
   6    -50.6662134 -0.585581E-07  0.353E-03    9.07       5.6  T
   7    -50.6662134 -0.140361E-07  0.108E-03    9.07      18.1  T
speedup  1.08
cpu  time for SCC    0.01 s
wall time for SCC    0.01 s
speedup  1.01
cpu  time for grad    0.01 s
wall time for grad    0.01 s
 E :    -50.42045992  G :  0.032977    pred/act E change: -0.281D-02 -0.351D-02
Maxdispl :   0.2105   ||displ|| :   0.5617   Lambda : -0.486D-02
Largest |displ|/coords:  0.2105 (   3)  0.2000 (   1)  0.1833 (   2)
................................................................................
.............................. CYCLE    8 ......................................
................................................................................
   1    -50.6724182 -0.506724E+02  0.392E-01    8.99       0.0  T
   2    -50.6726277 -0.209501E-03  0.289E-01    8.99       1.0  T
   3    -50.6727387 -0.110964E-03  0.756E-02    8.96       1.0  T
   4    -50.6727628 -0.240781E-04  0.166E-02    8.96       1.2  T
   5    -50.6727633 -0.491327E-06  0.909E-03    8.96       2.2  T
   6    -50.6727633 -0.856571E-07  0.423E-03    8.96       4.6  T
   7    -50.6727634 -0.267258E-07  0.111E-03    8.96      17.7  T
speedup  1.08
cpu  time for SCC    0.01 s
wall time for SCC    0.01 s
speedup  1.02
cpu  time for grad    0.01 s
wall time for grad    0.01 s
 E :    -50.42391356  G :  0.040173    pred/act E change: -0.357D-02 -0.345D-02
Maxdispl :   0.1964   ||displ|| :   0.5246   Lambda : -0.481D-02
Largest |displ|/coords:  0.1964 (   2)  0.1869 (   6)  0.1850 (   1)
................................................................................
.............................. CYCLE    9 ......................................
................................................................................
   1    -50.6902209 -0.506902E+02  0.311E-01    8.86       0.0  T
   2    -50.6903656 -0.144650E-03  0.229E-01    8.86       1.0  T
   3    -50.6904579 -0.922693E-04  0.655E-02    8.85       1.0  T
   4    -50.6904723 -0.143908E-04  0.210E-02    8.84       1.0  T
   5    -50.6904732 -0.903331E-06  0.822E-03    8.84       2.4  T
   6    -50.6904732 -0.815399E-07  0.410E-03    8.84       4.8  T
   7    -50.6904733 -0.255764E-07  0.101E-03    8.84      19.4  T
speedup  0.92
cpu  time for SCC    0.01 s
wall time for SCC    0.01 s
speedup  1.02
cpu  time for grad    0.01 s
wall time for grad    0.01 s
 E :    -50.42601141  G :  0.056405    pred/act E change: -0.320D-02 -0.210D-02
Maxdispl :   0.2308   ||displ|| :   0.4142   Lambda : -0.580D-02
Largest |displ|/coords:  0.2308 (   4)  0.1675 (   6)  0.1624 (   3)
................................................................................
.............................. CYCLE   10 ......................................
................................................................................
   1    -50.6779018 -0.506779E+02  0.473E-01    8.87       0.0  T
   2    -50.6780793 -0.177496E-03  0.351E-01    8.88       1.0  T
   3    -50.6781809 -0.101685E-03  0.757E-02    8.88       1.0  T
   4    -50.6782033 -0.223702E-04  0.163E-02    8.87       1.2  T
   5    -50.6782037 -0.337566E-06  0.684E-03    8.87       2.9  T
   6    -50.6782037 -0.864084E-07  0.357E-03    8.87       5.5  T
   7    -50.6782038 -0.230331E-07  0.620E-04    8.87      31.6  T
speedup  1.06
cpu  time for SCC    0.01 s
wall time for SCC    0.01 s
speedup  1.01
cpu  time for grad    0.01 s
wall time for grad    0.01 s
 E :    -50.42532700  G :  0.077434    pred/act E change: -0.307D-02  0.684D-03
Maxdispl :   0.2073   ||displ|| :   0.4490   Lambda : -0.150D-01
Largest |displ|/coords:  0.2073 (   6)  0.2063 (   4)  0.1543 (   7)
................................................................................
.............................. CYCLE   11 ......................................
................................................................................
   1    -50.6831825 -0.506832E+02  0.634E-01    8.79       0.0  T
   2    -50.6835748 -0.392295E-03  0.473E-01    8.79       1.0  T
   3    -50.6838117 -0.236857E-03  0.114E-01    8.80       1.0  T
   4    -50.6838592 -0.475719E-04  0.270E-02    8.79       1.0  T
   5    -50.6838611 -0.184537E-05  0.115E-02    8.80       1.7  T
   6    -50.6838612 -0.137581E-06  0.584E-03    8.80       3.4  T
   7    -50.6838613 -0.555573E-07  0.125E-03    8.79      15.7  T
speedup  1.04
cpu  time for SCC    0.01 s
wall time for SCC    0.01 s
speedup  1.00
cpu  time for grad    0.01 s
wall time for grad    0.01 s
 E :    -50.42567462  G :  0.076984    pred/act E change: -0.340D-02 -0.348D-03
Maxdispl :   0.1242   ||displ|| :   0.3555   Lambda : -0.120D-01
Largest |displ|/coords:  0.1242 (   7)  0.1232 (  27)  0.1171 (  23)
................................................................................
.............................. CYCLE   12 ......................................
................................................................................
   1    -50.6969902 -0.506970E+02  0.442E-01    8.89       0.0  T
   2    -50.6972529 -0.262755E-03  0.325E-01    8.89       1.0  T
   3    -50.6974017 -0.148727E-03  0.898E-02    8.89       1.0  T
   4    -50.6974276 -0.259581E-04  0.244E-02    8.89       1.0  T
   5    -50.6974290 -0.141421E-05  0.937E-03    8.89       2.1  T
   6    -50.6974291 -0.277111E-07  0.459E-03    8.89       4.3  T
   7    -50.6974291 -0.714981E-07  0.101E-03    8.89      19.3  T
speedup  1.06
cpu  time for SCC    0.01 s
wall time for SCC    0.01 s
speedup  1.01
cpu  time for grad    0.01 s
wall time for grad    0.01 s
 E :    -50.42762157  G :  0.072070    pred/act E change: -0.900D-02 -0.195D-02
Maxdispl :   0.1451   ||displ|| :   0.3143   Lambda : -0.847D-02
Largest |displ|/coords:  0.1451 (  15)  0.0954 (   1)  0.0823 (  20)
................................................................................
.............................. CYCLE   13 ......................................
................................................................................
   1    -50.6825765 -0.506826E+02  0.332E-01    8.87       0.0  T
   2    -50.6828099 -0.233390E-03  0.237E-01    8.87       1.0  T
   3    -50.6829134 -0.103498E-03  0.804E-02    8.87       1.0  T
   4    -50.6829285 -0.151179E-04  0.227E-02    8.86       1.0  T
   5    -50.6829300 -0.151706E-05  0.690E-03    8.86       2.8  T
   6    -50.6829302 -0.114729E-06  0.441E-03    8.86       4.4  T
   7    -50.6829302 -0.240175E-07  0.936E-04    8.86      21.0  T
speedup  0.92
cpu  time for SCC    0.01 s
wall time for SCC    0.01 s
speedup  0.99
cpu  time for grad    0.01 s
wall time for grad    0.02 s
 E :    -50.42952746  G :  0.042095    pred/act E change: -0.675D-02 -0.191D-02
Maxdispl :   0.1578   ||displ|| :   0.2508   Lambda : -0.275D-02
Largest |displ|/coords:  0.1578 (   2)  0.1046 (  10)  0.0683 (   7)
................................................................................
.............................. CYCLE   14 ......................................
................................................................................
   1    -50.6925007 -0.506925E+02  0.158E-01    8.86       0.0  T
   2    -50.6925265 -0.257972E-04  0.118E-01    8.85       1.0  T
   3    -50.6925420 -0.155457E-04  0.276E-02    8.85       1.0  T
   4    -50.6925452 -0.312241E-05  0.866E-03    8.85       2.3  T
   5    -50.6925453 -0.127007E-06  0.322E-03    8.85       6.1  T
   6    -50.6925453 -0.110223E-07  0.145E-03    8.85      13.6  T
speedup  0.88
cpu  time for SCC    0.00 s
wall time for SCC    0.01 s
speedup  0.94
cpu  time for grad    0.01 s
wall time for grad    0.01 s
 E :    -50.43119767  G :  0.021387    pred/act E change: -0.465D-02 -0.167D-02
Maxdispl :   0.2089   ||displ|| :   0.3053   Lambda : -0.137D-02
Largest |displ|/coords:  0.2089 (   2)  0.0967 (   7)  0.0825 (  11)
................................................................................
.............................. CYCLE   15 ......................................
................................................................................
   1    -50.6957063 -0.506957E+02  0.151E-01    8.86       0.0  T
   2    -50.6957162 -0.985123E-05  0.113E-01    8.86       1.0  T
   3    -50.6957251 -0.886256E-05  0.174E-02    8.85       1.1  T
   4    -50.6957261 -0.102981E-05  0.589E-03    8.85       3.3  T
   5    -50.6957261 -0.436935E-07  0.213E-03    8.85       9.2  T
speedup  1.06
cpu  time for SCC    0.00 s
wall time for SCC    0.00 s
speedup  1.02
cpu  time for grad    0.01 s
wall time for grad    0.01 s
 E :    -50.43175876  G :  0.026087    pred/act E change: -0.146D-02 -0.561D-03
Maxdispl :   0.2268   ||displ|| :   0.3480   Lambda : -0.161D-02
Largest |displ|/coords:  0.2268 (   2)  0.0770 (  10)  0.0728 (  15)
................................................................................
.............................. CYCLE   16 ......................................
................................................................................
   1    -50.7001532 -0.507002E+02  0.156E-01    8.90       0.0  T
   2    -50.7002009 -0.476986E-04  0.116E-01    8.89       1.0  T
   3    -50.7002302 -0.292887E-04  0.378E-02    8.88       1.0  T
   4    -50.7002349 -0.465711E-05  0.110E-02    8.88       1.8  T
   5    -50.7002352 -0.285196E-06  0.402E-03    8.88       4.9  T
   6    -50.7002352 -0.145300E-07  0.199E-03    8.88       9.8  T
speedup  1.05
cpu  time for SCC    0.01 s
wall time for SCC    0.01 s
speedup  1.01
cpu  time for grad    0.01 s
wall time for grad    0.01 s
 E :    -50.43277191  G :  0.023781    pred/act E change: -0.751D-03 -0.101D-02
Maxdispl :   0.2818   ||displ|| :   0.3853   Lambda : -0.162D-02
Largest |displ|/coords:  0.2818 (   2)  0.0882 (  17)  0.0812 (   1)
................................................................................
.............................. CYCLE   17 ......................................
................................................................................
   1    -50.7024657 -0.507025E+02  0.146E-01    8.88       0.0  T
   2    -50.7024802 -0.145602E-04  0.109E-01    8.88       1.0  T
   3    -50.7024898 -0.955424E-05  0.214E-02    8.89       1.0  T
   4    -50.7024916 -0.180883E-05  0.892E-03    8.88       2.2  T
   5    -50.7024917 -0.121202E-06  0.240E-03    8.88       8.2  T
   6    -50.7024917 -0.833548E-08  0.141E-03    8.88      13.9  T
speedup  0.86
cpu  time for SCC    0.00 s
wall time for SCC    0.01 s
speedup  1.01
cpu  time for grad    0.01 s
wall time for grad    0.01 s
 E :    -50.43373705  G :  0.020166    pred/act E change: -0.902D-03 -0.965D-03
Maxdispl :   0.2574   ||displ|| :   0.3826   Lambda : -0.135D-02
Largest |displ|/coords:  0.2574 (   2)  0.1337 (   3)  0.0735 (   8)
................................................................................
.............................. CYCLE   18 ......................................
................................................................................
   1    -50.7033456 -0.507033E+02  0.181E-01    8.90       0.0  T
   2    -50.7033751 -0.294331E-04  0.135E-01    8.90       1.0  T
   3    -50.7033928 -0.177812E-04  0.305E-02    8.89       1.0  T
   4    -50.7033970 -0.420094E-05  0.103E-02    8.89       1.9  T
   5    -50.7033972 -0.142540E-06  0.323E-03    8.89       6.1  T
   6    -50.7033972 -0.125505E-07  0.176E-03    8.89      11.2  T
speedup  1.05
cpu  time for SCC    0.01 s
wall time for SCC    0.01 s
speedup  1.01
cpu  time for grad    0.01 s
wall time for grad    0.01 s
 E :    -50.43473754  G :  0.020037    pred/act E change: -0.929D-03 -0.100D-02
Maxdispl :   0.3511   ||displ|| :   0.5251   Lambda : -0.163D-02
Largest |displ|/coords:  0.3511 (   2)  0.1380 (   3)  0.1141 (  14)
................................................................................
.............................. CYCLE   19 ......................................
................................................................................
   1    -50.7053959 -0.507054E+02  0.242E-01    8.88       0.0  T
   2    -50.7054646 -0.686262E-04  0.182E-01    8.87       1.0  T
   3    -50.7055039 -0.393751E-04  0.460E-02    8.86       1.0  T
   4    -50.7055137 -0.979976E-05  0.141E-02    8.86       1.4  T
   5    -50.7055140 -0.242092E-06  0.370E-03    8.86       5.3  T
   6    -50.7055140 -0.156347E-07  0.209E-03    8.86       9.4  T
speedup  1.05
cpu  time for SCC    0.01 s
wall time for SCC    0.01 s
speedup  1.00
cpu  time for grad    0.01 s
wall time for grad    0.01 s
 E :    -50.43587883  G :  0.026581    pred/act E change: -0.772D-03 -0.114D-02
Maxdispl :   0.3286   ||displ|| :   0.5911   Lambda : -0.218D-02
Largest |displ|/coords:  0.3286 (   2)  0.1723 (   5)  0.1522 (  23)
................................................................................
.............................. CYCLE   20 ......................................
................................................................................
   1    -50.7074065 -0.507074E+02  0.330E-01    8.80       0.0  T
   2    -50.7077118 -0.305262E-03  0.241E-01    8.80       1.0  T
   3    -50.7078291 -0.117289E-03  0.922E-02    8.79       1.0  T
   4    -50.7078538 -0.247346E-04  0.188E-02    8.79       1.0  T
   5    -50.7078546 -0.726736E-06  0.692E-03    8.79       2.8  T
   6    -50.7078546 -0.675034E-07  0.291E-03    8.79       6.7  T
   7    -50.7078546 -0.161696E-07  0.104E-03    8.79      18.8  T
speedup  1.04
cpu  time for SCC    0.01 s
wall time for SCC    0.01 s
speedup  1.01
cpu  time for grad    0.01 s
wall time for grad    0.01 s
 E :    -50.43776538  G :  0.031256    pred/act E change: -0.104D-02 -0.189D-02
Maxdispl :   0.3400   ||displ|| :   0.7001   Lambda : -0.415D-02
Largest |displ|/coords:  0.3400 (   2)  0.2325 (  23)  0.2021 (   5)
................................................................................
.............................. CYCLE   21 ......................................
................................................................................
   1    -50.7199190 -0.507199E+02  0.469E-01    8.75       0.0  T
   2    -50.7207588 -0.839772E-03  0.337E-01    8.73       1.0  T
   3    -50.7210808 -0.322044E-03  0.146E-01    8.71       1.0  T
   4    -50.7211203 -0.394930E-04  0.317E-02    8.71       1.0  T
   5    -50.7211229 -0.260903E-05  0.110E-02    8.71       1.8  T
   6    -50.7211231 -0.186897E-06  0.493E-03    8.71       4.0  T
   7    -50.7211232 -0.396878E-07  0.168E-03    8.71      11.6  T
speedup  1.04
cpu  time for SCC    0.01 s
wall time for SCC    0.01 s
speedup  1.00
cpu  time for grad    0.01 s
wall time for grad    0.01 s
 E :    -50.44069085  G :  0.043613    pred/act E change: -0.147D-02 -0.293D-02
Maxdispl :   0.1733   ||displ|| :   0.4443   Lambda : -0.456D-02
Largest |displ|/coords:  0.1733 (   2)  0.1726 (   1)  0.1108 (   9)
................................................................................
.............................. CYCLE   22 ......................................
................................................................................
   1    -50.7208082 -0.507208E+02  0.265E-01    8.58       0.0  T
   2    -50.7209175 -0.109312E-03  0.194E-01    8.58       1.0  T
   3    -50.7209631 -0.456714E-04  0.674E-02    8.57       1.0  T
   4    -50.7209702 -0.707822E-05  0.210E-02    8.58       1.0  T
   5    -50.7209706 -0.375383E-06  0.365E-03    8.58       5.4  T
   6    -50.7209706 -0.237403E-07  0.215E-03    8.58       9.1  T
speedup  1.03
cpu  time for SCC    0.01 s
wall time for SCC    0.01 s
speedup  0.99
cpu  time for grad    0.01 s
wall time for grad    0.01 s
 E :    -50.44099527  G :  0.066512    pred/act E change: -0.309D-02 -0.304D-03
Maxdispl :   0.1469   ||displ|| :   0.4176   Lambda : -0.101D-01
Largest |displ|/coords:  0.1469 (  16)  0.1436 (   8)  0.1422 (  12)
................................................................................
.............................. CYCLE   23 ......................................
................................................................................
   1    -50.7235364 -0.507235E+02  0.307E-01    8.69       0.0  T
   2    -50.7238593 -0.322924E-03  0.223E-01    8.70       1.0  T
   3    -50.7239847 -0.125388E-03  0.989E-02    8.71       1.0  T
   4    -50.7239971 -0.124546E-04  0.221E-02    8.70       1.0  T
   5    -50.7239982 -0.112659E-05  0.605E-03    8.70       3.2  T
   6    -50.7239983 -0.403475E-07  0.318E-03    8.70       6.2  T
   7    -50.7239983 -0.175050E-07  0.953E-04    8.70      20.6  T
speedup  1.06
cpu  time for SCC    0.01 s
wall time for SCC    0.01 s
speedup  1.01
cpu  time for grad    0.01 s
wall time for grad    0.01 s
 E :    -50.44041854  G :  0.061542    pred/act E change: -0.273D-02  0.577D-03
Maxdispl :   0.1829   ||displ|| :   0.4341   Lambda : -0.175D-01
Largest |displ|/coords:  0.1829 (  13)  0.1495 (  21)  0.1359 (  16)
................................................................................
.............................. CYCLE   24 ......................................
................................................................................
   1    -50.7202362 -0.507202E+02  0.396E-01    8.63       0.0  T
   2    -50.7210091 -0.772943E-03  0.279E-01    8.64       1.0  T
   3    -50.7212721 -0.262985E-03  0.124E-01    8.66       1.0  T
   4    -50.7212965 -0.243792E-04  0.253E-02    8.66       1.0  T
   5    -50.7212982 -0.166773E-05  0.719E-03    8.66       2.7  T
   6    -50.7212982 -0.844300E-07  0.446E-03    8.66       4.4  T
   7    -50.7212983 -0.428166E-07  0.125E-03    8.66      15.7  T
speedup  0.91
cpu  time for SCC    0.01 s
wall time for SCC    0.01 s
speedup  1.01
cpu  time for grad    0.01 s
wall time for grad    0.01 s
 E :    -50.44112719  G :  0.054766    pred/act E change: -0.592D-02 -0.709D-03
Maxdispl :   0.1481   ||displ|| :   0.3629   Lambda : -0.107D-01
Largest |displ|/coords:  0.1481 (  13)  0.1136 (  14)  0.1076 (   1)
................................................................................
.............................. CYCLE   25 ......................................
................................................................................
   1    -50.7247282 -0.507247E+02  0.337E-01    8.71       0.0  T
   2    -50.7251666 -0.438357E-03  0.242E-01    8.71       1.0  T
   3    -50.7253318 -0.165206E-03  0.100E-01    8.70       1.0  T
   4    -50.7253514 -0.195791E-04  0.209E-02    8.70       1.0  T
   5    -50.7253523 -0.973769E-06  0.718E-03    8.70       2.7  T
   6    -50.7253524 -0.701385E-07  0.329E-03    8.70       6.0  T
   7    -50.7253524 -0.222703E-07  0.126E-03    8.70      15.6  T
speedup  0.92
cpu  time for SCC    0.01 s
wall time for SCC    0.01 s
speedup  1.01
cpu  time for grad    0.01 s
wall time for grad    0.01 s
 E :    -50.44385709  G :  0.044523    pred/act E change: -0.104D-01 -0.273D-02
Maxdispl :   0.1343   ||displ|| :   0.2912   Lambda : -0.448D-02
Largest |displ|/coords:  0.1343 (  17)  0.1101 (  14)  0.0977 (   1)

generating ANC from model Hessian ...
 Shifting diagonal of input Hessian by   4.932645238980120E-003
 Lowest  eigenvalues of input Hessian
   -0.000000   -0.000000   -0.000000    0.000000    0.000000    0.000000
    0.005000    0.005432    0.005637    0.006652    0.007237    0.007472
    0.008049    0.008568    0.009606    0.010054    0.011028    0.011430
 Highest eigenvalues
    1.398502    1.412920    1.414264    2.417874    3.275688    3.816554
 
cpu  time for ANC gen    0.03 s
wall time for ANC gen    0.03 s
................................................................................
.............................. CYCLE   26 ......................................
................................................................................
   1    -50.7233673 -0.507234E+02  0.218E-01    8.76       0.0  T
   2    -50.7234034 -0.360907E-04  0.159E-01    8.76       1.0  T
   3    -50.7234279 -0.244410E-04  0.314E-02    8.77       1.0  T
   4    -50.7234307 -0.281841E-05  0.113E-02    8.77       1.7  T
   5    -50.7234309 -0.200505E-06  0.344E-03    8.77       5.7  T
   6    -50.7234309 -0.206907E-07  0.191E-03    8.77      10.3  T
   7    -50.7234309 -0.788755E-08  0.615E-04    8.77      31.9  T
   8    -50.7234309 -0.748393E-09  0.159E-04    8.77     123.7  T
speedup  1.05
cpu  time for SCC    0.01 s
wall time for SCC    0.01 s
speedup  1.02
cpu  time for grad    0.02 s
wall time for grad    0.02 s
 E :    -50.44558167  G :  0.031179    pred/act E change:  0.000D+00 -0.172D-02
Maxdispl :   0.1656   ||displ|| :   0.3687   Lambda : -0.415D-02
Largest |displ|/coords:  0.1656 (  10)  0.1620 (  25)  0.1375 (   9)
................................................................................
.............................. CYCLE   27 ......................................
................................................................................
   1    -50.7274779 -0.507275E+02  0.198E-01    8.77       0.0  T
   2    -50.7275066 -0.286994E-04  0.147E-01    8.77       1.0  T
   3    -50.7275160 -0.939757E-05  0.286E-02    8.77       1.0  T
   4    -50.7275211 -0.504786E-05  0.643E-03    8.77       3.0  T
   5    -50.7275212 -0.958342E-07  0.241E-03    8.77       8.1  T
   6    -50.7275212 -0.462452E-08  0.117E-03    8.77      16.7  T
speedup  0.88
cpu  time for SCC    0.00 s
wall time for SCC    0.01 s
speedup  0.99
cpu  time for grad    0.01 s
wall time for grad    0.01 s
 E :    -50.44796589  G :  0.013621    pred/act E change:  0.000D+00 -0.238D-02
Maxdispl :   0.1170   ||displ|| :   0.2504   Lambda : -0.102D-02
Largest |displ|/coords:  0.1170 (   8)  0.1045 (   5)  0.0875 (  15)
................................................................................
.............................. CYCLE   28 ......................................
................................................................................
   1    -50.7296716 -0.507297E+02  0.172E-01    8.77       0.0  T
   2    -50.7296795 -0.783967E-05  0.129E-01    8.77       1.0  T
   3    -50.7296841 -0.465681E-05  0.177E-02    8.78       1.1  T
   4    -50.7296853 -0.115366E-05  0.554E-03    8.77       3.5  T
   5    -50.7296853 -0.511678E-07  0.178E-03    8.77      11.0  T
   6    -50.7296853 -0.163157E-08  0.978E-04    8.77      20.1  T
speedup  0.88
cpu  time for SCC    0.00 s
wall time for SCC    0.01 s
speedup  0.99
cpu  time for grad    0.01 s
wall time for grad    0.01 s
 E :    -50.44871243  G :  0.012332    pred/act E change: -0.236D-02 -0.747D-03
Maxdispl :   0.1624   ||displ|| :   0.3615   Lambda : -0.997D-03
Largest |displ|/coords:  0.1624 (   8)  0.1561 (   5)  0.1339 (  15)
................................................................................
.............................. CYCLE   29 ......................................
................................................................................
   1    -50.7297160 -0.507297E+02  0.229E-01    8.77       0.0  T
   2    -50.7297269 -0.108492E-04  0.171E-01    8.77       1.0  T
   3    -50.7297341 -0.726946E-05  0.209E-02    8.78       1.0  T
   4    -50.7297357 -0.153190E-05  0.814E-03    8.77       2.4  T
   5    -50.7297357 -0.699287E-07  0.223E-03    8.77       8.8  T
   6    -50.7297357 -0.373881E-08  0.127E-03    8.77      15.4  T
speedup  0.88
cpu  time for SCC    0.00 s
wall time for SCC    0.01 s
speedup  1.00
cpu  time for grad    0.01 s
wall time for grad    0.01 s
 E :    -50.44937030  G :  0.013978    pred/act E change: -0.539D-03 -0.658D-03
Maxdispl :   0.1396   ||displ|| :   0.3097   Lambda : -0.726D-03
Largest |displ|/coords:  0.1396 (   5)  0.1212 (  11)  0.1139 (   8)
................................................................................
.............................. CYCLE   30 ......................................
................................................................................
   1    -50.7305879 -0.507306E+02  0.182E-01    8.76       0.0  T
   2    -50.7305984 -0.104577E-04  0.136E-01    8.76       1.0  T
   3    -50.7306066 -0.820123E-05  0.216E-02    8.77       1.0  T
   4    -50.7306079 -0.132210E-05  0.802E-03    8.76       2.4  T
   5    -50.7306080 -0.701037E-07  0.223E-03    8.76       8.8  T
   6    -50.7306080 -0.512939E-08  0.133E-03    8.76      14.7  T
speedup  0.88
cpu  time for SCC    0.00 s
wall time for SCC    0.01 s
speedup  0.99
cpu  time for grad    0.01 s
wall time for grad    0.01 s
 E :    -50.44977185  G :  0.009452    pred/act E change: -0.564D-03 -0.402D-03
Maxdispl :   0.0680   ||displ|| :   0.1900   Lambda : -0.429D-03
Largest |displ|/coords:  0.0680 (   8)  0.0616 (   2)  0.0554 (  10)
................................................................................
.............................. CYCLE   31 ......................................
................................................................................
   1    -50.7302262 -0.507302E+02  0.160E-01    8.79       0.0  T
   2    -50.7302349 -0.874889E-05  0.121E-01    8.79       1.0  T
   3    -50.7302421 -0.720632E-05  0.173E-02    8.79       1.1  T
   4    -50.7302433 -0.113711E-05  0.603E-03    8.79       3.3  T
   5    -50.7302433 -0.495601E-07  0.199E-03    8.79       9.9  T
   6    -50.7302433 -0.481568E-08  0.118E-03    8.79      16.7  T
speedup  0.88
cpu  time for SCC    0.01 s
wall time for SCC    0.01 s
speedup  1.00
cpu  time for grad    0.01 s
wall time for grad    0.01 s
 E :    -50.44989942  G :  0.017172    pred/act E change: -0.398D-03 -0.128D-03
Maxdispl :   0.0892   ||displ|| :   0.2016   Lambda : -0.746D-03
Largest |displ|/coords:  0.0892 (   2)  0.0571 (   3)  0.0559 (  10)
................................................................................
.............................. CYCLE   32 ......................................
................................................................................
   1    -50.7359827 -0.507360E+02  0.164E-01    8.83       0.0  T
   2    -50.7360060 -0.233471E-04  0.122E-01    8.83       1.0  T
   3    -50.7360211 -0.150509E-04  0.276E-02    8.82       1.0  T
   4    -50.7360236 -0.255813E-05  0.849E-03    8.83       2.3  T
   5    -50.7360238 -0.139879E-06  0.291E-03    8.83       6.7  T
   6    -50.7360238 -0.714453E-08  0.161E-03    8.83      12.2  T
speedup  0.89
cpu  time for SCC    0.00 s
wall time for SCC    0.01 s
speedup  1.00
cpu  time for grad    0.01 s
wall time for grad    0.01 s
 E :    -50.44942898  G :  0.027274    pred/act E change: -0.222D-03  0.470D-03
Maxdispl :   0.0445   ||displ|| :   0.1380   Lambda : -0.136D-02
Largest |displ|/coords:  0.0445 (  10)  0.0441 (   3)  0.0420 (   2)
................................................................................
.............................. CYCLE   33 ......................................
................................................................................
   1    -50.7306188 -0.507306E+02  0.111E-01    8.79       0.0  T
   2    -50.7306275 -0.868104E-05  0.825E-02    8.79       1.0  T
   3    -50.7306328 -0.536570E-05  0.168E-02    8.79       1.2  T
   4    -50.7306338 -0.995747E-06  0.388E-03    8.79       5.1  T
   5    -50.7306338 -0.264226E-07  0.166E-03    8.79      11.8  T
speedup  0.83
cpu  time for SCC    0.00 s
wall time for SCC    0.00 s
speedup  0.98
cpu  time for grad    0.01 s
wall time for grad    0.01 s
 E :    -50.45011092  G :  0.005637    pred/act E change: -0.388D-03 -0.682D-03
Maxdispl :   0.0431   ||displ|| :   0.0732   Lambda : -0.102D-03
Largest |displ|/coords:  0.0431 (   1)  0.0358 (   3)  0.0212 (  10)
................................................................................
.............................. CYCLE   34 ......................................
................................................................................
   1    -50.7321629 -0.507322E+02  0.531E-02    8.81       0.0  T
   2    -50.7321639 -0.101503E-05  0.401E-02    8.81       1.0  T
   3    -50.7321648 -0.857702E-06  0.551E-03    8.81       3.6  T
   4    -50.7321649 -0.128040E-06  0.141E-03    8.81      13.9  T
   5    -50.7321649 -0.259775E-08  0.678E-04    8.81      28.9  T
speedup  1.02
cpu  time for SCC    0.01 s
wall time for SCC    0.00 s
speedup  0.98
cpu  time for grad    0.01 s
wall time for grad    0.01 s
 E :    -50.45015365  G :  0.006225    pred/act E change: -0.695D-03 -0.427D-04
Maxdispl :   0.0446   ||displ|| :   0.0940   Lambda : -0.630D-04
Largest |displ|/coords:  0.0446 (   2)  0.0404 (   5)  0.0379 (   1)
................................................................................
.............................. CYCLE   35 ......................................
................................................................................
   1    -50.7317637 -0.507318E+02  0.542E-02    8.81       0.0  T
   2    -50.7317644 -0.676423E-06  0.410E-02    8.81       1.0  T
   3    -50.7317650 -0.582457E-06  0.479E-03    8.81       4.1  T
   4    -50.7317651 -0.853185E-07  0.201E-03    8.81       9.8  T
   5    -50.7317651 -0.418488E-08  0.515E-04    8.81      38.1  T
speedup  1.02
cpu  time for SCC    0.00 s
wall time for SCC    0.00 s
speedup  0.98
cpu  time for grad    0.01 s
wall time for grad    0.01 s
 E :    -50.45020185  G :  0.006010    pred/act E change: -0.514D-04 -0.482D-04
Maxdispl :   0.0955   ||displ|| :   0.1820   Lambda : -0.100D-03
Largest |displ|/coords:  0.0955 (   2)  0.0945 (   1)  0.0640 (   5)
................................................................................
.............................. CYCLE   36 ......................................
................................................................................
   1    -50.7321306 -0.507321E+02  0.811E-02    8.82       0.0  T
   2    -50.7321325 -0.183540E-05  0.609E-02    8.82       1.0  T
   3    -50.7321336 -0.112639E-05  0.858E-03    8.82       2.3  T
   4    -50.7321339 -0.288583E-06  0.313E-03    8.82       6.3  T
   5    -50.7321339 -0.118822E-07  0.805E-04    8.82      24.4  T
   6    -50.7321339 -0.702194E-09  0.489E-04    8.82      40.1  T
speedup  1.03
cpu  time for SCC    0.01 s
wall time for SCC    0.01 s
speedup  1.06
cpu  time for grad    0.01 s
wall time for grad    0.01 s
 E :    -50.45026303  G :  0.003878    pred/act E change: -0.318D-04 -0.612D-04
Maxdispl :   0.0733   ||displ|| :   0.1220   Lambda : -0.431D-04
Largest |displ|/coords:  0.0733 (   2)  0.0684 (   1)  0.0305 (   4)
................................................................................
.............................. CYCLE   37 ......................................
................................................................................
   1    -50.7327981 -0.507328E+02  0.552E-02    8.83       0.0  T
   2    -50.7327986 -0.530358E-06  0.418E-02    8.83       1.0  T
   3    -50.7327992 -0.570711E-06  0.415E-03    8.83       4.7  T
   4    -50.7327992 -0.474364E-07  0.169E-03    8.83      11.6  T
   5    -50.7327992 -0.247937E-08  0.490E-04    8.83      40.0  T
   6    -50.7327992 -0.263526E-09  0.288E-04    8.83      68.2  T
speedup  1.00
cpu  time for SCC    0.01 s
wall time for SCC    0.01 s
speedup  1.01
cpu  time for grad    0.01 s
wall time for grad    0.01 s
 E :    -50.45029555  G :  0.004139    pred/act E change: -0.517D-04 -0.325D-04
Maxdispl :   0.1337   ||displ|| :   0.2174   Lambda : -0.750D-04
Largest |displ|/coords:  0.1337 (   1)  0.1334 (   2)  0.0522 (   4)
................................................................................
.............................. CYCLE   38 ......................................
................................................................................
   1    -50.7335748 -0.507336E+02  0.937E-02    8.84       0.0  T
   2    -50.7335758 -0.996627E-06  0.706E-02    8.84       1.0  T
   3    -50.7335769 -0.114640E-05  0.554E-03    8.84       3.5  T
   4    -50.7335770 -0.717955E-07  0.269E-03    8.84       7.3  T
   5    -50.7335770 -0.635585E-08  0.783E-04    8.84      25.0  T
speedup  0.98
cpu  time for SCC    0.00 s
wall time for SCC    0.01 s
speedup  0.96
cpu  time for grad    0.01 s
wall time for grad    0.01 s
 E :    -50.45034716  G :  0.005409    pred/act E change: -0.219D-04 -0.516D-04
Maxdispl :   0.1376   ||displ|| :   0.2127   Lambda : -0.959D-04
Largest |displ|/coords:  0.1376 (   2)  0.1231 (   1)  0.0449 (   4)
................................................................................
.............................. CYCLE   39 ......................................
................................................................................
   1    -50.7351789 -0.507352E+02  0.819E-02    8.84       0.0  T
   2    -50.7351801 -0.122156E-05  0.618E-02    8.85       1.0  T
   3    -50.7351812 -0.111512E-05  0.574E-03    8.85       3.4  T
   4    -50.7351814 -0.136394E-06  0.303E-03    8.85       6.5  T
   5    -50.7351814 -0.105703E-07  0.785E-04    8.85      25.0  T
   6    -50.7351814 -0.545100E-09  0.462E-04    8.85      42.4  T
speedup  1.05
cpu  time for SCC    0.01 s
wall time for SCC    0.01 s
speedup  0.99
cpu  time for grad    0.01 s
wall time for grad    0.01 s
 E :    -50.45040140  G :  0.004975    pred/act E change: -0.393D-04 -0.542D-04
Maxdispl :   0.1772   ||displ|| :   0.2841   Lambda : -0.988D-04
Largest |displ|/coords:  0.1772 (   1)  0.1722 (   2)  0.0754 (   4)
................................................................................
.............................. CYCLE   40 ......................................
................................................................................
   1    -50.7332403 -0.507332E+02  0.141E-01    8.84       0.0  T
   2    -50.7332440 -0.372100E-05  0.107E-01    8.84       1.0  T
   3    -50.7332475 -0.348711E-05  0.105E-02    8.84       1.9  T
   4    -50.7332479 -0.430881E-06  0.498E-03    8.84       3.9  T
   5    -50.7332479 -0.345392E-07  0.147E-03    8.84      13.3  T
   6    -50.7332479 -0.245630E-08  0.850E-04    8.84      23.1  T
speedup  1.05
cpu  time for SCC    0.01 s
wall time for SCC    0.01 s
speedup  0.99
cpu  time for grad    0.01 s
wall time for grad    0.01 s
 E :    -50.45042774  G :  0.010236    pred/act E change: -0.501D-04 -0.263D-04
Maxdispl :   0.0502   ||displ|| :   0.0861   Lambda : -0.116D-03
Largest |displ|/coords:  0.0502 (   2)  0.0343 (   1)  0.0259 (   5)
................................................................................
.............................. CYCLE   41 ......................................
................................................................................
   1    -50.7336477 -0.507336E+02  0.516E-02    8.83       0.0  T
   2    -50.7336491 -0.141181E-05  0.387E-02    8.83       1.0  T
   3    -50.7336502 -0.102066E-05  0.730E-03    8.83       2.7  T
   4    -50.7336503 -0.175975E-06  0.191E-03    8.83      10.3  T
   5    -50.7336503 -0.638784E-08  0.684E-04    8.83      28.7  T
speedup  1.04
cpu  time for SCC    0.00 s
wall time for SCC    0.00 s
speedup  1.06
cpu  time for grad    0.01 s
wall time for grad    0.01 s
 E :    -50.45049070  G :  0.004845    pred/act E change: -0.534D-04 -0.630D-04
Maxdispl :   0.0451   ||displ|| :   0.0685   Lambda : -0.620D-04
Largest |displ|/coords:  0.0451 (   1)  0.0214 (   6)  0.0202 (  23)
................................................................................
.............................. CYCLE   42 ......................................
................................................................................
   1    -50.7336682 -0.507337E+02  0.427E-02    8.83       0.0  T
   2    -50.7336686 -0.411466E-06  0.321E-02    8.83       1.0  T
   3    -50.7336690 -0.452738E-06  0.423E-03    8.82       4.6  T
   4    -50.7336691 -0.304800E-07  0.113E-03    8.82      17.3  T
   5    -50.7336691 -0.193299E-08  0.473E-04    8.82      41.4  T
speedup  0.82
cpu  time for SCC    0.00 s
wall time for SCC    0.00 s
speedup  0.98
cpu  time for grad    0.01 s
wall time for grad    0.01 s
 E :    -50.45053396  G :  0.003839    pred/act E change: -0.586D-04 -0.433D-04
Maxdispl :   0.1709   ||displ|| :   0.2344   Lambda : -0.934D-04
Largest |displ|/coords:  0.1709 (   1)  0.0972 (   2)  0.0605 (   4)
................................................................................
.............................. CYCLE   43 ......................................
................................................................................
   1    -50.7318094 -0.507318E+02  0.126E-01    8.82       0.0  T
   2    -50.7318115 -0.211735E-05  0.951E-02    8.82       1.0  T
   3    -50.7318140 -0.249793E-05  0.846E-03    8.82       2.3  T
   4    -50.7318141 -0.160138E-06  0.297E-03    8.82       6.6  T
   5    -50.7318142 -0.118934E-07  0.122E-03    8.82      16.1  T
   6    -50.7318142 -0.216672E-08  0.521E-04    8.82      37.6  T
   7    -50.7318142 -0.664755E-09  0.134E-04    8.82     146.2  T
speedup  1.06
cpu  time for SCC    0.01 s
wall time for SCC    0.01 s
speedup  1.01
cpu  time for grad    0.02 s
wall time for grad    0.02 s
 E :    -50.45059047  G :  0.006647    pred/act E change: -0.312D-04 -0.565D-04
Maxdispl :   0.0680   ||displ|| :   0.0869   Lambda : -0.568D-04
Largest |displ|/coords:  0.0680 (   1)  0.0219 (   4)  0.0196 (  23)
................................................................................
.............................. CYCLE   44 ......................................
................................................................................
   1    -50.7316371 -0.507316E+02  0.494E-02    8.83       0.0  T
   2    -50.7316376 -0.449963E-06  0.371E-02    8.83       1.0  T
   3    -50.7316378 -0.271987E-06  0.399E-03    8.82       4.9  T
   4    -50.7316379 -0.783344E-07  0.166E-03    8.82      11.8  T
   5    -50.7316379 -0.311769E-08  0.421E-04    8.82      46.5  T
speedup  1.04
cpu  time for SCC    0.00 s
wall time for SCC    0.00 s
speedup  0.98
cpu  time for grad    0.01 s
wall time for grad    0.01 s
 E :    -50.45063271  G :  0.005334    pred/act E change: -0.493D-04 -0.422D-04
Maxdispl :   0.1514   ||displ|| :   0.1926   Lambda : -0.103D-03
Largest |displ|/coords:  0.1514 (   1)  0.0437 (   4)  0.0431 (   2)
................................................................................
.............................. CYCLE   45 ......................................
................................................................................
   1    -50.7316662 -0.507317E+02  0.112E-01    8.84       0.0  T
   2    -50.7316679 -0.170347E-05  0.846E-02    8.83       1.0  T
   3    -50.7316694 -0.148048E-05  0.674E-03    8.83       2.9  T
   4    -50.7316696 -0.228427E-06  0.327E-03    8.83       6.0  T
   5    -50.7316696 -0.106436E-07  0.932E-04    8.83      21.0  T
   6    -50.7316696 -0.966537E-09  0.535E-04    8.83      36.7  T
speedup  1.05
cpu  time for SCC    0.01 s
wall time for SCC    0.01 s
speedup  0.99
cpu  time for grad    0.01 s
wall time for grad    0.01 s
 E :    -50.45069703  G :  0.006722    pred/act E change: -0.286D-04 -0.643D-04
Maxdispl :   0.1304   ||displ|| :   0.1725   Lambda : -0.980D-04
Largest |displ|/coords:  0.1304 (   1)  0.0461 (   2)  0.0416 (   5)
................................................................................
.............................. CYCLE   46 ......................................
................................................................................
   1    -50.7318234 -0.507318E+02  0.947E-02    8.85       0.0  T
   2    -50.7318242 -0.791481E-06  0.712E-02    8.85       1.0  T
   3    -50.7318250 -0.769064E-06  0.513E-03    8.85       3.8  T
   4    -50.7318250 -0.694159E-07  0.212E-03    8.85       9.3  T
   5    -50.7318250 -0.469012E-08  0.630E-04    8.85      31.1  T
speedup  1.04
cpu  time for SCC    0.00 s
wall time for SCC    0.00 s
speedup  0.99
cpu  time for grad    0.01 s
wall time for grad    0.01 s
 E :    -50.45075750  G :  0.006085    pred/act E change: -0.535D-04 -0.605D-04
Maxdispl :   0.1243   ||displ|| :   0.1756   Lambda : -0.947D-04
Largest |displ|/coords:  0.1243 (   1)  0.0563 (   6)  0.0409 (   2)
................................................................................
.............................. CYCLE   47 ......................................
................................................................................
   1    -50.7318280 -0.507318E+02  0.112E-01    8.86       0.0  T
   2    -50.7318292 -0.120791E-05  0.843E-02    8.86       1.0  T
   3    -50.7318306 -0.140559E-05  0.608E-03    8.86       3.2  T
   4    -50.7318307 -0.863488E-07  0.208E-03    8.86       9.4  T
   5    -50.7318307 -0.471665E-08  0.867E-04    8.86      22.6  T
speedup  1.02
cpu  time for SCC    0.00 s
wall time for SCC    0.00 s
speedup  0.98
cpu  time for grad    0.01 s
wall time for grad    0.01 s
 E :    -50.45082554  G :  0.006413    pred/act E change: -0.505D-04 -0.680D-04
Maxdispl :   0.1856   ||displ|| :   0.2452   Lambda : -0.119D-03
Largest |displ|/coords:  0.1856 (   1)  0.0616 (   2)  0.0594 (   5)
................................................................................
.............................. CYCLE   48 ......................................
................................................................................
   1    -50.7314889 -0.507315E+02  0.152E-01    8.85       0.0  T
   2    -50.7314915 -0.254700E-05  0.115E-01    8.85       1.0  T
   3    -50.7314940 -0.249711E-05  0.882E-03    8.85       2.2  T
   4    -50.7314942 -0.292013E-06  0.359E-03    8.85       5.5  T
   5    -50.7314943 -0.125862E-07  0.120E-03    8.85      16.3  T
   6    -50.7314943 -0.182101E-08  0.637E-04    8.85      30.8  T
speedup  1.05
cpu  time for SCC    0.01 s
wall time for SCC    0.01 s
speedup  1.06
cpu  time for grad    0.01 s
wall time for grad    0.01 s
 E :    -50.45090056  G :  0.007953    pred/act E change: -0.488D-04 -0.750D-04
Maxdispl :   0.1557   ||displ|| :   0.3326   Lambda : -0.324D-03
Largest |displ|/coords:  0.1557 (   6)  0.1446 (   5)  0.0945 (   3)
................................................................................
.............................. CYCLE   49 ......................................
................................................................................
   1    -50.7375852 -0.507376E+02  0.198E-01    8.81       0.0  T
   2    -50.7376103 -0.251127E-04  0.147E-01    8.81       1.0  T
   3    -50.7376254 -0.150722E-04  0.308E-02    8.82       1.0  T
   4    -50.7376284 -0.305871E-05  0.955E-03    8.82       2.1  T
   5    -50.7376286 -0.144799E-06  0.290E-03    8.82       6.8  T
   6    -50.7376286 -0.675634E-08  0.162E-03    8.82      12.1  T
speedup  0.86
cpu  time for SCC    0.00 s
wall time for SCC    0.01 s
speedup  0.99
cpu  time for grad    0.01 s
wall time for grad    0.01 s
 E :    -50.45010260  G :  0.036611    pred/act E change: -0.631D-04  0.798D-03
Maxdispl :   0.0820   ||displ|| :   0.1865   Lambda : -0.170D-02
Largest |displ|/coords:  0.0820 (   6)  0.0691 (   1)  0.0614 (   2)
................................................................................
.............................. CYCLE   50 ......................................
................................................................................
   1    -50.7324606 -0.507325E+02  0.117E-01    8.85       0.0  T
   2    -50.7324760 -0.153281E-04  0.862E-02    8.84       1.0  T
   3    -50.7324862 -0.102416E-04  0.227E-02    8.84       1.0  T
   4    -50.7324878 -0.154022E-05  0.668E-03    8.84       2.9  T
   5    -50.7324878 -0.757436E-07  0.222E-03    8.84       8.8  T
   6    -50.7324878 -0.558642E-08  0.120E-03    8.84      16.4  T
speedup  0.88
cpu  time for SCC    0.00 s
wall time for SCC    0.01 s
speedup  0.99
cpu  time for grad    0.01 s
wall time for grad    0.01 s
 E :    -50.45096370  G :  0.005378    pred/act E change: -0.180D-03 -0.861D-03
Maxdispl :   0.0435   ||displ|| :   0.0878   Lambda : -0.544D-04
Largest |displ|/coords:  0.0435 (   6)  0.0356 (   5)  0.0292 (  11)
................................................................................
.............................. CYCLE   51 ......................................
................................................................................
   1    -50.7326324 -0.507326E+02  0.544E-02    8.84       0.0  T
   2    -50.7326330 -0.629514E-06  0.407E-02    8.84       1.0  T
   3    -50.7326333 -0.330048E-06  0.489E-03    8.84       4.0  T
   4    -50.7326334 -0.113426E-06  0.142E-03    8.84      13.8  T
   5    -50.7326334 -0.273579E-08  0.460E-04    8.84      42.7  T
speedup  1.02
cpu  time for SCC    0.00 s
wall time for SCC    0.00 s
speedup  0.98
cpu  time for grad    0.01 s
wall time for grad    0.01 s
 E :    -50.45099621  G :  0.002845    pred/act E change: -0.878D-03 -0.325D-04
Maxdispl :   0.0887   ||displ|| :   0.1117   Lambda : -0.490D-04
Largest |displ|/coords:  0.0887 (   1)  0.0406 (   2)  0.0197 (  59)
................................................................................
.............................. CYCLE   52 ......................................
................................................................................
   1    -50.7323106 -0.507323E+02  0.659E-02    8.83       0.0  T
   2    -50.7323112 -0.557133E-06  0.499E-02    8.83       1.0  T
   3    -50.7323119 -0.693092E-06  0.388E-03    8.83       5.1  T
   4    -50.7323119 -0.354773E-07  0.142E-03    8.83      13.8  T
   5    -50.7323119 -0.288938E-08  0.561E-04    8.83      35.0  T
   6    -50.7323119 -0.559474E-09  0.280E-04    8.83      70.1  T
speedup  1.03
cpu  time for SCC    0.01 s
wall time for SCC    0.01 s
speedup  1.02
cpu  time for grad    0.01 s
wall time for grad    0.01 s
 E :    -50.45103405  G :  0.004145    pred/act E change: -0.274D-04 -0.378D-04
Maxdispl :   0.1320   ||displ|| :   0.1785   Lambda : -0.783D-04
Largest |displ|/coords:  0.1320 (   1)  0.0554 (   2)  0.0358 (  59)

generating ANC from model Hessian ...
 Shifting diagonal of input Hessian by   5.021694932786150E-003
 Lowest  eigenvalues of input Hessian
    0.005000   -0.000000   -0.000000   -0.000000    0.000000    0.000000
    0.000000    0.005443    0.005503    0.006485    0.006864    0.006964
    0.007689    0.009130    0.009336    0.010302    0.010942    0.011585
 Highest eigenvalues
    1.388346    1.401222    1.460295    2.445402    3.281177    3.829935
 
cpu  time for ANC gen    0.02 s
wall time for ANC gen    0.02 s
................................................................................
.............................. CYCLE   53 ......................................
................................................................................
   1    -50.7322493 -0.507322E+02  0.113E-01    8.82       0.0  T
   2    -50.7322507 -0.136601E-05  0.851E-02    8.82       1.0  T
   3    -50.7322523 -0.157971E-05  0.595E-03    8.82       3.3  T
   4    -50.7322524 -0.103272E-06  0.263E-03    8.82       7.4  T
   5    -50.7322524 -0.614818E-08  0.884E-04    8.82      22.2  T
   6    -50.7322524 -0.112484E-08  0.477E-04    8.82      41.1  T
speedup  0.88
cpu  time for SCC    0.00 s
wall time for SCC    0.01 s
speedup  0.96
cpu  time for grad    0.01 s
wall time for grad    0.01 s
 E :    -50.45108057  G :  0.005835    pred/act E change:  0.000D+00 -0.465D-04
Maxdispl :   0.0345   ||displ|| :   0.0674   Lambda : -0.763D-04
Largest |displ|/coords:  0.0345 (   8)  0.0270 (  12)  0.0259 (   3)
................................................................................
.............................. CYCLE   54 ......................................
................................................................................
   1    -50.7328540 -0.507329E+02  0.717E-02    8.82       0.0  T
   2    -50.7328546 -0.620474E-06  0.545E-02    8.82       1.0  T
   3    -50.7328553 -0.683741E-06  0.373E-03    8.82       5.3  T
   4    -50.7328554 -0.479783E-07  0.149E-03    8.82      13.2  T
   5    -50.7328554 -0.287705E-08  0.506E-04    8.82      38.7  T
speedup  1.04
cpu  time for SCC    0.00 s
wall time for SCC    0.00 s
speedup  0.98
cpu  time for grad    0.01 s
wall time for grad    0.01 s
 E :    -50.45113324  G :  0.002373    pred/act E change:  0.000D+00 -0.527D-04
Maxdispl :   0.0561   ||displ|| :   0.1063   Lambda : -0.562D-04
Largest |displ|/coords:  0.0561 (   1)  0.0410 (   3)  0.0402 (   2)
................................................................................
.............................. CYCLE   55 ......................................
................................................................................
   1    -50.7331137 -0.507331E+02  0.892E-02    8.83       0.0  T
   2    -50.7331143 -0.517971E-06  0.674E-02    8.83       1.0  T
   3    -50.7331149 -0.626158E-06  0.344E-03    8.83       5.7  T
   4    -50.7331149 -0.291281E-07  0.176E-03    8.83      11.1  T
   5    -50.7331149 -0.267161E-08  0.536E-04    8.83      36.6  T
   6    -50.7331149 -0.332278E-09  0.272E-04    8.83      72.2  T
speedup  0.89
cpu  time for SCC    0.00 s
wall time for SCC    0.01 s
speedup  0.97
cpu  time for grad    0.01 s
wall time for grad    0.01 s
 E :    -50.45117431  G :  0.001128    pred/act E change: -0.383D-04 -0.411D-04
Maxdispl :   0.1214   ||displ|| :   0.1958   Lambda : -0.582D-04
Largest |displ|/coords:  0.1214 (   1)  0.0780 (   3)  0.0751 (   2)
................................................................................
.............................. CYCLE   56 ......................................
................................................................................
   1    -50.7321658 -0.507322E+02  0.159E-01    8.84       0.0  T
   2    -50.7321683 -0.245286E-05  0.120E-01    8.84       1.0  T
   3    -50.7321715 -0.320988E-05  0.708E-03    8.84       2.8  T
   4    -50.7321716 -0.117545E-06  0.365E-03    8.84       5.4  T
   5    -50.7321716 -0.124476E-07  0.109E-03    8.84      18.0  T
   6    -50.7321716 -0.163512E-08  0.590E-04    8.84      33.3  T
   7    -50.7321716 -0.793122E-09  0.112E-04    8.84     174.4  T
speedup  0.92
cpu  time for SCC    0.01 s
wall time for SCC    0.01 s
speedup  0.97
cpu  time for grad    0.01 s
wall time for grad    0.02 s
 E :    -50.45119912  G :  0.005775    pred/act E change: -0.284D-04 -0.248D-04
Maxdispl :   0.0331   ||displ|| :   0.0588   Lambda : -0.468D-04
Largest |displ|/coords:  0.0331 (   1)  0.0292 (   2)  0.0213 (   3)
................................................................................
.............................. CYCLE   57 ......................................
................................................................................
   1    -50.7327610 -0.507328E+02  0.206E-02    8.84       0.0  T
   2    -50.7327613 -0.309935E-06  0.151E-02    8.84       1.3  T
   3    -50.7327615 -0.188965E-06  0.334E-03    8.84       5.9  T
   4    -50.7327615 -0.316526E-07  0.607E-04    8.84      32.3  T
   5    -50.7327615 -0.680735E-09  0.298E-04    8.84      65.9  T
speedup  1.04
cpu  time for SCC    0.00 s
wall time for SCC    0.00 s
speedup  0.98
cpu  time for grad    0.01 s
wall time for grad    0.01 s
 E :    -50.45123226  G :  0.001886    pred/act E change: -0.302D-04 -0.331D-04
Maxdispl :   0.1752   ||displ|| :   0.2599   Lambda : -0.651D-04
Largest |displ|/coords:  0.1752 (   1)  0.1217 (   2)  0.1043 (   3)
................................................................................
.............................. CYCLE   58 ......................................
................................................................................
   1    -50.7324595 -0.507325E+02  0.127E-01    8.84       0.0  T
   2    -50.7324611 -0.157433E-05  0.958E-02    8.84       1.0  T
   3    -50.7324631 -0.198920E-05  0.716E-03    8.84       2.7  T
   4    -50.7324632 -0.800038E-07  0.240E-03    8.84       8.2  T
   5    -50.7324632 -0.665457E-08  0.101E-03    8.84      19.4  T
   6    -50.7324632 -0.128303E-08  0.532E-04    8.84      36.8  T
   7    -50.7324632 -0.335362E-09  0.925E-05    8.84     212.0  T
speedup  1.06
cpu  time for SCC    0.01 s
wall time for SCC    0.01 s
speedup  1.03
cpu  time for grad    0.02 s
wall time for grad    0.02 s
 E :    -50.45128570  G :  0.002566    pred/act E change: -0.235D-04 -0.534D-04
Maxdispl :   0.3083   ||displ|| :   0.4536   Lambda : -0.992D-04
Largest |displ|/coords:  0.3083 (   1)  0.2121 (   2)  0.1780 (   3)
................................................................................
.............................. CYCLE   59 ......................................
................................................................................
   1    -50.7310341 -0.507310E+02  0.206E-01    8.84       0.0  T
   2    -50.7310391 -0.495417E-05  0.156E-01    8.84       1.0  T
   3    -50.7310457 -0.661840E-05  0.120E-02    8.84       1.6  T
   4    -50.7310459 -0.208031E-06  0.416E-03    8.84       4.7  T
   5    -50.7310459 -0.199166E-07  0.180E-03    8.84      10.9  T
   6    -50.7310459 -0.415299E-08  0.897E-04    8.84      21.9  T
   7    -50.7310459 -0.952078E-09  0.154E-04    8.84     127.1  T
speedup  1.06
cpu  time for SCC    0.01 s
wall time for SCC    0.01 s
speedup  1.03
cpu  time for grad    0.02 s
wall time for grad    0.02 s
 E :    -50.45132214  G :  0.009709    pred/act E change: -0.348D-04 -0.364D-04
Maxdispl :   0.0471   ||displ|| :   0.0987   Lambda : -0.129D-03
Largest |displ|/coords:  0.0471 (   8)  0.0460 (  12)  0.0316 (   1)
................................................................................
.............................. CYCLE   60 ......................................
................................................................................
   1    -50.7333187 -0.507333E+02  0.503E-02    8.84       0.0  T
   2    -50.7333209 -0.214437E-05  0.371E-02    8.84       1.0  T
   3    -50.7333222 -0.126841E-05  0.849E-03    8.84       2.3  T
   4    -50.7333224 -0.238951E-06  0.225E-03    8.84       8.7  T
   5    -50.7333224 -0.115274E-07  0.885E-04    8.84      22.2  T
speedup  1.04
cpu  time for SCC    0.00 s
wall time for SCC    0.00 s
speedup  1.07
cpu  time for grad    0.01 s
wall time for grad    0.01 s
 E :    -50.45135180  G :  0.004041    pred/act E change: -0.598D-04 -0.297D-04
Maxdispl :   0.0449   ||displ|| :   0.0801   Lambda : -0.517D-04
Largest |displ|/coords:  0.0449 (   2)  0.0395 (   1)  0.0278 (   3)
................................................................................
.............................. CYCLE   61 ......................................
................................................................................
   1    -50.7326926 -0.507327E+02  0.485E-02    8.84       0.0  T
   2    -50.7326929 -0.357368E-06  0.366E-02    8.84       1.0  T
   3    -50.7326933 -0.377864E-06  0.312E-03    8.84       6.3  T
   4    -50.7326933 -0.388559E-07  0.991E-04    8.84      19.8  T
   5    -50.7326933 -0.863174E-09  0.524E-04    8.84      37.4  T
speedup  0.83
cpu  time for SCC    0.00 s
wall time for SCC    0.00 s
speedup  0.98
cpu  time for grad    0.01 s
wall time for grad    0.01 s
 E :    -50.45138848  G :  0.002985    pred/act E change: -0.652D-04 -0.367D-04
Maxdispl :   0.1055   ||displ|| :   0.1879   Lambda : -0.443D-04
Largest |displ|/coords:  0.1055 (   2)  0.1003 (   1)  0.0659 (   3)
................................................................................
.............................. CYCLE   62 ......................................
................................................................................
   1    -50.7321324 -0.507321E+02  0.921E-02    8.85       0.0  T
   2    -50.7321335 -0.104809E-05  0.699E-02    8.85       1.0  T
   3    -50.7321349 -0.142440E-05  0.471E-03    8.85       4.2  T
   4    -50.7321349 -0.490289E-07  0.186E-03    8.85      10.5  T
   5    -50.7321350 -0.322992E-08  0.783E-04    8.85      25.0  T
   6    -50.7321350 -0.114098E-08  0.284E-04    8.85      69.1  T
speedup  1.05
cpu  time for SCC    0.01 s
wall time for SCC    0.01 s
speedup  1.02
cpu  time for grad    0.01 s
wall time for grad    0.01 s
 E :    -50.45141232  G :  0.006978    pred/act E change: -0.260D-04 -0.238D-04
Maxdispl :   0.0236   ||displ|| :   0.0514   Lambda : -0.366D-04
Largest |displ|/coords:  0.0236 (  10)  0.0214 (   1)  0.0205 (  12)
................................................................................
.............................. CYCLE   63 ......................................
................................................................................
   1    -50.7328354 -0.507328E+02  0.259E-02    8.85       0.0  T
   2    -50.7328356 -0.265435E-06  0.191E-02    8.85       1.0  T
   3    -50.7328358 -0.133326E-06  0.362E-03    8.86       5.4  T
   4    -50.7328358 -0.337113E-07  0.125E-03    8.85      15.7  T
   5    -50.7328358 -0.178641E-08  0.244E-04    8.85      80.5  T
speedup  1.00
cpu  time for SCC    0.00 s
wall time for SCC    0.00 s
speedup  0.96
cpu  time for grad    0.01 s
wall time for grad    0.01 s
 E :    -50.45143888  G :  0.005049    pred/act E change: -0.229D-04 -0.266D-04
Maxdispl :   0.1081   ||displ|| :   0.1878   Lambda : -0.567D-04
Largest |displ|/coords:  0.1081 (   2)  0.0828 (   4)  0.0772 (   1)
................................................................................
.............................. CYCLE   64 ......................................
................................................................................
   1    -50.7332462 -0.507332E+02  0.817E-02    8.86       0.0  T
   2    -50.7332472 -0.101339E-05  0.620E-02    8.86       1.0  T
   3    -50.7332483 -0.112285E-05  0.534E-03    8.86       3.7  T
   4    -50.7332484 -0.921594E-07  0.265E-03    8.86       7.4  T
   5    -50.7332484 -0.741112E-08  0.782E-04    8.86      25.1  T
speedup  1.02
cpu  time for SCC    0.00 s
wall time for SCC    0.00 s
speedup  1.04
cpu  time for grad    0.01 s
wall time for grad    0.01 s
 E :    -50.45148171  G :  0.004401    pred/act E change: -0.183D-04 -0.428D-04
Maxdispl :   0.1247   ||displ|| :   0.2271   Lambda : -0.615D-04
Largest |displ|/coords:  0.1247 (   2)  0.1051 (   1)  0.1031 (   4)
................................................................................
.............................. CYCLE   65 ......................................
................................................................................
   1    -50.7335198 -0.507335E+02  0.968E-02    8.85       0.0  T
   2    -50.7335212 -0.140219E-05  0.736E-02    8.85       1.0  T
   3    -50.7335228 -0.163834E-05  0.566E-03    8.85       3.5  T
   4    -50.7335229 -0.112348E-06  0.305E-03    8.85       6.4  T
   5    -50.7335229 -0.103039E-07  0.893E-04    8.85      22.0  T
   6    -50.7335229 -0.844437E-09  0.487E-04    8.85      40.3  T
speedup  1.05
cpu  time for SCC    0.01 s
[...]
Maxdispl :   0.0278   ||displ|| :   0.0488   Lambda : -0.616D-05
Largest |displ|/coords:  0.0278 (   6)  0.0176 (  11)  0.0150 (  26)
................................................................................
.............................. CYCLE   88 ......................................
................................................................................
   1    -50.7367329 -0.507367E+02  0.228E-02    8.83       0.0  T
   2    -50.7367330 -0.117808E-06  0.171E-02    8.83       1.1  T
   3    -50.7367332 -0.130432E-06  0.220E-03    8.83       8.9  T
   4    -50.7367332 -0.101504E-07  0.817E-04    8.83      24.0  T
   5    -50.7367332 -0.958345E-09  0.265E-04    8.83      74.1  T
speedup  0.85
cpu  time for SCC    0.00 s
wall time for SCC    0.00 s
speedup  0.96
cpu  time for grad    0.01 s
wall time for grad    0.01 s
 E :    -50.45281503  G :  0.001019    pred/act E change: -0.352D-05 -0.433D-05
Maxdispl :   0.0339   ||displ|| :   0.0524   Lambda : -0.509D-05
Largest |displ|/coords:  0.0339 (   6)  0.0204 (   3)  0.0157 (  11)
................................................................................
.............................. CYCLE   89 ......................................
................................................................................
   1    -50.7366526 -0.507367E+02  0.228E-02    8.83       0.0  T
   2    -50.7366527 -0.102862E-06  0.170E-02    8.83       1.2  T
   3    -50.7366528 -0.110430E-06  0.220E-03    8.83       8.9  T
   4    -50.7366529 -0.927503E-08  0.884E-04    8.83      22.2  T
   5    -50.7366529 -0.961471E-09  0.244E-04    8.83      80.4  T
speedup  0.85
cpu  time for SCC    0.00 s
wall time for SCC    0.00 s
speedup  0.96
cpu  time for grad    0.01 s
wall time for grad    0.01 s
 E :    -50.45281857  G :  0.001003    pred/act E change: -0.309D-05 -0.355D-05
Maxdispl :   0.0299   ||displ|| :   0.0466   Lambda : -0.359D-05
Largest |displ|/coords:  0.0299 (   6)  0.0200 (   3)  0.0139 (  11)
................................................................................
.............................. CYCLE   90 ......................................
................................................................................
   1    -50.7366383 -0.507366E+02  0.207E-02    8.83       0.0  T
   2    -50.7366383 -0.868661E-07  0.155E-02    8.83       1.3  T
   3    -50.7366384 -0.904934E-07  0.200E-03    8.83       9.8  T
   4    -50.7366384 -0.870637E-08  0.903E-04    8.83      21.7  T
   5    -50.7366384 -0.908663E-09  0.228E-04    8.83      86.2  T
speedup  1.25
cpu  time for SCC    0.01 s
wall time for SCC    0.00 s
speedup  1.01
cpu  time for grad    0.01 s
wall time for grad    0.01 s
 E :    -50.45282103  G :  0.000801    pred/act E change: -0.255D-05 -0.246D-05
Maxdispl :   0.0195   ||displ|| :   0.0316   Lambda : -0.205D-05
Largest |displ|/coords:  0.0195 (   6)  0.0148 (   3)  0.0099 (  11)
................................................................................
.............................. CYCLE   91 ......................................
................................................................................
   1    -50.7367054 -0.507367E+02  0.145E-02    8.83       0.0  T
   2    -50.7367055 -0.477228E-07  0.108E-02    8.83       1.8  T
   3    -50.7367055 -0.424467E-07  0.137E-03    8.83      14.3  T
   4    -50.7367055 -0.544701E-08  0.651E-04    8.83      30.1  T
   5    -50.7367055 -0.494545E-09  0.157E-04    8.83     125.2  T
speedup  1.06
cpu  time for SCC    0.00 s
wall time for SCC    0.00 s
speedup  1.04
cpu  time for grad    0.01 s
wall time for grad    0.01 s
 E :    -50.45282243  G :  0.000552    pred/act E change: -0.180D-05 -0.140D-05
Maxdispl :   0.0112   ||displ|| :   0.0210   Lambda : -0.112D-05
Largest |displ|/coords:  0.0112 (   6)  0.0086 (   3)  0.0084 (  11)
................................................................................
.............................. CYCLE   92 ......................................
................................................................................
   1    -50.7367752 -0.507368E+02  0.107E-02    8.83       0.0  T
   2    -50.7367753 -0.310962E-07  0.802E-03    8.83       2.4  T
   3    -50.7367753 -0.264475E-07  0.995E-04    8.83      19.7  T
   4    -50.7367753 -0.387742E-08  0.494E-04    8.83      39.7  T
speedup  1.05
cpu  time for SCC    0.00 s
wall time for SCC    0.00 s
speedup  1.02
cpu  time for grad    0.01 s
wall time for grad    0.01 s
 E :    -50.45282321  G :  0.000437    pred/act E change: -0.103D-05 -0.788D-06
Maxdispl :   0.0056   ||displ|| :   0.0137   Lambda : -0.660D-06
Largest |displ|/coords:  0.0056 (   6)  0.0055 (  11)  0.0050 (   5)
................................................................................
.............................. CYCLE   93 ......................................
................................................................................
   1    -50.7368295 -0.507368E+02  0.680E-03    8.84       0.0  T
   2    -50.7368295 -0.127840E-07  0.511E-03    8.84       3.8  T
   3    -50.7368295 -0.103302E-07  0.680E-04    8.83      28.9  T
   4    -50.7368295 -0.158720E-08  0.301E-04    8.84      65.1  T
speedup  1.05
cpu  time for SCC    0.00 s
wall time for SCC    0.00 s
speedup  1.02
cpu  time for grad    0.01 s
wall time for grad    0.01 s
 E :    -50.45282370  G :  0.000358    pred/act E change: -0.560D-06 -0.486D-06
Maxdispl :   0.0076   ||displ|| :   0.0164   Lambda : -0.493D-06
Largest |displ|/coords:  0.0076 (   6)  0.0071 (  11)  0.0059 (   1)
................................................................................
.............................. CYCLE   94 ......................................
................................................................................
   1    -50.7368273 -0.507368E+02  0.723E-03    8.84       0.0  T
   2    -50.7368274 -0.144161E-07  0.545E-03    8.84       3.6  T
   3    -50.7368274 -0.139612E-07  0.675E-04    8.84      29.0  T
   4    -50.7368274 -0.165002E-08  0.319E-04    8.84      61.6  T
speedup  1.00
cpu  time for SCC    0.00 s
wall time for SCC    0.00 s
speedup  1.01
cpu  time for grad    0.01 s
wall time for grad    0.01 s
 E :    -50.45282403  G :  0.000254    pred/act E change: -0.330D-06 -0.329D-06
Maxdispl :   0.0040   ||displ|| :   0.0080   Lambda : -0.223D-06
Largest |displ|/coords:  0.0040 (   1)  0.0033 (   6)  0.0028 (   5)
................................................................................
.............................. CYCLE   95 ......................................
................................................................................
   1    -50.7368237 -0.507368E+02  0.295E-03    8.84       0.0  T
   2    -50.7368237 -0.255603E-08  0.221E-03    8.84       8.9  T
   3    -50.7368237 -0.212522E-08  0.326E-04    8.84      60.2  T
   4    -50.7368237 -0.311545E-09  0.127E-04    8.84     154.1  T
speedup  1.03
cpu  time for SCC    0.00 s
wall time for SCC    0.00 s
speedup  1.02
cpu  time for grad    0.01 s
wall time for grad    0.01 s
 E :    -50.45282419  G :  0.000182    pred/act E change: -0.247D-06 -0.159D-06
Maxdispl :   0.0052   ||displ|| :   0.0090   Lambda : -0.167D-06
Largest |displ|/coords:  0.0052 (   6)  0.0038 (   1)  0.0024 (  11)
................................................................................
.............................. CYCLE   96 ......................................
................................................................................
   1    -50.7367968 -0.507368E+02  0.362E-03    8.84       0.0  T
   2    -50.7367968 -0.340758E-08  0.273E-03    8.84       7.2  T
   3    -50.7367968 -0.338515E-08  0.335E-04    8.84      58.5  T
   4    -50.7367968 -0.346439E-09  0.158E-04    8.84     123.8  T
speedup  1.05
cpu  time for SCC    0.00 s
wall time for SCC    0.00 s
speedup  1.02
cpu  time for grad    0.01 s
wall time for grad    0.01 s
 E :    -50.45282430  G :  0.000136    pred/act E change: -0.111D-06 -0.109D-06
Maxdispl :   0.0017   ||displ|| :   0.0043   Lambda : -0.709D-07
Largest |displ|/coords:  0.0017 (  11)  0.0017 (   1)  0.0015 (   4)
................................................................................
.............................. CYCLE   97 ......................................
................................................................................
   1    -50.7368042 -0.507368E+02  0.264E-03    8.84       0.0  T
   2    -50.7368042 -0.175658E-08  0.196E-03    8.84      10.0  T
   3    -50.7368042 -0.171664E-08  0.296E-04    8.84      66.3  T
   4    -50.7368042 -0.169742E-09  0.898E-05    8.84     218.5  T
speedup  1.03
cpu  time for SCC    0.00 s
wall time for SCC    0.00 s
speedup  1.02
cpu  time for grad    0.01 s
wall time for grad    0.01 s
 E :    -50.45282435  G :  0.000121    pred/act E change: -0.834D-07 -0.532D-07
Maxdispl :   0.0030   ||displ|| :   0.0062   Lambda : -0.798D-07
Largest |displ|/coords:  0.0030 (   6)  0.0024 (   4)  0.0024 (   1)

   *** GEOMETRY OPTIMIZATION CONVERGED AFTER 97 ITERATIONS ***

------------------------------------------------------------------------
 total energy gain (kcal):     -0.0409
------------------------------------------------------------------------
================
 final structure:
================
$coord
       -0.17053545479878       -0.30920431204864       -3.77190739075226      S 
       -0.10329807481821       -2.94715754967831       -3.06789362447499      O 
       -0.24408392828496        0.30700222853993       -6.38522703603486      O 
       -2.21058033231178        1.02141475203051       -2.32131804057552      O 
        2.35226411630425        0.94480605179623       -2.68822797935746      O 
        2.73309797179227        0.18180742875666       -1.03371188774467      H 
       -3.18812284491635        0.42181015048450        0.51066931799932      H 
        3.57687182470152       -0.75339936224625        1.84456530088050      O 
        5.37779170961152       -0.74440534236124        2.03984201301118      H 
       -3.64250818872085        0.27171570574812        2.32241602562958      O 
       -5.42743853885448        0.55719614948499        2.42496373483655      H 
       -2.65357180631431       -4.83018749603511        1.10797009042476      O 
       -2.20478427421541       -4.32268411585838       -0.59957873336332      H 
       -3.06094579685428       -3.27784963896640        1.98201956126219      H 
        2.38770822111262       -5.32012708206879        0.74773824863955      O 
        3.09631006786405       -2.59453861237717        1.61730421830533      H 
        0.71383494480412       -5.65183273877923        1.45786934318398      H 
        1.99690485397760       -4.93411946498590       -1.00638284817578      H 
        0.47866334538660        3.09638663606700        3.42648781922719      O 
       -1.11345383487792        2.16144082855917        3.48417596611150      H 
        1.74966653026800        1.79074172691947        3.16964851983920      H 
        0.26301919235668        4.54975235177483        0.87185849020660      H 
       -0.08174586914389        5.08130577497749       -1.06417411742898      N 
       -1.01474643438037        6.74881333751755       -1.21833133945375      H 
       -1.18066637059031        3.45828938835144       -1.80165837602047      H 
        1.57034898964832        5.09302322350206       -2.04911725736856      H 
$end
 
 Bond Distances (Angstroems)
 ---------------------------
S1-O2=1.4452         S1-O3=1.4214         S1-O4=1.5002         S1-O5=1.5973         O2-S1=1.4452         O3-S1=1.4214         
O4-S1=1.5002         O5-S1=1.5973         O5-H6=0.9850         H6-O5=0.9850         H7-O10=0.9916        O8-H9=0.9586         
O8-H16=1.0141        H9-O8=0.9586         O10-H7=0.9916        O10-H11=0.9581       H11-O10=0.9581       O12-H13=0.9721       
O12-H14=0.9671       H13-O12=0.9721       H14-O12=0.9671       O15-H17=0.9781       O15-H18=0.9727       H16-O8=1.0141        
H17-O15=0.9781       H18-O15=0.9727       O19-H20=0.9775       O19-H21=0.9738       H20-O19=0.9775       H21-O19=0.9738       
H22-N23=1.0780       N23-H22=1.0780       N23-H24=1.0144       N23-H25=1.1082       N23-H26=1.0178       H24-N23=1.0144       
H25-N23=1.1082       H26-N23=1.0178       
 N  H  Rav=1.0546 sigma=0.0400  Rmin=1.0144  Rmax=1.1082     4
 O  H  Rav=0.9771 sigma=0.0151  Rmin=0.9581  Rmax=1.0141    11
 S  O  Rav=1.4910 sigma=0.0677  Rmin=1.4214  Rmax=1.5973     4
 
 selected bond angles (degree)
 --------------------
O3-S1-O2=118.23                O4-S1-O2=109.83                O4-S1-O3=111.74                O5-S1-O2=106.75                
O5-S1-O3=106.07                O5-S1-O4=102.87                H6-O5-S1=108.65                H16-O8-H9=105.48               
H11-O10-H7=106.33              
 
 selected dihedral angles (degree)
 ---------------------------------
H6-O5-S1-O2=322.76            H6-O5-S1-O3=195.83            H6-O5-S1-O4= 78.36            
 
 CMA Distance (Angstroems)
 ---------------------------
R(CMA):  2.6323

========================================================================
 FINAL SINGLEPOINT CALCULATION ON OPTIMIZED GEOMETRY
========================================================================

 Ncao       : 65
 Nao        : 64
 Nshell     : 38
 Nel        : 80
 T(el)      :   300.0
 intcut     :    25.0
 scfconv/Eh :  0.100E-05
   qconv/e  :  0.100E-03
 intneglect :  0.100E-07
 broydamp   :      0.250
 iter      E             dE          RMSdq      gap      omega  full diag
   1    -50.7368042 -0.507368E+02  0.393E-05    8.84       0.0  T
   2    -50.7368042 -0.888178E-12  0.257E-05    8.84     764.2  T
   3    -50.7368042 -0.696332E-12  0.555E-06    8.84    3532.7  T
speedup  1.07
cpu  time for SCC    0.00 s
wall time for SCC    0.00 s

   *** convergence criteria satisfied after 3 iterations ***

          eigenvalues
 #    :          28         29         30         31         32         33         34         35
 occ. :        2.000      2.000      2.000      2.000      2.000      2.000      2.000      2.000
 eps  :       -13.455    -13.054    -12.737    -12.634    -12.417    -12.391    -12.251    -12.039
 #    :          36         37         38         39         40         41         42         43
 occ. :        2.000      2.000      2.000      2.000      2.000      0.000      0.000      0.000
 eps  :       -11.892    -11.859    -11.632    -11.434    -11.396     -2.559     -1.260     -0.415
 #    :          44         45         46         47         48         49         50         51
 occ. :        0.000      0.000      0.000      0.000      0.000      0.000      0.000      0.000
 eps  :         0.412      0.950      1.502      1.654      2.518      3.885      3.969      4.795


   #   Z            q   n(s)   n(p)   n(d)      C6AA      α(0)
   1  16 S      1.632  1.587  1.816  0.965    90.334    15.997
   2   8 O     -0.727  1.763  4.964  0.000    29.443     7.275
   3   8 O     -0.675  1.764  4.910  0.000    28.025     7.098
   4   8 O     -0.754  1.777  4.977  0.000    30.181     7.368
   5   8 O     -0.650  1.764  4.886  0.000    26.383     6.934
   6   1 H      0.368  0.632  0.000  0.000     0.546     1.159
   7   1 H      0.337  0.663  0.000  0.000     0.620     1.237
   8   8 O     -0.644  1.759  4.885  0.000    26.276     6.918
   9   1 H      0.291  0.709  0.000  0.000     0.749     1.360
  10   8 O     -0.628  1.751  4.878  0.000    25.880     6.866
  11   1 H      0.287  0.713  0.000  0.000     0.760     1.370
  12   8 O     -0.624  1.754  4.870  0.000    25.761     6.850
  13   1 H      0.311  0.689  0.000  0.000     0.690     1.305
  14   1 H      0.301  0.699  0.000  0.000     0.717     1.330
  15   8 O     -0.608  1.755  4.853  0.000    25.387     6.800
  16   1 H      0.350  0.650  0.000  0.000     0.588     1.205
  17   1 H      0.329  0.671  0.000  0.000     0.640     1.257
  18   1 H      0.321  0.679  0.000  0.000     0.660     1.276
  19   8 O     -0.610  1.754  4.856  0.000    25.431     6.806
  20   1 H      0.332  0.668  0.000  0.000     0.633     1.250
  21   1 H      0.328  0.672  0.000  0.000     0.643     1.259
  22   1 H      0.301  0.699  0.000  0.000     0.710     1.320
  23   7 N     -0.348  1.277  4.071  0.000    28.951     7.991
  24   1 H      0.228  0.772  0.000  0.000     0.975     1.547
  25   1 H      0.309  0.691  0.000  0.000     0.682     1.292
  26   1 H      0.244  0.756  0.000  0.000     0.907     1.492

 Mol. C6AA /au·bohr⁶  :       5445.034753
 Mol. C8AA /au·bohr⁸  :     117975.488923
 Mol. α(0) /au        :        106.561386

 
 Wiberg/Mayer (AO) data. WBOs > 0.1 written file <wbo>
 largest (>0.05) Wiberg bond orders for each atom
           total WBO             WBO to atom ...
     1  S   4.908    O    3 1.476    O    2 1.352    O    4 1.140    O    5 0.902
     2  O   1.730    S    1 1.352    O    3 0.118    O    4 0.095    O    5 0.080
     3  O   1.783    S    1 1.476    O    2 0.118    O    4 0.101    O    5 0.070
     4  O   1.776    S    1 1.140    H   25 0.191    O    3 0.101    O    2 0.095    H    7 0.077    O    5 0.071    N   23 0.070
     5  O   1.932    S    1 0.902    H    6 0.759    O    2 0.080    O    4 0.071    O    3 0.070
     6  H   0.865    O    5 0.759    O    8 0.088
     7  H   0.886    O   10 0.803    O    4 0.077
     8  O   1.888    H    9 0.910    H   16 0.745    H    6 0.088    O   15 0.052
     9  H   0.915    O    8 0.910
    10  O   1.866    H   11 0.912    H    7 0.803
    11  H   0.917    O   10 0.912
    12  O   1.849    H   14 0.877    H   13 0.869
    13  H   0.903    O   12 0.869
    14  H   0.909    O   12 0.877
    15  O   1.933    H   18 0.865    H   17 0.845    H   16 0.127    O    8 0.052
    16  H   0.877    O    8 0.745    O   15 0.127
    17  H   0.892    O   15 0.845
    18  H   0.897    O   15 0.865
    19  O   1.949    H   21 0.851    H   20 0.842    H   22 0.141    N   23 0.066
    20  H   0.890    O   19 0.842
    21  H   0.892    O   19 0.851
    22  H   0.909    N   23 0.764    O   19 0.141
    23  N   3.501    H   24 0.944    H   26 0.931    H   22 0.764    H   25 0.704    O    4 0.070    O   19 0.066
    24  H   0.948    N   23 0.944
    25  H   0.904    N   23 0.704    O    4 0.191
    26  H   0.940    N   23 0.931
 MOs/occ written to file <molden.input>
 
molecular dipole:
                 x           y           z       tot (Debye)
 q only:        0.383       2.939       1.705
   full:        0.312       2.914       1.329       8.179
molecular quadrupole (traceless):
                xx          xy          yy          xz          yz          zz
 q only:        9.488      -3.598      11.969      -0.907      -4.225     -21.457
  q+dip:       14.112      -4.396       8.616      -1.147      -4.370     -22.728
   full:       14.489      -4.338       8.347      -1.213      -4.271     -22.836

SCC energy    :     -50.7368042
rep           :       0.2835860
ES            :       0.2691679
AES           :      -0.0664970
AXC           :      -0.0079004
disp          :      -0.0197052
XB            :       0.0000000
fix           :       0.0000000
total E       :     -50.4528244
atomizationE  :       4.9831285     3126.96
(atE without considering molecular charge,
 total energy contains solvation terms)
H-L gap (eV)  :          8.8366
optimized geometry written to: xtbopt.xyz


------------------------------------------------------------------------
 * finished run on 2019/09/16 at 12:31:10.620     
------------------------------------------------------------------------
 total:
 * wall-time:     0 d,  0 h,  0 min,  2.443 sec
 *  cpu-time:     0 d,  0 h,  0 min,  2.371 sec
 * ratio c/w:     0.970 speedup
 SCF:
 * wall-time:     0 d,  0 h,  0 min,  0.153 sec
 *  cpu-time:     0 d,  0 h,  0 min,  0.149 sec
 * ratio c/w:     0.974 speedup
 ANC optimizer:
 * wall-time:     0 d,  0 h,  0 min,  2.264 sec
 *  cpu-time:     0 d,  0 h,  0 min,  2.199 sec
 * ratio c/w:     0.971 speedup

