      -----------------------------------------------------------      
     |                   =====================                   |     
     |                           x T B                           |     
     |                   =====================                   |     
     |                         S. Grimme                         |     
     |          Mulliken Center for Theoretical Chemistry        |     
     |                    University of Bonn                     |     
     |                 Version 6.0.1 (SAW181210)                 |     
      -----------------------------------------------------------      

   This program is distributed in the hope that it will be useful,
   but WITHOUT ANY WARRANTY; without even the implied warranty of
   MERCHANTABILITY or FITNESS FOR A PARTICULAR PURPOSE.
   
   FOR NON-COMMERCIAL, ACADEMIA USE ONLY.
   
   Cite this work as:
   S. Grimme, C. Bannwarth, P. Shushkov, J. Comput. Theory Chem., 2017,
   13, 1989-2009.
   C. Bannwarth, S. Ehlert and S. Grimme., ChemRxiv, 2018, preprint.
   http://doi.org/10.26434/chemrxiv.7246238.v1
   
   for sTDA-xTB:
   S. Grimme and C. Bannwarth, J. Chem. Phys., 2016, 145, 054103.
   
   in the mass-spec context:
   V. Asgeirsson, C. Bauer and S. Grimme, Chem. Sci., 2017, 8, 4879.
   
   if GBSA is used:
   P. Shushkov, F. März and S. Grimme, unpublished.
   
   for ANC optimizer:
   S. Grimme, unpublished.
   Rational Function algorithm used in ANCopt:
   F. Eckert, P. Pulay, H.-J. Werner, J. Comput. Chem., 1997, 18, 1473.
   
   with help from (in alphabetical order)
   C. Bannwarth, F. Bohle, G. Brandenburg, E. Caldeweyher, M. Checinski,
   S. Dohm, S. Ehlert, S. Ehrlich, F. März, H. Neugebauer, J. Pisarek,
   P. Pracht, P. Shushkov, and S. Spicher.
   
 * started run on 2019/09/16 at 11:18:12.611     
========================================================================
 # omp threads = 1
========================================================================
number of atoms            : 26
number of electrons        : 80
charge                     : 0
spin                       : .0
first test random number   : .8197

########################################################################
# WARNING! Please study the warnings concerning your input carefully
#  - XTBPATH is not set, using XTBHOME instead
#  - the use of '-opt' is discouraged, please use '--opt' next time
#  - the use of '-chrg' is discouraged, please use '--chrg' next time
#  - the use of '-uhf' is discouraged, please use '--uhf' next time
########################################################################

           ------------------------------------------------- 
          |                 G F N 2 - x T B                 |
          | Geometry, Frequencies, Noncovalent interactions |
          |            JCTC 2018 parametrisation            |
           ------------------------------------------------- 
      method parameters     
 k(s)        :  1.8500
 k(p)        :  2.2300
 k(d)        :  2.2300
 k(f)        :  2.0000
 kEN (H0ij)  : -2.0000
 D4 a1       :  0.5200
 D4 a2       :  5.0000
 D4 s6       :  1.0000
 D4 s8       :  2.7000
 D4 s9       :  5.0000
 alphaj      :  2.0000


            Z     q(EN)     CN     RAES       Cart. coordinates
     1  S   6.0    0.58    4.28    4.21    -0.69976     2.25733     3.98694
     2  O   6.0   -0.31    1.12    1.80    -2.85350     0.66769     3.34205
     3  O   6.0   -0.31    1.15    1.80     1.88155     1.38941     3.84140
     4  O   6.0   -0.24    2.06    1.83    -1.02398     4.89802     2.41627
     5  O   6.0   -0.22    2.04    1.83    -1.02151     3.41044     6.78596
     6  H   1.0    0.14    1.11    1.45    -2.77772     3.89471     7.04590
     7  H   1.0    0.18    1.30    1.50    -1.85526     4.48686     0.82685
     8  O   6.0   -0.40    1.63    1.81    -0.30831    -3.04818    -2.88305
     9  H   1.0    0.17    0.95    1.42    -0.17604    -3.82585    -4.57464
    10  O   6.0   -0.39    1.64    1.81    -2.74109     3.45730    -1.63462
    11  H   1.0    0.18    0.95    1.42    -3.25754     4.88157    -2.72479
    12  O   6.0   -0.29    2.06    1.83     2.44501    -5.70818    -0.26212
    13  H   1.0    0.15    0.97    1.43     1.84924    -7.42593    -0.35703
    14  H   1.0    0.18    1.16    1.45     1.29531    -4.74227    -1.29159
    15  O   6.0   -0.29    2.09    1.84     1.24446     1.39698    -3.16190
    16  H   1.0    0.17    1.12    1.45     0.59917    -0.29810    -3.31975
    17  H   1.0    0.18    1.10    1.44    -0.20245     2.42785    -2.76396
    18  O   6.0   -0.22    2.94    2.63    -3.99278    -0.87068    -1.40316
    19  H   1.0    0.14    0.99    1.43    -4.24738    -1.19024     0.41972
    20  H   1.0    0.17    1.20    1.47    -3.72279     0.94202    -1.76543
    21  H   1.0    0.16    1.21    1.47    -2.63344    -1.93588    -2.11663
    22  N   5.0   -0.14    3.94    2.70     4.43976    -1.01297    -0.08128
    23  H   1.0    0.08    0.99    1.43     6.35829    -0.89872    -0.38233
    24  H   1.0    0.11    1.07    1.44     3.89165    -2.87949    -0.09234
    25  H   1.0    0.12    1.03    1.43     4.00525    -0.21973     1.64105
    26  H   1.0    0.11    1.07    1.44     3.50384    -0.05394    -1.49152

  Z AO/shell   Hii/eV     exponent
  1     Wed Apr 25 08:07:45 CEST 2018   EN: 2.200 GM2: 0.406  GM3: 0.0800  RAES: 1.40
     1s    -10.707211    1.230000
  7     Wed Apr 25 08:07:45 CEST 2018   EN: 3.040 GM2: 0.461  GM3:-0.0640  RAES: 1.90
     2s    -16.686243    2.339881
     2p    -12.523956    2.014332
  8     Wed Apr 25 08:07:45 CEST 2018   EN: 3.440 GM2: 0.452  GM3:-0.0517  RAES: 1.80
     2s    -20.229985    2.439742
     2p    -15.503117    2.137023
 16     Tue Apr 24 11:44:34 CEST 2018   EN: 2.580 GM2: 0.340  GM3:-0.0502  RAES: 3.10
     3s    -20.029654    1.981333
     3p    -11.377694    2.025643
     3d     -0.420282    1.702555
 no old-style atom pair restraining (fixing) potential

molecular fragmentation (1/2 indicates fragments):
11111112222222222222222222
# atoms in fragment 1/2:     7    19
 fragment masses (1/2) :       98.07      107.11
CMA distance (Bohr)    :   6.704
constraining FC (au)   :  0.0500
           ------------------------------------------------- 
          |        Self-Consistent Charge Iterations        |
           ------------------------------------------------- 

 Ncao       : 65
 Nao        : 64
 Nshell     : 38
 Nel        : 80
 T(el)      :   300.0
 intcut     :    25.0
 scfconv/Eh :  0.100E-05
   qconv/e  :  0.100E-03
 intneglect :  0.100E-07
 broydamp   :      0.250
 iter      E             dE          RMSdq      gap      omega  full diag
   1    -50.5310175 -0.505310E+02  0.718E+00    8.21       0.0  T
   2    -50.5829652 -0.519477E-01  0.506E+00    7.03       1.0  T
   3    -50.6261328 -0.431676E-01  0.122E+00    4.11       1.0  T
   4    -50.6297258 -0.359300E-02  0.675E-01    4.28       1.0  T
   5    -50.6311213 -0.139549E-02  0.286E-01    4.28       1.0  T
   6    -50.6315034 -0.382028E-03  0.163E-01    4.33       1.0  T
   7    -50.6316717 -0.168366E-03  0.482E-02    4.34       1.0  T
   8    -50.6316845 -0.127351E-04  0.262E-02    4.34       1.0  T
   9    -50.6316880 -0.353643E-05  0.828E-03    4.35       2.4  T
  10    -50.6316883 -0.308691E-06  0.199E-03    4.35       9.9  T
  11    -50.6316883 -0.115003E-07  0.112E-03    4.35      17.4  T
  12    -50.6316883 -0.556464E-08  0.318E-04    4.35      61.8  T
  13    -50.6316883 -0.389726E-09  0.145E-04    4.35     134.9  T
speedup  0.97
cpu  time for SCC    0.01 s
wall time for SCC    0.01 s

   *** convergence criteria satisfied after 13 iterations ***

          eigenvalues
 #    :          28         29         30         31         32         33         34         35
 occ. :        2.000      2.000      2.000      2.000      2.000      2.000      2.000      2.000
 eps  :       -13.013    -12.769    -12.664    -12.559    -12.462    -12.213    -11.992    -11.404
 #    :          36         37         38         39         40         41         42         43
 occ. :        2.000      2.000      2.000      2.000      2.000      0.000      0.000      0.000
 eps  :       -10.385     -9.914     -9.691     -9.442     -9.325     -4.976     -2.293     -0.957
 #    :          44         45         46         47         48         49         50         51
 occ. :        0.000      0.000      0.000      0.000      0.000      0.000      0.000      0.000
 eps  :        -0.829      0.300      0.970      2.503      2.667      3.771      4.036      4.299


   #   Z            q   n(s)   n(p)   n(d)      C6AA      α(0)
   1  16 S      1.663  1.630  1.789  0.917    89.606    15.932
   2   8 O     -0.667  1.768  4.898  0.000    27.810     7.070
   3   8 O     -0.642  1.754  4.888  0.000    27.182     6.990
   4   8 O     -0.617  1.774  4.843  0.000    25.568     6.826
   5   8 O     -0.563  1.753  4.809  0.000    24.281     6.652
   6   1 H      0.353  0.647  0.000  0.000     0.579     1.195
   7   1 H      0.388  0.612  0.000  0.000     0.502     1.111
   8   8 O     -0.868  1.844  5.024  0.000    33.668     7.781
   9   1 H      0.198  0.802  0.000  0.000     1.129     1.670
  10   8 O     -0.865  1.840  5.025  0.000    33.577     7.770
  11   1 H      0.204  0.796  0.000  0.000     1.098     1.646
  12   8 O     -0.667  1.745  4.921  0.000    26.836     6.992
  13   1 H      0.270  0.730  0.000  0.000     0.820     1.423
  14   1 H      0.338  0.662  0.000  0.000     0.615     1.230
  15   8 O     -0.719  1.769  4.951  0.000    28.229     7.171
  16   1 H      0.317  0.683  0.000  0.000     0.671     1.286
  17   1 H      0.319  0.681  0.000  0.000     0.666     1.282
  18   8 O     -0.464  1.664  4.800  0.000    22.064     6.344
  19   1 H      0.364  0.636  0.000  0.000     0.558     1.173
  20   1 H      0.404  0.596  0.000  0.000     0.472     1.076
  21   1 H      0.398  0.602  0.000  0.000     0.481     1.086
  22   7 N     -0.300  1.250  4.049  0.000    27.699     7.817
  23   1 H      0.235  0.765  0.000  0.000     0.944     1.522
  24   1 H      0.316  0.684  0.000  0.000     0.668     1.280
  25   1 H      0.284  0.716  0.000  0.000     0.763     1.369
  26   1 H      0.320  0.680  0.000  0.000     0.657     1.269

 Mol. C6AA /au·bohr⁶  :       5498.291401
 Mol. C8AA /au·bohr⁸  :     119019.621814
 Mol. α(0) /au        :        106.960963

 
 Wiberg/Mayer (AO) data. WBOs > 0.1 written file <wbo>
 largest (>0.05) Wiberg bond orders for each atom
           total WBO             WBO to atom ...
     1  S   4.743    O    3 1.429    O    2 1.396    O    4 0.961    O    5 0.922
     2  O   1.763    S    1 1.396    O    3 0.140    O    4 0.109    O    5 0.089
     3  O   1.806    S    1 1.429    O    2 0.140    O    4 0.102    O    5 0.070
     4  O   1.951    S    1 0.961    H    7 0.663    O    2 0.109    O    3 0.102    O    5 0.058    O   10 0.053
     5  O   2.005    S    1 0.922    H    6 0.857    O    2 0.089    O    3 0.070    O    4 0.058
     6  H   0.875    O    5 0.857
     7  H   0.849    O    4 0.663    O   10 0.170
     8  O   1.570    H    9 0.955    H   21 0.198    H   14 0.133    H   16 0.105    O   18 0.063    O   12 0.054
     9  H   0.961    O    8 0.955
    10  O   1.580    H   11 0.948    H   20 0.184    H    7 0.170    H   17 0.104    O   18 0.057    O    4 0.053
    11  H   0.958    O   10 0.948
    12  O   1.797    H   13 0.910    H   14 0.748    H   24 0.056    O    8 0.054
    13  H   0.927    O   12 0.910
    14  H   0.886    O   12 0.748    O    8 0.133
    15  O   1.814    H   16 0.789    H   17 0.787    H   26 0.091
    16  H   0.899    O   15 0.789    O    8 0.105
    17  H   0.898    O   15 0.787    O   10 0.104
    18  O   2.267    H   19 0.840    H   20 0.644    H   21 0.637    O    8 0.063    O   10 0.057
    19  H   0.868    O   18 0.840
    20  H   0.837    O   18 0.644    O   10 0.184
    21  H   0.841    O   18 0.637    O    8 0.198
    22  N   3.556    H   23 0.941    H   25 0.876    H   24 0.834    H   26 0.796
    23  H   0.945    N   22 0.941
    24  H   0.900    N   22 0.834    O   12 0.056
    25  H   0.919    N   22 0.876
    26  H   0.898    N   22 0.796    O   15 0.091
 MOs/occ written to file <molden.input>
 
molecular dipole:
                 x           y           z       tot (Debye)
 q only:        0.917      -0.954       1.012
   full:        0.431      -0.920       0.854       3.375
molecular quadrupole (traceless):
                xx          xy          yy          xz          yz          zz
 q only:       17.035      -2.558     -10.784      -6.553       3.414      -6.251
  q+dip:       12.841      -4.780      -7.585      -7.933       5.384      -5.255
   full:       12.361      -5.089      -7.292      -7.797       5.366      -5.069

SCC energy    :     -50.6316883
rep           :       0.2775398
ES            :       0.3235631
AES           :      -0.0644221
AXC           :      -0.0050747
disp          :      -0.0182531
XB            :       0.0000000
fix           :       0.0000000
total E       :     -50.3537983
atomizationE  :       4.8841025     3064.82
(atE without considering molecular charge,
 total energy contains solvation terms)
H-L gap (eV)  :          4.3489
           ------------------------------------------------- 
          |                 ===============                 |
          |                   A N C O P T                   |
          |                 ===============                 |
          |          Approximate Normal Coordinate          |
          |           Rational Function Optimizer           |
           ------------------------------------------------- 
dumping coords to <xtbopt.coord> and <xtbopt.log>
 optlevel               2
 Maxcycle             520
 Maxmicro              25
 Econv         1.000000000000000E-007
 Gconv         2.000000000000000E-004
 Maxdispl       1.00000000000000     
 Hlow          5.000000000000000E-003
 S6             20.0000000000000     
 Nvar               72

generating ANC from model Hessian ...
 Shifting diagonal of input Hessian by   4.932525044898836E-003
 Lowest  eigenvalues of input Hessian
   -0.000000   -0.000000   -0.000000    0.000000    0.000000    0.000000
    0.005000    0.005490    0.006183    0.006590    0.006718    0.007629
    0.007796    0.008595    0.009824    0.010219    0.012144    0.012639
 Highest eigenvalues
    1.455262    1.566185    1.600967    1.954846    2.770641    3.590946
 
cpu  time for ANC gen    0.02 s
wall time for ANC gen    0.02 s
................................................................................
.............................. CYCLE    1 ......................................
................................................................................
   1    -50.6316883 -0.506317E+02  0.461E-05    4.35       0.0  T
   2    -50.6316883 -0.321876E-11  0.346E-05    4.35     567.0  T
   3    -50.6316883 -0.257927E-11  0.130E-05    4.35    1503.9  T
speedup  1.03
cpu  time for SCC    0.00 s
wall time for SCC    0.00 s
speedup  1.04
cpu  time for grad    0.01 s
wall time for grad    0.01 s
 E :    -50.35379827  G :  0.207714    pred/act E change:  0.000D+00  0.217D-07
Maxdispl :   0.1595   ||displ|| :   0.3129   Lambda : -0.399D-01
Largest |displ|/coords:  0.1595 (  20)  0.0974 (  55)  0.0856 (  44)
................................................................................
.............................. CYCLE    2 ......................................
................................................................................
   1    -50.6471452 -0.506471E+02  0.332E-01    5.14       0.0  T
   2    -50.6474404 -0.295237E-03  0.240E-01    5.24       1.0  T
   3    -50.6475840 -0.143637E-03  0.818E-02    5.38       1.0  T
   4    -50.6475978 -0.137766E-04  0.288E-02    5.39       1.0  T
   5    -50.6475994 -0.160219E-05  0.712E-03    5.39       2.8  T
   6    -50.6475995 -0.984944E-07  0.419E-03    5.39       4.7  T
   7    -50.6475996 -0.337203E-07  0.144E-03    5.39      13.6  T
speedup  0.97
cpu  time for SCC    0.01 s
wall time for SCC    0.01 s
speedup  1.00
cpu  time for grad    0.01 s
wall time for grad    0.01 s
 E :    -50.38438095  G :  0.118721    pred/act E change:  0.000D+00 -0.306D-01
Maxdispl :   0.1893   ||displ|| :   0.3464   Lambda : -0.180D-01
Largest |displ|/coords:  0.1893 (  20)  0.1300 (   3)  0.0984 (   5)
................................................................................
.............................. CYCLE    3 ......................................
................................................................................
   1    -50.6570524 -0.506571E+02  0.298E-01    5.96       0.0  T
   2    -50.6573421 -0.289693E-03  0.213E-01    6.05       1.0  T
   3    -50.6574731 -0.130939E-03  0.749E-02    6.21       1.0  T
   4    -50.6574851 -0.120645E-04  0.213E-02    6.22       1.0  T
   5    -50.6574862 -0.101621E-05  0.559E-03    6.21       3.5  T
   6    -50.6574862 -0.566978E-07  0.341E-03    6.21       5.7  T
speedup  1.09
cpu  time for SCC    0.01 s
wall time for SCC    0.01 s
speedup  1.04
cpu  time for grad    0.01 s
wall time for grad    0.01 s
 E :    -50.39942846  G :  0.081672    pred/act E change: -0.219D-01 -0.150D-01
Maxdispl :   0.2048   ||displ|| :   0.3872   Lambda : -0.112D-01
Largest |displ|/coords:  0.2048 (   3)  0.1749 (  20)  0.1457 (   5)
................................................................................
.............................. CYCLE    4 ......................................
................................................................................
   1    -50.6630544 -0.506631E+02  0.298E-01    6.63       0.0  T
   2    -50.6633711 -0.316731E-03  0.212E-01    6.73       1.0  T
   3    -50.6635104 -0.139333E-03  0.775E-02    6.90       1.0  T
   4    -50.6635235 -0.130887E-04  0.181E-02    6.91       1.1  T
   5    -50.6635244 -0.897626E-06  0.554E-03    6.90       3.5  T
   6    -50.6635245 -0.471609E-07  0.333E-03    6.90       5.9  T
speedup  0.93
cpu  time for SCC    0.00 s
wall time for SCC    0.01 s
speedup  0.98
cpu  time for grad    0.01 s
wall time for grad    0.01 s
 E :    -50.40898876  G :  0.060843    pred/act E change: -0.101D-01 -0.956D-02
Maxdispl :   0.2381   ||displ|| :   0.4039   Lambda : -0.745D-02
Largest |displ|/coords:  0.2381 (   3)  0.1806 (   5)  0.1262 (  20)
................................................................................
.............................. CYCLE    5 ......................................
................................................................................
   1    -50.6663345 -0.506663E+02  0.288E-01    7.16       0.0  T
   2    -50.6666039 -0.269442E-03  0.205E-01    7.25       1.0  T
   3    -50.6667209 -0.116944E-03  0.730E-02    7.42       1.0  T
   4    -50.6667349 -0.140684E-04  0.143E-02    7.43       1.4  T
   5    -50.6667356 -0.620308E-06  0.574E-03    7.43       3.4  T
   6    -50.6667356 -0.436625E-07  0.325E-03    7.42       6.0  T
speedup  0.93
cpu  time for SCC    0.00 s
wall time for SCC    0.01 s
speedup  0.98
cpu  time for grad    0.01 s
wall time for grad    0.01 s
 E :    -50.41541256  G :  0.052302    pred/act E change: -0.646D-02 -0.642D-02
Maxdispl :   0.2181   ||displ|| :   0.3778   Lambda : -0.549D-02
Largest |displ|/coords:  0.2181 (   3)  0.1811 (   5)  0.1075 (  16)
................................................................................
.............................. CYCLE    6 ......................................
................................................................................
   1    -50.6706507 -0.506707E+02  0.254E-01    7.60       0.0  T
   2    -50.6708351 -0.184448E-03  0.184E-01    7.68       1.0  T
   3    -50.6709150 -0.798659E-04  0.640E-02    7.83       1.0  T
   4    -50.6709277 -0.127276E-04  0.120E-02    7.84       1.6  T
   5    -50.6709282 -0.470266E-06  0.549E-03    7.83       3.6  T
   6    -50.6709282 -0.398583E-07  0.302E-03    7.83       6.5  T
speedup  0.93
cpu  time for SCC    0.01 s
wall time for SCC    0.01 s
speedup  0.98
cpu  time for grad    0.01 s
wall time for grad    0.01 s
 E :    -50.42032850  G :  0.050044    pred/act E change: -0.433D-02 -0.492D-02
Maxdispl :   0.2344   ||displ|| :   0.3737   Lambda : -0.505D-02
Largest |displ|/coords:  0.2344 (   3)  0.1623 (   5)  0.1272 (  16)
................................................................................
.............................. CYCLE    7 ......................................
................................................................................
   1    -50.6750522 -0.506751E+02  0.247E-01    7.93       0.0  T
   2    -50.6751925 -0.140255E-03  0.180E-01    8.01       1.0  T
   3    -50.6752563 -0.638524E-04  0.591E-02    8.16       1.0  T
   4    -50.6752680 -0.116425E-04  0.132E-02    8.17       1.5  T
   5    -50.6752685 -0.555982E-06  0.585E-03    8.17       3.4  T
   6    -50.6752686 -0.486055E-07  0.331E-03    8.16       5.9  T
speedup  0.93
cpu  time for SCC    0.00 s
wall time for SCC    0.01 s
speedup  0.98
cpu  time for grad    0.01 s
wall time for grad    0.01 s
 E :    -50.42482943  G :  0.052234    pred/act E change: -0.314D-02 -0.450D-02
Maxdispl :   0.1537   ||displ|| :   0.3457   Lambda : -0.558D-02
Largest |displ|/coords:  0.1537 (   5)  0.1487 (   3)  0.0981 (  12)
................................................................................
.............................. CYCLE    8 ......................................
................................................................................
   1    -50.6807986 -0.506808E+02  0.292E-01    8.27       0.0  T
   2    -50.6809259 -0.127301E-03  0.220E-01    8.34       1.0  T
   3    -50.6809883 -0.624703E-04  0.602E-02    8.48       1.0  T
   4    -50.6810044 -0.160312E-04  0.161E-02    8.49       1.2  T
   5    -50.6810051 -0.731122E-06  0.582E-03    8.48       3.4  T
   6    -50.6810051 -0.442992E-07  0.336E-03    8.48       5.8  T
speedup  0.94
cpu  time for SCC    0.00 s
wall time for SCC    0.01 s
speedup  0.99
cpu  time for grad    0.01 s
wall time for grad    0.01 s
 E :    -50.42984425  G :  0.056519    pred/act E change: -0.288D-02 -0.501D-02
Maxdispl :   0.1789   ||displ|| :   0.3306   Lambda : -0.671D-02
Largest |displ|/coords:  0.1789 (   3)  0.1120 (   5)  0.1060 (  16)
................................................................................
.............................. CYCLE    9 ......................................
................................................................................
   1    -50.6937758 -0.506938E+02  0.248E-01    8.64       0.0  T
   2    -50.6939221 -0.146234E-03  0.185E-01    8.70       1.0  T
   3    -50.6940022 -0.801499E-04  0.658E-02    8.83       1.0  T
   4    -50.6940152 -0.129926E-04  0.202E-02    8.84       1.0  T
   5    -50.6940162 -0.101068E-05  0.672E-03    8.84       2.9  T
   6    -50.6940163 -0.616521E-07  0.365E-03    8.84       5.4  T
   7    -50.6940163 -0.169370E-07  0.987E-04    8.83      19.9  T
speedup  0.98
cpu  time for SCC    0.01 s
wall time for SCC    0.01 s
speedup  0.94
cpu  time for grad    0.01 s
wall time for grad    0.01 s
 E :    -50.43600724  G :  0.058045    pred/act E change: -0.312D-02 -0.616D-02
Maxdispl :   0.1825   ||displ|| :   0.3602   Lambda : -0.848D-02
Largest |displ|/coords:  0.1825 (   3)  0.1580 (   5)  0.0843 (  16)
................................................................................
.............................. CYCLE   10 ......................................
................................................................................
   1    -50.7051426 -0.507051E+02  0.291E-01    8.98       0.0  T
   2    -50.7052856 -0.142968E-03  0.219E-01    9.04       1.0  T
   3    -50.7053770 -0.914078E-04  0.658E-02    9.16       1.0  T
   4    -50.7053922 -0.151503E-04  0.210E-02    9.17       1.0  T
   5    -50.7053930 -0.894093E-06  0.740E-03    9.17       2.7  T
   6    -50.7053931 -0.739872E-07  0.406E-03    9.17       4.8  T
   7    -50.7053931 -0.220709E-07  0.101E-03    9.16      19.4  T
speedup  0.95
cpu  time for SCC    0.01 s
wall time for SCC    0.01 s
speedup  0.99
cpu  time for grad    0.01 s
wall time for grad    0.01 s
 E :    -50.44359006  G :  0.055115    pred/act E change: -0.372D-02 -0.758D-02
Maxdispl :   0.1307   ||displ|| :   0.3615   Lambda : -0.933D-02
Largest |displ|/coords:  0.1307 (   3)  0.1160 (   5)  0.1081 (  69)
................................................................................
.............................. CYCLE   11 ......................................
................................................................................
   1    -50.7271560 -0.507272E+02  0.267E-01    9.27       0.0  T
   2    -50.7272782 -0.122159E-03  0.199E-01    9.27       1.0  T
   3    -50.7273675 -0.893170E-04  0.609E-02    9.25       1.0  T
   4    -50.7273804 -0.129248E-04  0.159E-02    9.25       1.2  T
   5    -50.7273808 -0.358629E-06  0.687E-03    9.25       2.9  T
   6    -50.7273808 -0.573758E-07  0.326E-03    9.25       6.0  T
   7    -50.7273809 -0.933227E-08  0.758E-04    9.25      25.9  T
speedup  0.97
cpu  time for SCC    0.01 s
wall time for SCC    0.01 s
speedup  1.01
cpu  time for grad    0.01 s
wall time for grad    0.01 s
 E :    -50.45062085  G :  0.039392    pred/act E change: -0.479D-02 -0.703D-02
Maxdispl :   0.2558   ||displ|| :   0.5562   Lambda : -0.106D-01
Largest |displ|/coords:  0.2558 (   3)  0.2245 (   5)  0.1609 (  27)
................................................................................
.............................. CYCLE   12 ......................................
................................................................................
   1    -50.7471423 -0.507471E+02  0.402E-01    9.20       0.0  T
   2    -50.7472577 -0.115482E-03  0.298E-01    9.20       1.0  T
   3    -50.7473491 -0.913154E-04  0.647E-02    9.18       1.0  T
   4    -50.7473612 -0.121624E-04  0.169E-02    9.18       1.2  T
   5    -50.7473616 -0.347229E-06  0.733E-03    9.18       2.7  T
   6    -50.7473616 -0.729587E-07  0.323E-03    9.18       6.1  T
   7    -50.7473617 -0.202683E-07  0.976E-04    9.18      20.1  T
speedup  0.97
cpu  time for SCC    0.01 s
wall time for SCC    0.01 s
speedup  1.01
cpu  time for grad    0.01 s
wall time for grad    0.01 s
 E :    -50.45441495  G :  0.066192    pred/act E change: -0.528D-02 -0.379D-02
Maxdispl :   0.1166   ||displ|| :   0.3186   Lambda : -0.820D-02
Largest |displ|/coords:  0.1166 (   2)  0.0962 (  14)  0.0906 (   4)
................................................................................
.............................. CYCLE   13 ......................................
................................................................................
   1    -50.7289089 -0.507289E+02  0.327E-01    9.12       0.0  T
   2    -50.7290421 -0.133217E-03  0.240E-01    9.12       1.0  T
   3    -50.7291210 -0.788968E-04  0.647E-02    9.13       1.0  T
   4    -50.7291335 -0.124725E-04  0.196E-02    9.13       1.0  T
   5    -50.7291344 -0.870588E-06  0.663E-03    9.13       3.0  T
   6    -50.7291344 -0.579055E-07  0.373E-03    9.13       5.3  T
   7    -50.7291345 -0.201349E-07  0.752E-04    9.13      26.1  T
speedup  0.97
cpu  time for SCC    0.01 s
wall time for SCC    0.01 s
speedup  1.01
cpu  time for grad    0.01 s
wall time for grad    0.01 s
 E :    -50.45513723  G :  0.053850    pred/act E change: -0.696D-02 -0.722D-03
Maxdispl :   0.1361   ||displ|| :   0.3478   Lambda : -0.913D-02
Largest |displ|/coords:  0.1361 (  15)  0.1339 (  14)  0.0883 (  13)
................................................................................
.............................. CYCLE   14 ......................................
................................................................................
   1    -50.7587248 -0.507587E+02  0.396E-01    9.16       0.0  T
   2    -50.7588769 -0.152161E-03  0.293E-01    9.16       1.0  T
   3    -50.7589822 -0.105327E-03  0.691E-02    9.15       1.0  T
   4    -50.7589965 -0.142620E-04  0.149E-02    9.15       1.3  T
   5    -50.7589969 -0.414730E-06  0.724E-03    9.15       2.7  T
   6    -50.7589969 -0.285974E-07  0.335E-03    9.15       5.9  T
   7    -50.7589970 -0.245898E-07  0.713E-04    9.15      27.5  T
speedup  1.11
cpu  time for SCC    0.01 s
wall time for SCC    0.01 s
speedup  1.00
cpu  time for grad    0.01 s
wall time for grad    0.01 s
 E :    -50.45415945  G :  0.085177    pred/act E change: -0.452D-02  0.978D-03
Maxdispl :   0.1482   ||displ|| :   0.3403   Lambda : -0.149D-01
Largest |displ|/coords:  0.1482 (  15)  0.1085 (  16)  0.0939 (   3)
................................................................................
.............................. CYCLE   15 ......................................
................................................................................
   1    -50.7258508 -0.507259E+02  0.413E-01    9.10       0.0  T
   2    -50.7260701 -0.219318E-03  0.299E-01    9.10       1.0  T
   3    -50.7261888 -0.118677E-03  0.796E-02    9.11       1.0  T
   4    -50.7262081 -0.192878E-04  0.152E-02    9.11       1.3  T
   5    -50.7262083 -0.212801E-06  0.742E-03    9.11       2.6  T
   6    -50.7262085 -0.164705E-06  0.289E-03    9.11       6.8  T
   7    -50.7262085 -0.159957E-07  0.898E-04    9.11      21.8  T
speedup  0.97
cpu  time for SCC    0.01 s
wall time for SCC    0.01 s
speedup  1.01
cpu  time for grad    0.01 s
wall time for grad    0.01 s
 E :    -50.45436364  G :  0.068100    pred/act E change: -0.512D-02 -0.204D-03
Maxdispl :   0.1365   ||displ|| :   0.3099   Lambda : -0.131D-01
Largest |displ|/coords:  0.1365 (  15)  0.1203 (  24)  0.0787 (  20)
................................................................................
.............................. CYCLE   16 ......................................
................................................................................
   1    -50.7513037 -0.507513E+02  0.388E-01    9.16       0.0  T
   2    -50.7514462 -0.142452E-03  0.288E-01    9.16       1.0  T
   3    -50.7515429 -0.967498E-04  0.669E-02    9.15       1.0  T
   4    -50.7515567 -0.137985E-04  0.151E-02    9.15       1.3  T
   5    -50.7515572 -0.405983E-06  0.699E-03    9.15       2.8  T
   6    -50.7515572 -0.186322E-07  0.324E-03    9.15       6.1  T
   7    -50.7515572 -0.247114E-07  0.682E-04    9.15      28.8  T
speedup  0.95
cpu  time for SCC    0.01 s
wall time for SCC    0.01 s
speedup  1.00
cpu  time for grad    0.01 s
wall time for grad    0.01 s
 E :    -50.45661104  G :  0.054982    pred/act E change: -0.832D-02 -0.225D-02
Maxdispl :   0.0957   ||displ|| :   0.2431   Lambda : -0.648D-02
Largest |displ|/coords:  0.0957 (   1)  0.0916 (   3)  0.0668 (  24)
................................................................................
.............................. CYCLE   17 ......................................
................................................................................
   1    -50.7411176 -0.507411E+02  0.270E-01    9.13       0.0  T
   2    -50.7411881 -0.705593E-04  0.199E-01    9.13       1.0  T
   3    -50.7412304 -0.422568E-04  0.468E-02    9.14       1.0  T
   4    -50.7412379 -0.749513E-05  0.100E-02    9.14       2.0  T
   5    -50.7412380 -0.125171E-06  0.453E-03    9.14       4.3  T
   6    -50.7412380 -0.271570E-07  0.221E-03    9.14       8.9  T
speedup  0.93
cpu  time for SCC    0.00 s
wall time for SCC    0.01 s
speedup  1.00
cpu  time for grad    0.01 s
wall time for grad    0.01 s
 E :    -50.45794835  G :  0.036739    pred/act E change: -0.716D-02 -0.134D-02
Maxdispl :   0.0783   ||displ|| :   0.1357   Lambda : -0.198D-02
Largest |displ|/coords:  0.0783 (   4)  0.0458 (  22)  0.0394 (  24)
................................................................................
.............................. CYCLE   18 ......................................
................................................................................
   1    -50.7453382 -0.507453E+02  0.127E-01    9.13       0.0  T
   2    -50.7453540 -0.157678E-04  0.950E-02    9.13       1.0  T
   3    -50.7453666 -0.126496E-04  0.227E-02    9.13       1.0  T
   4    -50.7453684 -0.175761E-05  0.713E-03    9.13       2.8  T
   5    -50.7453685 -0.734414E-07  0.273E-03    9.13       7.2  T
   6    -50.7453685 -0.788157E-08  0.134E-03    9.13      14.7  T
speedup  0.93
cpu  time for SCC    0.01 s
wall time for SCC    0.01 s
speedup  0.99
cpu  time for grad    0.01 s
wall time for grad    0.01 s
 E :    -50.45883431  G :  0.016310    pred/act E change: -0.343D-02 -0.886D-03
Maxdispl :   0.1147   ||displ|| :   0.2102   Lambda : -0.142D-02
Largest |displ|/coords:  0.1147 (   3)  0.0795 (  19)  0.0581 (  22)
................................................................................
.............................. CYCLE   19 ......................................
................................................................................
   1    -50.7416449 -0.507416E+02  0.199E-01    9.16       0.0  T
   2    -50.7416922 -0.473594E-04  0.147E-01    9.16       1.0  T
   3    -50.7417227 -0.304231E-04  0.378E-02    9.15       1.0  T
   4    -50.7417276 -0.491524E-05  0.845E-03    9.15       2.3  T
   5    -50.7417277 -0.855819E-07  0.384E-03    9.15       5.1  T
   6    -50.7417277 -0.214653E-07  0.183E-03    9.15      10.7  T
   7    -50.7417277 -0.432389E-08  0.366E-04    9.15      53.6  T
speedup  0.97
cpu  time for SCC    0.01 s
wall time for SCC    0.01 s
speedup  1.00
cpu  time for grad    0.01 s
wall time for grad    0.01 s
 E :    -50.45764577  G :  0.050151    pred/act E change: -0.101D-02  0.119D-02
Maxdispl :   0.1138   ||displ|| :   0.2974   Lambda : -0.741D-02
Largest |displ|/coords:  0.1138 (   3)  0.1035 (  19)  0.0896 (   1)
................................................................................
.............................. CYCLE   20 ......................................
................................................................................
   1    -50.7537540 -0.507538E+02  0.308E-01    9.16       0.0  T
   2    -50.7538750 -0.121008E-03  0.226E-01    9.16       1.0  T
   3    -50.7539584 -0.833679E-04  0.588E-02    9.16       1.0  T
   4    -50.7539686 -0.101479E-04  0.133E-02    9.16       1.5  T
   5    -50.7539688 -0.262846E-06  0.632E-03    9.16       3.1  T
   6    -50.7539688 -0.187042E-07  0.295E-03    9.16       6.7  T
   7    -50.7539689 -0.165058E-07  0.491E-04    9.16      39.9  T
speedup  0.97
cpu  time for SCC    0.01 s
wall time for SCC    0.01 s
speedup  1.01
cpu  time for grad    0.01 s
wall time for grad    0.01 s
 E :    -50.45657102  G :  0.067524    pred/act E change: -0.740D-03  0.107D-02
Maxdispl :   0.1173   ||displ|| :   0.2806   Lambda : -0.972D-02
Largest |displ|/coords:  0.1173 (   3)  0.0950 (  19)  0.0834 (  14)
................................................................................
.............................. CYCLE   21 ......................................
................................................................................
   1    -50.7373054 -0.507373E+02  0.309E-01    9.15       0.0  T
   2    -50.7374526 -0.147180E-03  0.224E-01    9.15       1.0  T
   3    -50.7375377 -0.850822E-04  0.643E-02    9.15       1.0  T
   4    -50.7375496 -0.119630E-04  0.160E-02    9.15       1.2  T
   5    -50.7375500 -0.411385E-06  0.623E-03    9.15       3.1  T
   6    -50.7375501 -0.756876E-07  0.356E-03    9.15       5.5  T
   7    -50.7375501 -0.143828E-07  0.603E-04    9.15      32.5  T
speedup  1.11
cpu  time for SCC    0.01 s
wall time for SCC    0.01 s
speedup  1.00
cpu  time for grad    0.01 s
wall time for grad    0.01 s
 E :    -50.45791487  G :  0.048812    pred/act E change: -0.403D-02 -0.134D-02
Maxdispl :   0.0446   ||displ|| :   0.1150   Lambda : -0.294D-02
Largest |displ|/coords:  0.0446 (   1)  0.0381 (  19)  0.0353 (  26)
................................................................................
.............................. CYCLE   22 ......................................
................................................................................
   1    -50.7477533 -0.507478E+02  0.127E-01    9.17       0.0  T
   2    -50.7477792 -0.258321E-04  0.919E-02    9.17       1.0  T
   3    -50.7477955 -0.163112E-04  0.263E-02    9.17       1.0  T
   4    -50.7477975 -0.196816E-05  0.561E-03    9.17       3.5  T
   5    -50.7477975 -0.424588E-07  0.274E-03    9.17       7.2  T
speedup  0.89
cpu  time for SCC    0.00 s
wall time for SCC    0.00 s
speedup  0.98
cpu  time for grad    0.01 s
wall time for grad    0.01 s
 E :    -50.45947377  G :  0.009396    pred/act E change: -0.524D-02 -0.156D-02
Maxdispl :   0.0429   ||displ|| :   0.1026   Lambda : -0.392D-03
Largest |displ|/coords:  0.0429 (   4)  0.0344 (  13)  0.0340 (   1)
................................................................................
.............................. CYCLE   23 ......................................
................................................................................
   1    -50.7466407 -0.507466E+02  0.594E-02    9.15       0.0  T
   2    -50.7466439 -0.316904E-05  0.449E-02    9.15       1.0  T
   3    -50.7466472 -0.330492E-05  0.102E-02    9.15       1.9  T
   4    -50.7466475 -0.239325E-06  0.452E-03    9.15       4.3  T
   5    -50.7466475 -0.261183E-07  0.114E-03    9.15      17.2  T
   6    -50.7466475 -0.187195E-08  0.559E-04    9.15      35.1  T
speedup  1.11
cpu  time for SCC    0.01 s
wall time for SCC    0.01 s
speedup  1.05
cpu  time for grad    0.01 s
wall time for grad    0.01 s
 E :    -50.45948638  G :  0.015726    pred/act E change: -0.149D-02 -0.126D-04
Maxdispl :   0.0267   ||displ|| :   0.0657   Lambda : -0.372D-03
Largest |displ|/coords:  0.0267 (  23)  0.0264 (   3)  0.0257 (   1)
................................................................................
.............................. CYCLE   24 ......................................
................................................................................
   1    -50.7476785 -0.507477E+02  0.439E-02    9.17       0.0  T
   2    -50.7476800 -0.148738E-05  0.333E-02    9.17       1.0  T
   3    -50.7476813 -0.135320E-05  0.716E-03    9.17       2.7  T
   4    -50.7476815 -0.161534E-06  0.295E-03    9.17       6.7  T
   5    -50.7476815 -0.117788E-07  0.885E-04    9.17      22.2  T
speedup  1.11
cpu  time for SCC    0.00 s
wall time for SCC    0.00 s
speedup  0.98
cpu  time for grad    0.01 s
wall time for grad    0.01 s
 E :    -50.45975569  G :  0.008266    pred/act E change: -0.198D-03 -0.269D-03
Maxdispl :   0.0793   ||displ|| :   0.1618   Lambda : -0.440D-03
Largest |displ|/coords:  0.0793 (   1)  0.0509 (   4)  0.0504 (   3)
................................................................................
.............................. CYCLE   25 ......................................
................................................................................
   1    -50.7502409 -0.507502E+02  0.907E-02    9.19       0.0  T
   2    -50.7502434 -0.254304E-05  0.686E-02    9.19       1.0  T
   3    -50.7502458 -0.235724E-05  0.943E-03    9.19       2.1  T
   4    -50.7502461 -0.287006E-06  0.411E-03    9.19       4.8  T
   5    -50.7502461 -0.196207E-07  0.109E-03    9.19      18.0  T
   6    -50.7502461 -0.149714E-08  0.661E-04    9.19      29.7  T
speedup  0.91
cpu  time for SCC    0.00 s
wall time for SCC    0.01 s
speedup  0.99
cpu  time for grad    0.01 s
wall time for grad    0.01 s
 E :    -50.46005447  G :  0.007910    pred/act E change: -0.187D-03 -0.299D-03
Maxdispl :   0.1868   ||displ|| :   0.3637   Lambda : -0.666D-03
Largest |displ|/coords:  0.1868 (   1)  0.1198 (   4)  0.1194 (   3)

generating ANC from model Hessian ...
 Shifting diagonal of input Hessian by   5.024124138907292E-003
 Lowest  eigenvalues of input Hessian
    0.005000   -0.000000   -0.000000   -0.000000    0.000000    0.000000
    0.000000    0.005319    0.005793    0.005930    0.006351    0.007429
    0.008079    0.009785    0.010118    0.011017    0.011877    0.012143
 Highest eigenvalues
    1.396583    1.406044    1.433961    2.559669    3.505320    3.564891
 
cpu  time for ANC gen    0.02 s
wall time for ANC gen    0.02 s
................................................................................
.............................. CYCLE   26 ......................................
................................................................................
   1    -50.7489345 -0.507489E+02  0.229E-01    9.20       0.0  T
   2    -50.7489454 -0.109708E-04  0.173E-01    9.20       1.0  T
   3    -50.7489553 -0.984474E-05  0.186E-02    9.20       1.1  T
   4    -50.7489567 -0.140711E-05  0.763E-03    9.20       2.6  T
   5    -50.7489568 -0.787011E-07  0.267E-03    9.20       7.4  T
   6    -50.7489568 -0.885255E-08  0.155E-03    9.20      12.6  T
   7    -50.7489568 -0.496511E-08  0.275E-04    9.20      71.3  T
   8    -50.7489568 -0.216524E-09  0.819E-05    9.20     239.5  T
speedup  0.99
cpu  time for SCC    0.01 s
wall time for SCC    0.01 s
speedup  0.97
cpu  time for grad    0.01 s
wall time for grad    0.02 s
 E :    -50.46038928  G :  0.022002    pred/act E change:  0.000D+00 -0.335D-03
Maxdispl :   0.0790   ||displ|| :   0.2125   Lambda : -0.960D-03
Largest |displ|/coords:  0.0790 (   9)  0.0748 (   1)  0.0646 (   4)
................................................................................
.............................. CYCLE   27 ......................................
................................................................................
   1    -50.7497322 -0.507497E+02  0.204E-01    9.21       0.0  T
   2    -50.7497371 -0.496265E-05  0.154E-01    9.21       1.0  T
   3    -50.7497429 -0.574142E-05  0.101E-02    9.21       1.9  T
   4    -50.7497432 -0.333562E-06  0.419E-03    9.21       4.7  T
   5    -50.7497432 -0.147792E-07  0.166E-03    9.21      11.8  T
speedup  1.11
cpu  time for SCC    0.00 s
wall time for SCC    0.00 s
speedup  1.07
cpu  time for grad    0.01 s
wall time for grad    0.01 s
 E :    -50.46109049  G :  0.011102    pred/act E change:  0.000D+00 -0.701D-03
Maxdispl :   0.1845   ||displ|| :   0.3572   Lambda : -0.886D-03
Largest |displ|/coords:  0.1845 (   1)  0.1194 (   9)  0.1146 (   3)
................................................................................
.............................. CYCLE   28 ......................................
................................................................................
   1    -50.7482780 -0.507483E+02  0.300E-01    9.22       0.0  T
   2    -50.7482843 -0.634965E-05  0.226E-01    9.22       1.0  T
   3    -50.7482912 -0.691035E-05  0.124E-02    9.22       1.6  T
   4    -50.7482917 -0.514904E-06  0.429E-03    9.22       4.6  T
   5    -50.7482918 -0.141963E-07  0.225E-03    9.22       8.7  T
   6    -50.7482918 -0.102166E-07  0.698E-04    9.22      28.1  T
speedup  1.09
cpu  time for SCC    0.01 s
wall time for SCC    0.01 s
speedup  0.98
cpu  time for grad    0.01 s
wall time for grad    0.01 s
 E :    -50.46172689  G :  0.011317    pred/act E change: -0.502D-03 -0.636D-03
Maxdispl :   0.2378   ||displ|| :   0.4113   Lambda : -0.763D-03
Largest |displ|/coords:  0.2378 (   1)  0.1613 (   9)  0.1081 (   8)
................................................................................
.............................. CYCLE   29 ......................................
................................................................................
   1    -50.7464439 -0.507464E+02  0.283E-01    9.19       0.0  T
   2    -50.7464531 -0.920539E-05  0.214E-01    9.19       1.0  T
   3    -50.7464645 -0.113620E-04  0.141E-02    9.19       1.4  T
   4    -50.7464650 -0.579330E-06  0.533E-03    9.19       3.7  T
   5    -50.7464651 -0.323523E-07  0.245E-03    9.19       8.0  T
   6    -50.7464651 -0.127077E-07  0.843E-04    9.19      23.3  T
speedup  0.91
cpu  time for SCC    0.01 s
wall time for SCC    0.01 s
speedup  0.97
cpu  time for grad    0.01 s
wall time for grad    0.01 s
 E :    -50.46224129  G :  0.011227    pred/act E change: -0.500D-03 -0.514D-03
Maxdispl :   0.3182   ||displ|| :   0.4918   Lambda : -0.650D-03
Largest |displ|/coords:  0.3182 (   1)  0.1736 (   9)  0.1423 (   3)
................................................................................
.............................. CYCLE   30 ......................................
................................................................................
   1    -50.7411681 -0.507412E+02  0.344E-01    9.14       0.0  T
   2    -50.7411879 -0.198162E-04  0.259E-01    9.14       1.0  T
   3    -50.7412061 -0.182526E-04  0.232E-02    9.14       1.0  T
   4    -50.7412086 -0.241957E-05  0.772E-03    9.14       2.5  T
   5    -50.7412086 -0.721934E-07  0.346E-03    9.14       5.7  T
   6    -50.7412086 -0.137965E-07  0.147E-03    9.14      13.3  T
   7    -50.7412086 -0.617164E-08  0.347E-04    9.14      56.5  T
speedup  1.13
cpu  time for SCC    0.01 s
wall time for SCC    0.01 s
speedup  1.00
cpu  time for grad    0.01 s
wall time for grad    0.01 s
 E :    -50.46239211  G :  0.029481    pred/act E change: -0.446D-03 -0.151D-03
Maxdispl :   0.1537   ||displ|| :   0.2574   Lambda : -0.131D-02
Largest |displ|/coords:  0.1537 (   1)  0.0948 (   9)  0.0854 (   8)
................................................................................
.............................. CYCLE   31 ......................................
................................................................................
   1    -50.7478351 -0.507478E+02  0.146E-01    9.13       0.0  T
   2    -50.7478500 -0.149261E-04  0.108E-01    9.13       1.0  T
   3    -50.7478603 -0.103383E-04  0.217E-02    9.13       1.0  T
   4    -50.7478619 -0.156970E-05  0.505E-03    9.13       3.9  T
   5    -50.7478620 -0.431742E-07  0.222E-03    9.13       8.8  T
speedup  0.89
cpu  time for SCC    0.00 s
wall time for SCC    0.00 s
speedup  0.98
cpu  time for grad    0.01 s
wall time for grad    0.01 s
 E :    -50.46291763  G :  0.019589    pred/act E change: -0.404D-03 -0.526D-03
Maxdispl :   0.1945   ||displ|| :   0.2519   Lambda : -0.764D-03
Largest |displ|/coords:  0.1945 (   1)  0.0741 (   9)  0.0595 (  18)
................................................................................
.............................. CYCLE   32 ......................................
................................................................................
   1    -50.7497030 -0.507497E+02  0.166E-01    9.19       0.0  T
   2    -50.7497116 -0.856651E-05  0.125E-01    9.19       1.0  T
   3    -50.7497189 -0.731036E-05  0.171E-02    9.19       1.1  T
   4    -50.7497200 -0.106172E-05  0.458E-03    9.19       4.3  T
   5    -50.7497200 -0.296033E-07  0.196E-03    9.19      10.0  T
   6    -50.7497200 -0.254998E-08  0.933E-04    9.19      21.0  T
speedup  1.11
cpu  time for SCC    0.01 s
wall time for SCC    0.01 s
speedup  0.99
cpu  time for grad    0.01 s
wall time for grad    0.01 s
 E :    -50.46334863  G :  0.011053    pred/act E change: -0.696D-03 -0.431D-03
Maxdispl :   0.3658   ||displ|| :   0.4991   Lambda : -0.815D-03
Largest |displ|/coords:  0.3658 (   1)  0.1508 (   9)  0.1436 (   3)
................................................................................
.............................. CYCLE   33 ......................................
................................................................................
   1    -50.7460831 -0.507461E+02  0.288E-01    9.21       0.0  T
   2    -50.7460979 -0.147859E-04  0.217E-01    9.21       1.0  T
   3    -50.7461122 -0.143123E-04  0.232E-02    9.21       1.0  T
   4    -50.7461139 -0.161190E-05  0.727E-03    9.21       2.7  T
   5    -50.7461139 -0.676503E-07  0.312E-03    9.21       6.3  T
   6    -50.7461139 -0.817111E-08  0.149E-03    9.21      13.2  T
   7    -50.7461139 -0.509478E-08  0.301E-04    9.21      65.1  T
speedup  0.97
cpu  time for SCC    0.01 s
wall time for SCC    0.01 s
speedup  1.00
cpu  time for grad    0.01 s
wall time for grad    0.01 s
 E :    -50.46377468  G :  0.023837    pred/act E change: -0.406D-03 -0.426D-03
Maxdispl :   0.1981   ||displ|| :   0.2698   Lambda : -0.744D-03
Largest |displ|/coords:  0.1981 (   1)  0.0958 (   8)  0.0536 (  10)
................................................................................
.............................. CYCLE   34 ......................................
................................................................................
   1    -50.7511527 -0.507512E+02  0.132E-01    9.28       0.0  T
   2    -50.7511573 -0.461976E-05  0.986E-02    9.28       1.0  T
   3    -50.7511610 -0.370453E-05  0.154E-02    9.28       1.3  T
   4    -50.7511615 -0.517018E-06  0.435E-03    9.28       4.5  T
   5    -50.7511615 -0.303611E-07  0.134E-03    9.28      14.6  T
speedup  1.11
cpu  time for SCC    0.01 s
wall time for SCC    0.00 s
speedup  1.06
cpu  time for grad    0.01 s
wall time for grad    0.01 s
 E :    -50.46422562  G :  0.020953    pred/act E change: -0.509D-03 -0.451D-03
Maxdispl :   0.2873   ||displ|| :   0.4721   Lambda : -0.137D-02
Largest |displ|/coords:  0.2873 (   1)  0.1830 (   8)  0.1538 (   7)
................................................................................
.............................. CYCLE   35 ......................................
................................................................................
   1    -50.7525107 -0.507525E+02  0.252E-01    9.26       0.0  T
   2    -50.7525323 -0.216615E-04  0.188E-01    9.26       1.0  T
   3    -50.7525494 -0.170570E-04  0.273E-02    9.26       1.0  T
   4    -50.7525520 -0.259911E-05  0.717E-03    9.26       2.7  T
   5    -50.7525521 -0.764886E-07  0.332E-03    9.26       5.9  T
   6    -50.7525521 -0.119717E-07  0.158E-03    9.26      12.4  T
speedup  0.94
cpu  time for SCC    0.00 s
wall time for SCC    0.01 s
speedup  0.99
cpu  time for grad    0.01 s
wall time for grad    0.01 s
 E :    -50.46453442  G :  0.023353    pred/act E change: -0.399D-03 -0.309D-03
Maxdispl :   0.3353   ||displ|| :   0.4571   Lambda : -0.133D-02
Largest |displ|/coords:  0.3353 (   1)  0.1426 (   9)  0.1256 (   8)
................................................................................
.............................. CYCLE   36 ......................................
................................................................................
   1    -50.7468605 -0.507469E+02  0.257E-01    9.08       0.0  T
   2    -50.7468802 -0.196572E-04  0.194E-01    9.08       1.0  T
   3    -50.7468963 -0.161449E-04  0.246E-02    9.08       1.0  T
   4    -50.7468988 -0.249249E-05  0.824E-03    9.08       2.4  T
   5    -50.7468990 -0.129757E-06  0.288E-03    9.08       6.8  T
   6    -50.7468990 -0.773213E-08  0.162E-03    9.08      12.1  T
speedup  0.91
cpu  time for SCC    0.00 s
wall time for SCC    0.01 s
speedup  0.97
cpu  time for grad    0.01 s
wall time for grad    0.01 s
 E :    -50.46530227  G :  0.020815    pred/act E change: -0.840D-03 -0.768D-03
Maxdispl :   0.1367   ||displ|| :   0.2932   Lambda : -0.136D-02
Largest |displ|/coords:  0.1367 (   1)  0.1104 (  12)  0.1039 (   5)
................................................................................
.............................. CYCLE   37 ......................................
................................................................................
   1    -50.7600844 -0.507601E+02  0.202E-01    9.45       0.0  T
   2    -50.7601010 -0.166355E-04  0.147E-01    9.45       1.0  T
   3    -50.7601130 -0.119966E-04  0.325E-02    9.44       1.0  T
   4    -50.7601147 -0.168669E-05  0.797E-03    9.44       2.5  T
   5    -50.7601148 -0.111468E-06  0.265E-03    9.44       7.4  T
   6    -50.7601148 -0.603153E-08  0.133E-03    9.44      14.7  T
speedup  1.11
cpu  time for SCC    0.01 s
wall time for SCC    0.01 s
speedup  1.06
cpu  time for grad    0.01 s
wall time for grad    0.01 s
 E :    -50.46520951  G :  0.033771    pred/act E change: -0.806D-03  0.928D-04
Maxdispl :   0.1930   ||displ|| :   0.3296   Lambda : -0.161D-02
Largest |displ|/coords:  0.1930 (   1)  0.1317 (   8)  0.1275 (   7)
................................................................................
.............................. CYCLE   38 ......................................
................................................................................
   1    -50.7541178 -0.507541E+02  0.197E-01    9.24       0.0  T
   2    -50.7541265 -0.871326E-05  0.148E-01    9.24       1.0  T
   3    -50.7541346 -0.811124E-05  0.170E-02    9.24       1.2  T
   4    -50.7541355 -0.907817E-06  0.610E-03    9.24       3.2  T
   5    -50.7541356 -0.656672E-07  0.217E-03    9.24       9.1  T
   6    -50.7541356 -0.496683E-08  0.113E-03    9.24      17.4  T
speedup  1.07
cpu  time for SCC    0.01 s
wall time for SCC    0.01 s
speedup  1.04
cpu  time for grad    0.01 s
wall time for grad    0.01 s
 E :    -50.46632303  G :  0.017196    pred/act E change: -0.739D-03 -0.111D-02
Maxdispl :   0.3480   ||displ|| :   0.5347   Lambda : -0.117D-02
Largest |displ|/coords:  0.3480 (   1)  0.2025 (   8)  0.1581 (   7)
................................................................................
.............................. CYCLE   39 ......................................
................................................................................
   1    -50.7502539 -0.507503E+02  0.278E-01    9.06       0.0  T
   2    -50.7502690 -0.151920E-04  0.209E-01    9.06       1.0  T
   3    -50.7502842 -0.151901E-04  0.200E-02    9.07       1.0  T
   4    -50.7502857 -0.148458E-05  0.806E-03    9.07       2.4  T
   5    -50.7502858 -0.913825E-07  0.289E-03    9.07       6.8  T
   6    -50.7502858 -0.117301E-07  0.149E-03    9.07      13.2  T
speedup  1.11
cpu  time for SCC    0.01 s
wall time for SCC    0.01 s
speedup  0.98
cpu  time for grad    0.01 s
wall time for grad    0.01 s
 E :    -50.46663921  G :  0.032820    pred/act E change: -0.891D-03 -0.316D-03
Maxdispl :   0.0924   ||displ|| :   0.2434   Lambda : -0.158D-02
Largest |displ|/coords:  0.0924 (   1)  0.0834 (   7)  0.0827 (   5)
................................................................................
.............................. CYCLE   40 ......................................
................................................................................
   1    -50.7511833 -0.507512E+02  0.170E-01    9.19       0.0  T
   2    -50.7511958 -0.124564E-04  0.127E-01    9.19       1.0  T
   3    -50.7512044 -0.862974E-05  0.229E-02    9.19       1.0  T
   4    -50.7512059 -0.151560E-05  0.724E-03    9.19       2.7  T
   5    -50.7512060 -0.812908E-07  0.219E-03    9.19       8.9  T
   6    -50.7512060 -0.579969E-08  0.122E-03    9.19      16.1  T
speedup  0.93
cpu  time for SCC    0.00 s
wall time for SCC    0.01 s
speedup  0.97
cpu  time for grad    0.01 s
wall time for grad    0.01 s
 E :    -50.46744626  G :  0.017456    pred/act E change: -0.750D-03 -0.807D-03
Maxdispl :   0.2174   ||displ|| :   0.3289   Lambda : -0.111D-02
Largest |displ|/coords:  0.2174 (   1)  0.0894 (   4)  0.0874 (   5)
................................................................................
.............................. CYCLE   41 ......................................
................................................................................
   1    -50.7531906 -0.507532E+02  0.182E-01    9.26       0.0  T
   2    -50.7531976 -0.700769E-05  0.137E-01    9.26       1.0  T
   3    -50.7532043 -0.667131E-05  0.177E-02    9.26       1.1  T
   4    -50.7532050 -0.703673E-06  0.491E-03    9.26       4.0  T
   5    -50.7532050 -0.311747E-07  0.201E-03    9.26       9.7  T
   6    -50.7532050 -0.296122E-08  0.956E-04    9.26      20.5  T
speedup  0.94
cpu  time for SCC    0.01 s
wall time for SCC    0.01 s
speedup  0.98
cpu  time for grad    0.01 s
wall time for grad    0.01 s
 E :    -50.46794474  G :  0.021576    pred/act E change: -0.836D-03 -0.498D-03
Maxdispl :   0.1426   ||displ|| :   0.3411   Lambda : -0.194D-02
Largest |displ|/coords:  0.1426 (   5)  0.1132 (   9)  0.1130 (  13)
................................................................................
.............................. CYCLE   42 ......................................
................................................................................
   1    -50.7757686 -0.507758E+02  0.267E-01    9.78       0.0  T
   2    -50.7758091 -0.404759E-04  0.197E-01    9.78       1.0  T
   3    -50.7758359 -0.267294E-04  0.441E-02    9.77       1.0  T
   4    -50.7758399 -0.400045E-05  0.148E-02    9.77       1.3  T
   5    -50.7758402 -0.361447E-06  0.372E-03    9.77       5.3  T
   6    -50.7758402 -0.127649E-07  0.219E-03    9.77       9.0  T
speedup  0.93
cpu  time for SCC    0.00 s
wall time for SCC    0.01 s
speedup  0.98
cpu  time for grad    0.01 s
wall time for grad    0.01 s
 E :    -50.46700284  G :  0.046853    pred/act E change: -0.614D-03  0.942D-03
Maxdispl :   0.1484   ||displ|| :   0.3221   Lambda : -0.319D-02
Largest |displ|/coords:  0.1484 (   1)  0.1314 (   7)  0.1133 (   9)
................................................................................
.............................. CYCLE   43 ......................................
................................................................................
   1    -50.7589360 -0.507589E+02  0.230E-01    9.39       0.0  T
   2    -50.7589589 -0.229099E-04  0.170E-01    9.39       1.0  T
   3    -50.7589732 -0.143392E-04  0.334E-02    9.40       1.0  T
   4    -50.7589759 -0.269740E-05  0.107E-02    9.40       1.8  T
   5    -50.7589761 -0.203253E-06  0.291E-03    9.40       6.7  T
   6    -50.7589762 -0.941406E-08  0.175E-03    9.40      11.2  T
speedup  0.93
cpu  time for SCC    0.01 s
wall time for SCC    0.01 s
speedup  0.97
cpu  time for grad    0.01 s
wall time for grad    0.01 s
 E :    -50.46862176  G :  0.024921    pred/act E change: -0.108D-02 -0.162D-02
Maxdispl :   0.0821   ||displ|| :   0.2011   Lambda : -0.132D-02
Largest |displ|/coords:  0.0821 (   3)  0.0678 (   6)  0.0640 (  18)
................................................................................
.............................. CYCLE   44 ......................................
................................................................................
   1    -50.7528870 -0.507529E+02  0.191E-01    9.18       0.0  T
   2    -50.7529074 -0.204091E-04  0.143E-01    9.18       1.0  T
   3    -50.7529269 -0.194580E-04  0.267E-02    9.19       1.0  T
   4    -50.7529287 -0.181796E-05  0.671E-03    9.18       2.9  T
   5    -50.7529288 -0.934777E-07  0.320E-03    9.18       6.1  T
   6    -50.7529288 -0.152173E-07  0.134E-03    9.18      14.6  T
speedup  0.93
cpu  time for SCC    0.00 s
wall time for SCC    0.01 s
speedup  0.97
cpu  time for grad    0.01 s
wall time for grad    0.01 s
 E :    -50.46796706  G :  0.032867    pred/act E change: -0.176D-02  0.655D-03
Maxdispl :   0.0692   ||displ|| :   0.1801   Lambda : -0.208D-02
Largest |displ|/coords:  0.0692 (   1)  0.0665 (   3)  0.0545 (   5)
................................................................................
.............................. CYCLE   45 ......................................
................................................................................
   1    -50.7585261 -0.507585E+02  0.145E-01    9.40       0.0  T
   2    -50.7585356 -0.950987E-05  0.109E-01    9.40       1.0  T
   3    -50.7585453 -0.973667E-05  0.184E-02    9.39       1.1  T
   4    -50.7585461 -0.764753E-06  0.498E-03    9.39       3.9  T
   5    -50.7585461 -0.322540E-07  0.219E-03    9.39       8.9  T
speedup  0.89
cpu  time for SCC    0.00 s
wall time for SCC    0.00 s
speedup  0.96
cpu  time for grad    0.01 s
wall time for grad    0.01 s
 E :    -50.46908624  G :  0.011665    pred/act E change: -0.689D-03 -0.112D-02
Maxdispl :   0.0982   ||displ|| :   0.2363   Lambda : -0.438D-03
Largest |displ|/coords:  0.0982 (   7)  0.0918 (   8)  0.0897 (   1)
................................................................................
.............................. CYCLE   46 ......................................
................................................................................
   1    -50.7588974 -0.507589E+02  0.151E-01    9.31       0.0  T
   2    -50.7589020 -0.454104E-05  0.114E-01    9.31       1.0  T
   3    -50.7589073 -0.534109E-05  0.118E-02    9.31       1.7  T
   4    -50.7589076 -0.262660E-06  0.393E-03    9.31       5.0  T
   5    -50.7589076 -0.197181E-07  0.140E-03    9.31      14.0  T
   6    -50.7589076 -0.201718E-08  0.768E-04    9.31      25.5  T
speedup  0.94
cpu  time for SCC    0.01 s
wall time for SCC    0.01 s
speedup  0.97
cpu  time for grad    0.01 s
wall time for grad    0.01 s
 E :    -50.46914446  G :  0.019347    pred/act E change: -0.107D-02 -0.582D-04
Maxdispl :   0.0357   ||displ|| :   0.1100   Lambda : -0.514D-03
Largest |displ|/coords:  0.0357 (   8)  0.0346 (   2)  0.0309 (  19)
................................................................................
.............................. CYCLE   47 ......................................
................................................................................
   1    -50.7596251 -0.507596E+02  0.777E-02    9.45       0.0  T
   2    -50.7596267 -0.154030E-05  0.582E-02    9.45       1.0  T
   3    -50.7596280 -0.135645E-05  0.806E-03    9.44       2.4  T
   4    -50.7596282 -0.159871E-06  0.230E-03    9.44       8.5  T
   5    -50.7596282 -0.865288E-08  0.933E-04    9.44      21.0  T
speedup  1.11
cpu  time for SCC    0.00 s
wall time for SCC    0.00 s
speedup  1.04
cpu  time for grad    0.01 s
wall time for grad    0.01 s
 E :    -50.46948647  G :  0.014729    pred/act E change: -0.231D-03 -0.342D-03
Maxdispl :   0.0996   ||displ|| :   0.1999   Lambda : -0.580D-03
Largest |displ|/coords:  0.0996 (   2)  0.0678 (  19)  0.0541 (  21)
................................................................................
.............................. CYCLE   48 ......................................
................................................................................
   1    -50.7620514 -0.507621E+02  0.138E-01    9.44       0.0  T
   2    -50.7620579 -0.649322E-05  0.101E-01    9.44       1.0  T
   3    -50.7620622 -0.430026E-05  0.188E-02    9.44       1.0  T
   4    -50.7620629 -0.764370E-06  0.536E-03    9.44       3.7  T
   5    -50.7620630 -0.422330E-07  0.152E-03    9.44      12.9  T
   6    -50.7620630 -0.334867E-08  0.856E-04    9.44      22.9  T
speedup  0.94
cpu  time for SCC    0.00 s
wall time for SCC    0.01 s
speedup  0.98
cpu  time for grad    0.01 s
wall time for grad    0.01 s
 E :    -50.46972663  G :  0.013513    pred/act E change: -0.260D-03 -0.240D-03
Maxdispl :   0.0826   ||displ|| :   0.2017   Lambda : -0.519D-03
Largest |displ|/coords:  0.0826 (  19)  0.0568 (   3)  0.0536 (   7)
................................................................................
.............................. CYCLE   49 ......................................
................................................................................
   1    -50.7617396 -0.507617E+02  0.146E-01    9.52       0.0  T
   2    -50.7617435 -0.389414E-05  0.108E-01    9.52       1.0  T
   3    -50.7617471 -0.360525E-05  0.163E-02    9.52       1.2  T
   4    -50.7617475 -0.346442E-06  0.450E-03    9.52       4.4  T
   5    -50.7617475 -0.297582E-07  0.132E-03    9.52      14.9  T
   6    -50.7617475 -0.176258E-08  0.832E-04    9.52      23.6  T
speedup  0.93
cpu  time for SCC    0.00 s
wall time for SCC    0.01 s
speedup  0.95
cpu  time for grad    0.01 s
wall time for grad    0.01 s
 E :    -50.47006010  G :  0.012132    pred/act E change: -0.301D-03 -0.333D-03
Maxdispl :   0.2145   ||displ|| :   0.4144   Lambda : -0.612D-03
Largest |displ|/coords:  0.2145 (   1)  0.1385 (   7)  0.0923 (  16)
................................................................................
.............................. CYCLE   50 ......................................
................................................................................
   1    -50.7553851 -0.507554E+02  0.298E-01    9.42       0.0  T
   2    -50.7554006 -0.154497E-04  0.223E-01    9.42       1.0  T
   3    -50.7554187 -0.180775E-04  0.304E-02    9.42       1.0  T
   4    -50.7554197 -0.103318E-05  0.857E-03    9.42       2.3  T
   5    -50.7554198 -0.112121E-06  0.324E-03    9.42       6.0  T
   6    -50.7554198 -0.115953E-07  0.195E-03    9.42      10.1  T
   7    -50.7554198 -0.571387E-08  0.345E-04    9.42      56.9  T
speedup  0.97
cpu  time for SCC    0.01 s
wall time for SCC    0.01 s
speedup  0.98
cpu  time for grad    0.01 s
wall time for grad    0.01 s
 E :    -50.46991231  G :  0.027198    pred/act E change: -0.270D-03  0.148D-03
Maxdispl :   0.0857   ||displ|| :   0.2124   Lambda : -0.132D-02
Largest |displ|/coords:  0.0857 (   8)  0.0774 (   9)  0.0689 (   4)
................................................................................
.............................. CYCLE   51 ......................................
................................................................................
   1    -50.7610965 -0.507611E+02  0.140E-01    9.52       0.0  T
   2    -50.7611032 -0.668093E-05  0.105E-01    9.52       1.0  T
   3    -50.7611105 -0.730987E-05  0.147E-02    9.52       1.3  T
   4    -50.7611111 -0.565219E-06  0.564E-03    9.52       3.5  T
   5    -50.7611111 -0.380830E-07  0.189E-03    9.52      10.4  T
speedup  0.89
cpu  time for SCC    0.00 s
wall time for SCC    0.00 s
speedup  0.96
cpu  time for grad    0.01 s
wall time for grad    0.01 s
 E :    -50.47050648  G :  0.014471    pred/act E change: -0.359D-03 -0.594D-03
Maxdispl :   0.0753   ||displ|| :   0.1753   Lambda : -0.519D-03
Largest |displ|/coords:  0.0753 (   8)  0.0659 (   3)  0.0519 (   2)
................................................................................
.............................. CYCLE   52 ......................................
................................................................................
   1    -50.7616389 -0.507616E+02  0.128E-01    9.48       0.0  T
   2    -50.7616433 -0.441221E-05  0.948E-02    9.48       1.0  T
   3    -50.7616473 -0.395840E-05  0.178E-02    9.48       1.1  T
   4    -50.7616477 -0.437521E-06  0.426E-03    9.48       4.6  T
   5    -50.7616477 -0.298390E-07  0.162E-03    9.48      12.1  T
   6    -50.7616477 -0.235425E-08  0.828E-04    9.48      23.7  T
speedup  0.93
cpu  time for SCC    0.00 s
wall time for SCC    0.01 s
speedup  0.96
cpu  time for grad    0.01 s
wall time for grad    0.01 s
 E :    -50.47070165  G :  0.014754    pred/act E change: -0.689D-03 -0.195D-03
Maxdispl :   0.0706   ||displ|| :   0.1728   Lambda : -0.385D-03
Largest |displ|/coords:  0.0706 (   8)  0.0534 (   1)  0.0514 (  28)

generating ANC from model Hessian ...
 Shifting diagonal of input Hessian by   4.676073626775591E-003
 Lowest  eigenvalues of input Hessian
   -0.000000   -0.000000   -0.000000    0.000000    0.000000    0.000000
    0.005000    0.005344    0.005769    0.006463    0.007536    0.007612
    0.008933    0.009182    0.009972    0.009986    0.010446    0.012392
 Highest eigenvalues
    1.399980    1.410212    1.434442    2.640559    3.491388    3.645483
 
cpu  time for ANC gen    0.02 s
wall time for ANC gen    0.02 s
................................................................................
.............................. CYCLE   53 ......................................
................................................................................
   1    -50.7609262 -0.507609E+02  0.106E-01    9.50       0.0  T
   2    -50.7609292 -0.292954E-05  0.784E-02    9.50       1.0  T
   3    -50.7609314 -0.228319E-05  0.147E-02    9.50       1.3  T
   4    -50.7609318 -0.384170E-06  0.415E-03    9.50       4.7  T
   5    -50.7609318 -0.215893E-07  0.121E-03    9.50      16.2  T
   6    -50.7609318 -0.175147E-08  0.722E-04    9.50      27.2  T
   7    -50.7609319 -0.787871E-09  0.193E-04    9.50     101.6  T
speedup  0.97
cpu  time for SCC    0.01 s
wall time for SCC    0.01 s
speedup  1.01
cpu  time for grad    0.01 s
wall time for grad    0.01 s
 E :    -50.47099846  G :  0.009989    pred/act E change:  0.000D+00 -0.297D-03
Maxdispl :   0.0807   ||displ|| :   0.1864   Lambda : -0.502D-03
Largest |displ|/coords:  0.0807 (   8)  0.0583 (   4)  0.0540 (   7)
................................................................................
.............................. CYCLE   54 ......................................
................................................................................
   1    -50.7614339 -0.507614E+02  0.123E-01    9.45       0.0  T
   2    -50.7614368 -0.282181E-05  0.925E-02    9.46       1.0  T
   3    -50.7614399 -0.318950E-05  0.941E-03    9.46       2.1  T
   4    -50.7614402 -0.225115E-06  0.298E-03    9.46       6.6  T
   5    -50.7614402 -0.130549E-07  0.124E-03    9.46      15.9  T
speedup  0.89
cpu  time for SCC    0.00 s
wall time for SCC    0.00 s
speedup  0.94
cpu  time for grad    0.01 s
wall time for grad    0.01 s
 E :    -50.47140943  G :  0.005571    pred/act E change:  0.000D+00 -0.411D-03
Maxdispl :   0.1994   ||displ|| :   0.4340   Lambda : -0.820D-03
Largest |displ|/coords:  0.1994 (   8)  0.1505 (   3)  0.1230 (   7)
................................................................................
.............................. CYCLE   55 ......................................
................................................................................
   1    -50.7593426 -0.507593E+02  0.257E-01    9.30       0.0  T
   2    -50.7593547 -0.121531E-04  0.193E-01    9.30       1.0  T
   3    -50.7593686 -0.138486E-04  0.209E-02    9.31       1.0  T
   4    -50.7593695 -0.928953E-06  0.700E-03    9.31       2.8  T
   5    -50.7593696 -0.595557E-07  0.276E-03    9.31       7.1  T
   6    -50.7593696 -0.132905E-07  0.146E-03    9.31      13.4  T
speedup  0.91
cpu  time for SCC    0.00 s
wall time for SCC    0.01 s
speedup  0.96
cpu  time for grad    0.01 s
wall time for grad    0.01 s
 E :    -50.47186993  G :  0.009240    pred/act E change: -0.260D-03 -0.460D-03
Maxdispl :   0.0830   ||displ|| :   0.1786   Lambda : -0.238D-03
Largest |displ|/coords:  0.0830 (   3)  0.0761 (  10)  0.0628 (   8)
................................................................................
.............................. CYCLE   56 ......................................
................................................................................
   1    -50.7597612 -0.507598E+02  0.848E-02    9.27       0.0  T
   2    -50.7597629 -0.173620E-05  0.640E-02    9.27       1.0  T
   3    -50.7597644 -0.146192E-05  0.797E-03    9.28       2.5  T
   4    -50.7597646 -0.213944E-06  0.380E-03    9.28       5.2  T
   5    -50.7597646 -0.149370E-07  0.764E-04    9.28      25.7  T
   6    -50.7597646 -0.653046E-09  0.484E-04    9.28      40.6  T
speedup  0.93
cpu  time for SCC    0.00 s
wall time for SCC    0.01 s
speedup  0.97
cpu  time for grad    0.01 s
wall time for grad    0.01 s
 E :    -50.47201934  G :  0.008050    pred/act E change: -0.487D-03 -0.149D-03
Maxdispl :   0.0763   ||displ|| :   0.1926   Lambda : -0.215D-03
Largest |displ|/coords:  0.0763 (  10)  0.0660 (   7)  0.0657 (   8)
................................................................................
.............................. CYCLE   57 ......................................
................................................................................
   1    -50.7608657 -0.507609E+02  0.943E-02    9.28       0.0  T
   2    -50.7608674 -0.169263E-05  0.710E-02    9.29       1.0  T
   3    -50.7608688 -0.140986E-05  0.815E-03    9.29       2.4  T
   4    -50.7608691 -0.224787E-06  0.380E-03    9.29       5.2  T
   5    -50.7608691 -0.174307E-07  0.910E-04    9.29      21.6  T
   6    -50.7608691 -0.892804E-09  0.575E-04    9.29      34.1  T
speedup  0.94
cpu  time for SCC    0.00 s
wall time for SCC    0.01 s
speedup  0.97
cpu  time for grad    0.01 s
wall time for grad    0.01 s
 E :    -50.47213668  G :  0.006835    pred/act E change: -0.123D-03 -0.117D-03
Maxdispl :   0.0624   ||displ|| :   0.1561   Lambda : -0.133D-03
Largest |displ|/coords:  0.0624 (  11)  0.0596 (   3)  0.0498 (   8)
................................................................................
.............................. CYCLE   58 ......................................
................................................................................
   1    -50.7608098 -0.507608E+02  0.903E-02    9.32       0.0  T
   2    -50.7608122 -0.237232E-05  0.688E-02    9.32       1.0  T
   3    -50.7608144 -0.225193E-05  0.899E-03    9.32       2.2  T
   4    -50.7608147 -0.309599E-06  0.357E-03    9.32       5.5  T
   5    -50.7608147 -0.143061E-07  0.905E-04    9.32      21.7  T
   6    -50.7608147 -0.871935E-09  0.523E-04    9.32      37.5  T
speedup  0.91
cpu  time for SCC    0.00 s
wall time for SCC    0.01 s
speedup  0.96
cpu  time for grad    0.01 s
wall time for grad    0.01 s
 E :    -50.47220742  G :  0.004649    pred/act E change: -0.111D-03 -0.707D-04
Maxdispl :   0.0397   ||displ|| :   0.0969   Lambda : -0.766D-04
Largest |displ|/coords:  0.0397 (   7)  0.0364 (  13)  0.0349 (  11)
................................................................................
.............................. CYCLE   59 ......................................
................................................................................
   1    -50.7609538 -0.507610E+02  0.605E-02    9.36       0.0  T
   2    -50.7609551 -0.125194E-05  0.453E-02    9.36       1.0  T
   3    -50.7609557 -0.641353E-06  0.803E-03    9.36       2.4  T
   4    -50.7609559 -0.211733E-06  0.223E-03    9.36       8.8  T
   5    -50.7609559 -0.955554E-08  0.705E-04    9.36      27.8  T
speedup  0.89
cpu  time for SCC    0.00 s
wall time for SCC    0.00 s
speedup  0.96
cpu  time for grad    0.01 s
wall time for grad    0.01 s
 E :    -50.47225217  G :  0.002597    pred/act E change: -0.680D-04 -0.448D-04
Maxdispl :   0.0302   ||displ|| :   0.0607   Lambda : -0.330D-04
Largest |displ|/coords:  0.0302 (  11)  0.0298 (   7)  0.0143 (  15)
................................................................................
.............................. CYCLE   60 ......................................
................................................................................
   1    -50.7616234 -0.507616E+02  0.407E-02    9.38       0.0  T
   2    -50.7616238 -0.406629E-06  0.305E-02    9.38       1.0  T
   3    -50.7616242 -0.370536E-06  0.493E-03    9.38       4.0  T
   4    -50.7616242 -0.489360E-07  0.150E-03    9.38      13.1  T
   5    -50.7616242 -0.267117E-08  0.407E-04    9.38      48.2  T
   6    -50.7616242 -0.181203E-09  0.241E-04    9.38      81.3  T
speedup  1.11
cpu  time for SCC    0.01 s
wall time for SCC    0.01 s
speedup  1.00
cpu  time for grad    0.01 s
wall time for grad    0.01 s
 E :    -50.47227201  G :  0.001628    pred/act E change: -0.386D-04 -0.198D-04
Maxdispl :   0.0317   ||displ|| :   0.0657   Lambda : -0.158D-04
Largest |displ|/coords:  0.0317 (   7)  0.0308 (  11)  0.0213 (  13)
................................................................................
.............................. CYCLE   61 ......................................
................................................................................
   1    -50.7613822 -0.507614E+02  0.446E-02    9.38       0.0  T
   2    -50.7613826 -0.394373E-06  0.334E-02    9.38       1.0  T
   3    -50.7613831 -0.460165E-06  0.494E-03    9.38       4.0  T
   4    -50.7613831 -0.300911E-07  0.127E-03    9.38      15.5  T
   5    -50.7613831 -0.231775E-08  0.439E-04    9.38      44.6  T
   6    -50.7613831 -0.213348E-09  0.248E-04    9.38      79.1  T
speedup  1.09
cpu  time for SCC    0.01 s
wall time for SCC    0.01 s
speedup  0.99
cpu  time for grad    0.01 s
wall time for grad    0.01 s
 E :    -50.47227933  G :  0.001909    pred/act E change: -0.165D-04 -0.731D-05
Maxdispl :   0.0085   ||displ|| :   0.0191   Lambda : -0.665D-05
Largest |displ|/coords:  0.0085 (   4)  0.0066 (   7)  0.0054 (  15)
................................................................................
.............................. CYCLE   62 ......................................
................................................................................
   1    -50.7616341 -0.507616E+02  0.120E-02    9.38       0.0  T
   2    -50.7616342 -0.779285E-07  0.891E-03    9.38       2.2  T
   3    -50.7616342 -0.484017E-07  0.180E-03    9.38      10.9  T
   4    -50.7616342 -0.104481E-07  0.469E-04    9.38      41.8  T
   5    -50.7616342 -0.473641E-09  0.137E-04    9.38     143.5  T
speedup  1.09
cpu  time for SCC    0.00 s
wall time for SCC    0.00 s
speedup  0.98
cpu  time for grad    0.01 s
wall time for grad    0.01 s
 E :    -50.47228370  G :  0.000991    pred/act E change: -0.794D-05 -0.437D-05
Maxdispl :   0.0084   ||displ|| :   0.0221   Lambda : -0.427D-05
Largest |displ|/coords:  0.0084 (  11)  0.0078 (   5)  0.0075 (  16)
................................................................................
.............................. CYCLE   63 ......................................
................................................................................
   1    -50.7616646 -0.507617E+02  0.166E-02    9.38       0.0  T
   2    -50.7616647 -0.682166E-07  0.123E-02    9.38       1.6  T
   3    -50.7616648 -0.686237E-07  0.200E-03    9.38       9.8  T
   4    -50.7616648 -0.580784E-08  0.479E-04    9.38      40.9  T
   5    -50.7616648 -0.506844E-09  0.156E-04    9.38     126.0  T
speedup  1.11
cpu  time for SCC    0.01 s
wall time for SCC    0.00 s
speedup  0.99
cpu  time for grad    0.01 s
wall time for grad    0.01 s
 E :    -50.47228666  G :  0.000595    pred/act E change: -0.333D-05 -0.296D-05
Maxdispl :   0.0112   ||displ|| :   0.0277   Lambda : -0.285D-05
Largest |displ|/coords:  0.0112 (   9)  0.0102 (  11)  0.0099 (   1)
................................................................................
.............................. CYCLE   64 ......................................
................................................................................
   1    -50.7614964 -0.507615E+02  0.216E-02    9.38       0.0  T
   2    -50.7614965 -0.879119E-07  0.161E-02    9.38       1.2  T
   3    -50.7614966 -0.103124E-06  0.235E-03    9.38       8.3  T
   4    -50.7614966 -0.537297E-08  0.551E-04    9.38      35.6  T
   5    -50.7614966 -0.594753E-09  0.192E-04    9.38     102.2  T
speedup  0.89
cpu  time for SCC    0.00 s
wall time for SCC    0.00 s
speedup  0.99
cpu  time for grad    0.01 s
wall time for grad    0.01 s
 E :    -50.47228852  G :  0.000691    pred/act E change: -0.214D-05 -0.186D-05
Maxdispl :   0.0092   ||displ|| :   0.0205   Lambda : -0.157D-05
Largest |displ|/coords:  0.0092 (   5)  0.0069 (  11)  0.0065 (  16)
................................................................................
.............................. CYCLE   65 ......................................
................................................................................
   1    -50.7614702 -0.507615E+02  0.157E-02    9.37       0.0  T
   2    -50.7614702 -0.491120E-07  0.116E-02    9.37       1.7  T
   3    -50.7614703 -0.517487E-07  0.180E-03    9.38      10.9  T
   4    -50.7614703 -0.358192E-08  0.501E-04    9.37      39.1  T
   5    -50.7614703 -0.446626E-09  0.124E-04    9.37     158.0  T
speedup  0.89
cpu  time for SCC    0.00 s
wall time for SCC    0.00 s
speedup  0.99
cpu  time for grad    0.01 s
wall time for grad    0.01 s
 E :    -50.47228959  G :  0.000635    pred/act E change: -0.143D-05 -0.107D-05
Maxdispl :   0.0078   ||displ|| :   0.0188   Lambda : -0.115D-05
Largest |displ|/coords:  0.0078 (   5)  0.0071 (   9)  0.0056 (   6)
................................................................................
.............................. CYCLE   66 ......................................
................................................................................
   1    -50.7614212 -0.507614E+02  0.138E-02    9.37       0.0  T
   2    -50.7614212 -0.399477E-07  0.102E-02    9.37       1.9  T
   3    -50.7614213 -0.408102E-07  0.159E-03    9.37      12.3  T
   4    -50.7614213 -0.332896E-08  0.518E-04    9.37      37.9  T
   5    -50.7614213 -0.387807E-09  0.120E-04    9.37     164.0  T
speedup  0.89
cpu  time for SCC    0.00 s
wall time for SCC    0.00 s
speedup  0.99
cpu  time for grad    0.01 s
wall time for grad    0.01 s
 E :    -50.47229037  G :  0.000477    pred/act E change: -0.784D-06 -0.777D-06
Maxdispl :   0.0066   ||displ|| :   0.0122   Lambda : -0.671D-06
Largest |displ|/coords:  0.0066 (   5)  0.0047 (   6)  0.0036 (  12)
................................................................................
.............................. CYCLE   67 ......................................
................................................................................
   1    -50.7615039 -0.507615E+02  0.853E-03    9.37       0.0  T
   2    -50.7615039 -0.159775E-07  0.635E-03    9.37       3.1  T
   3    -50.7615039 -0.151485E-07  0.965E-04    9.37      20.3  T
   4    -50.7615039 -0.162687E-08  0.319E-04    9.37      61.5  T
speedup  0.83
cpu  time for SCC    0.00 s
wall time for SCC    0.00 s
speedup  0.97
cpu  time for grad    0.01 s
wall time for grad    0.01 s
 E :    -50.47229083  G :  0.000409    pred/act E change: -0.575D-06 -0.464D-06
Maxdispl :   0.0051   ||displ|| :   0.0113   Lambda : -0.517D-06
Largest |displ|/coords:  0.0051 (   5)  0.0039 (   7)  0.0035 (   6)
................................................................................
.............................. CYCLE   68 ......................................
................................................................................
   1    -50.7615382 -0.507615E+02  0.730E-03    9.37       0.0  T
   2    -50.7615382 -0.127036E-07  0.541E-03    9.37       3.6  T
   3    -50.7615382 -0.119779E-07  0.980E-04    9.37      20.0  T
   4    -50.7615382 -0.140429E-08  0.306E-04    9.37      64.0  T
speedup  1.11
cpu  time for SCC    0.00 s
wall time for SCC    0.00 s
speedup  0.98
cpu  time for grad    0.01 s
wall time for grad    0.01 s
 E :    -50.47229118  G :  0.000422    pred/act E change: -0.336D-06 -0.352D-06
Maxdispl :   0.0085   ||displ|| :   0.0144   Lambda : -0.509D-06
Largest |displ|/coords:  0.0085 (   5)  0.0053 (   6)  0.0048 (   1)
................................................................................
.............................. CYCLE   69 ......................................
................................................................................
   1    -50.7616537 -0.507617E+02  0.910E-03    9.38       0.0  T
   2    -50.7616537 -0.149988E-07  0.677E-03    9.38       2.9  T
   3    -50.7616538 -0.143703E-07  0.111E-03    9.38      17.7  T
   4    -50.7616538 -0.168501E-08  0.310E-04    9.38      63.2  T
   5    -50.7616538 -0.147743E-09  0.906E-05    9.38     216.5  T
speedup  1.11
cpu  time for SCC    0.00 s
wall time for SCC    0.00 s
speedup  0.99
cpu  time for grad    0.01 s
wall time for grad    0.01 s
 E :    -50.47229151  G :  0.000366    pred/act E change: -0.258D-06 -0.324D-06
Maxdispl :   0.0077   ||displ|| :   0.0137   Lambda : -0.372D-06
Largest |displ|/coords:  0.0077 (   5)  0.0058 (   7)  0.0049 (   1)
................................................................................
.............................. CYCLE   70 ......................................
................................................................................
   1    -50.7616691 -0.507617E+02  0.818E-03    9.38       0.0  T
   2    -50.7616691 -0.128632E-07  0.610E-03    9.38       3.2  T
   3    -50.7616692 -0.115653E-07  0.993E-04    9.38      19.7  T
   4    -50.7616692 -0.159366E-08  0.272E-04    9.38      72.0  T
speedup  1.08
cpu  time for SCC    0.00 s
wall time for SCC    0.00 s
speedup  0.98
cpu  time for grad    0.01 s
wall time for grad    0.01 s
 E :    -50.47229178  G :  0.000310    pred/act E change: -0.254D-06 -0.268D-06
Maxdispl :   0.0072   ||displ|| :   0.0137   Lambda : -0.346D-06
Largest |displ|/coords:  0.0072 (   5)  0.0063 (   1)  0.0055 (   7)
................................................................................
.............................. CYCLE   71 ......................................
................................................................................
   1    -50.7616712 -0.507617E+02  0.780E-03    9.38       0.0  T
   2    -50.7616712 -0.956519E-08  0.584E-03    9.38       3.4  T
   3    -50.7616712 -0.888245E-08  0.811E-04    9.38      24.2  T
   4    -50.7616712 -0.117100E-08  0.225E-04    9.38      87.3  T
speedup  1.08
cpu  time for SCC    0.00 s
wall time for SCC    0.00 s
speedup  0.98
cpu  time for grad    0.01 s
wall time for grad    0.01 s
 E :    -50.47229203  G :  0.000283    pred/act E change: -0.186D-06 -0.253D-06
Maxdispl :   0.0070   ||displ|| :   0.0129   Lambda : -0.255D-06
Largest |displ|/coords:  0.0070 (   5)  0.0061 (   1)  0.0049 (   7)
................................................................................
.............................. CYCLE   72 ......................................
................................................................................
   1    -50.7616486 -0.507616E+02  0.771E-03    9.38       0.0  T
   2    -50.7616486 -0.707549E-08  0.579E-03    9.38       3.4  T
   3    -50.7616486 -0.763866E-08  0.624E-04    9.38      31.4  T
   4    -50.7616486 -0.685148E-09  0.190E-04    9.38     103.0  T
speedup  1.08
cpu  time for SCC    0.00 s
wall time for SCC    0.00 s
speedup  0.98
cpu  time for grad    0.01 s
wall time for grad    0.01 s
 E :    -50.47229221  G :  0.000269    pred/act E change: -0.173D-06 -0.185D-06
Maxdispl :   0.0053   ||displ|| :   0.0110   Lambda : -0.177D-06
Largest |displ|/coords:  0.0053 (   1)  0.0052 (   5)  0.0040 (   8)
................................................................................
.............................. CYCLE   73 ......................................
................................................................................
   1    -50.7616301 -0.507616E+02  0.685E-03    9.38       0.0  T
   2    -50.7616301 -0.558941E-08  0.515E-03    9.38       3.8  T
   3    -50.7616301 -0.620529E-08  0.515E-04    9.38      38.1  T
   4    -50.7616301 -0.506191E-09  0.167E-04    9.38     117.1  T
speedup  1.05
cpu  time for SCC    0.00 s
wall time for SCC    0.00 s
speedup  1.02
cpu  time for grad    0.01 s
wall time for grad    0.01 s
 E :    -50.47229234  G :  0.000201    pred/act E change: -0.128D-06 -0.127D-06
Maxdispl :   0.0037   ||displ|| :   0.0074   Lambda : -0.975D-07
Largest |displ|/coords:  0.0037 (   5)  0.0030 (   7)  0.0029 (   1)
................................................................................
.............................. CYCLE   74 ......................................
................................................................................
   1    -50.7616172 -0.507616E+02  0.490E-03    9.38       0.0  T
   2    -50.7616172 -0.302919E-08  0.367E-03    9.38       5.3  T
   3    -50.7616172 -0.319367E-08  0.398E-04    9.38      49.2  T
   4    -50.7616172 -0.279904E-09  0.132E-04    9.38     148.9  T
speedup  0.83
cpu  time for SCC    0.00 s
wall time for SCC    0.00 s
speedup  0.97
cpu  time for grad    0.01 s
wall time for grad    0.01 s
 E :    -50.47229241  G :  0.000121    pred/act E change: -0.885D-07 -0.714D-07
Maxdispl :   0.0007   ||displ|| :   0.0017   Lambda : -0.530D-07
Largest |displ|/coords:  0.0007 (   6)  0.0006 (  11)  0.0005 (   2)

   *** GEOMETRY OPTIMIZATION CONVERGED AFTER 74 ITERATIONS ***

------------------------------------------------------------------------
 total energy gain (kcal):     -0.8120
------------------------------------------------------------------------
================
 final structure:
================
$coord
       -0.49235015045064        1.72426195674379        3.91496466305038      S 
       -1.12731015284896       -0.79417095688782        2.98642616910701      O 
        2.12956431409044        2.34757106498892        3.43282604559985      O 
       -2.26746685985035        3.61531650346613        3.03003335847515      O 
       -0.80778436452795        1.64682060850641        6.89227709972870      O 
       -2.56972443954275        1.95628241190999        7.06853544338033      H 
       -1.89184238785989        3.85803853759180        0.03828072432695      H 
       -0.99865109963768       -3.48085409110083       -3.67982811421983      O 
       -1.86943479763161       -4.56901216046828       -4.83319611082244      H 
       -1.76188332779979        3.87760416230547       -1.83059649197832      O 
       -1.96083775830008        5.60918045540688       -2.32338406566305      H 
        1.55343163731282       -4.49834207715549        0.75711331300432      O 
        0.45983098410806       -3.48974507585635        1.84952699322060      H 
        0.68260534027739       -4.54606635021985       -0.86430646285228      H 
        1.81196507368479        0.87852826080792       -4.07467253320960      O 
        0.88653686620631       -0.69738508374391       -4.29820649000840      H 
        0.58297672943033        2.07534373011958       -3.39754920193799      H 
       -4.15014118742901       -0.78020850940403       -1.03035178742511      O 
       -3.27458473457164       -0.84457377132719        0.60039606742856      H 
       -3.89095041328538        0.92940589930633       -1.62184013912432      H 
       -2.32969275240836       -2.54316137392205       -2.71837052741464      H 
        4.32538356799496       -0.45518335226783        0.01470386978606      N 
        6.23981863918288       -0.46386270070745        0.02900044356906      H 
        3.54200317471850       -2.28123381688013        0.33620798391931      H 
        3.59623686438293        0.72733806548752        1.45531170090332      H 
        3.58230131025267        0.19810768224026       -1.73330189424180      H 
$end
 
 Bond Distances (Angstroems)
 ---------------------------
S1-O2=1.4596         S1-O3=1.4488         S1-O4=1.4502         S1-O5=1.5849         O2-S1=1.4596         O3-S1=1.4488         
O4-S1=1.4502         O5-S1=1.5849         O5-H6=0.9512         H6-O5=0.9512         H7-O10=0.9914        O8-H9=0.9573         
O8-H21=1.0006        H9-O8=0.9573         O10-H7=0.9914        O10-H11=0.9585       H11-O10=0.9585       O12-H13=0.9767       
O12-H14=0.9743       H13-O12=0.9767       H14-O12=0.9743       O15-H16=0.9743       O15-H17=0.9759       H16-O15=0.9743       
H17-O15=0.9759       O18-H19=0.9801       O18-H20=0.9671       H19-O18=0.9801       H20-O18=0.9671       H21-O8=1.0006        
N22-H23=1.0131       N22-H24=1.0651       N22-H25=1.0591       N22-H26=1.0629       H23-N22=1.0131       H24-N22=1.0651       
H25-N22=1.0591       H26-N22=1.0629       
 N  H  Rav=1.0501 sigma=0.0214  Rmin=1.0131  Rmax=1.0651     4
 O  H  Rav=0.9734 sigma=0.0139  Rmin=0.9512  Rmax=1.0006    11
 S  O  Rav=1.4859 sigma=0.0573  Rmin=1.4488  Rmax=1.5849     4
 
 selected bond angles (degree)
 --------------------
O3-S1-O2=111.66                O4-S1-O2=111.85                O4-S1-O3=113.98                O5-S1-O2=106.67                
O5-S1-O3=106.37                O5-S1-O4=105.70                H6-O5-S1=101.32                H21-O8-H9=106.48               
H11-O10-H7=105.89              
 
 selected dihedral angles (degree)
 ---------------------------------
H6-O5-S1-O2=275.60            H6-O5-S1-O3=156.30            H6-O5-S1-O4= 34.80            
 
 CMA Distance (Angstroems)
 ---------------------------
R(CMA):  3.2860

========================================================================
 FINAL SINGLEPOINT CALCULATION ON OPTIMIZED GEOMETRY
========================================================================

 Ncao       : 65
 Nao        : 64
 Nshell     : 38
 Nel        : 80
 T(el)      :   300.0
 intcut     :    25.0
 scfconv/Eh :  0.100E-05
   qconv/e  :  0.100E-03
 intneglect :  0.100E-07
 broydamp   :      0.250
 iter      E             dE          RMSdq      gap      omega  full diag
   1    -50.7616172 -0.507616E+02  0.415E-05    9.38       0.0  T
   2    -50.7616172 -0.125056E-11  0.275E-05    9.38     714.3  T
   3    -50.7616172 -0.731859E-12  0.642E-06    9.38    3055.5  T
speedup  0.74
cpu  time for SCC    0.00 s
wall time for SCC    0.00 s

   *** convergence criteria satisfied after 3 iterations ***

          eigenvalues
 #    :          28         29         30         31         32         33         34         35
 occ. :        2.000      2.000      2.000      2.000      2.000      2.000      2.000      2.000
 eps  :       -13.547    -13.304    -12.461    -12.264    -12.228    -12.204    -12.185    -12.085
 #    :          36         37         38         39         40         41         42         43
 occ. :        2.000      2.000      2.000      2.000      2.000      0.000      0.000      0.000
 eps  :       -11.995    -11.921    -11.897    -11.799    -11.691     -2.313     -0.651     -0.373
 #    :          44         45         46         47         48         49         50         51
 occ. :        0.000      0.000      0.000      0.000      0.000      0.000      0.000      0.000
 eps  :         0.566      1.114      1.229      1.982      3.260      4.111      4.351      5.057


   #   Z            q   n(s)   n(p)   n(d)      C6AA      α(0)
   1  16 S      1.661  1.583  1.798  0.958    89.651    15.936
   2   8 O     -0.754  1.767  4.987  0.000    30.231     7.372
   3   8 O     -0.708  1.757  4.951  0.000    28.911     7.209
   4   8 O     -0.740  1.773  4.967  0.000    29.826     7.322
   5   8 O     -0.586  1.751  4.835  0.000    24.814     6.725
   6   1 H      0.345  0.655  0.000  0.000     0.591     1.203
   7   1 H      0.331  0.669  0.000  0.000     0.636     1.253
   8   8 O     -0.638  1.753  4.885  0.000    26.110     6.896
   9   1 H      0.281  0.719  0.000  0.000     0.780     1.387
  10   8 O     -0.635  1.745  4.890  0.000    26.042     6.887
  11   1 H      0.289  0.711  0.000  0.000     0.754     1.364
  12   8 O     -0.613  1.756  4.857  0.000    25.490     6.814
  13   1 H      0.327  0.673  0.000  0.000     0.646     1.263
  14   1 H      0.324  0.676  0.000  0.000     0.653     1.269
  15   8 O     -0.618  1.756  4.862  0.000    25.626     6.832
  16   1 H      0.325  0.675  0.000  0.000     0.651     1.267
  17   1 H      0.325  0.675  0.000  0.000     0.651     1.268
  18   8 O     -0.622  1.753  4.868  0.000    25.709     6.843
  19   1 H      0.322  0.678  0.000  0.000     0.658     1.274
  20   1 H      0.315  0.685  0.000  0.000     0.679     1.294
  21   1 H      0.340  0.660  0.000  0.000     0.613     1.231
  22   7 N     -0.360  1.281  4.079  0.000    29.256     8.033
  23   1 H      0.223  0.777  0.000  0.000     0.998     1.565
  24   1 H      0.289  0.711  0.000  0.000     0.746     1.353
  25   1 H      0.287  0.713  0.000  0.000     0.752     1.358
  26   1 H      0.289  0.711  0.000  0.000     0.746     1.353

 Mol. C6AA /au·bohr⁶  :       5447.128449
 Mol. C8AA /au·bohr⁸  :     117941.382676
 Mol. α(0) /au        :        106.574050

 
 Wiberg/Mayer (AO) data. WBOs > 0.1 written file <wbo>
 largest (>0.05) Wiberg bond orders for each atom
           total WBO             WBO to atom ...
     1  S   4.876    O    3 1.336    O    4 1.318    O    2 1.286    O    5 0.895
     2  O   1.710    S    1 1.286    O    3 0.111    O    4 0.107    O    5 0.072    H   19 0.055
     3  O   1.774    S    1 1.336    O    2 0.111    O    4 0.108    H   25 0.106    O    5 0.062
     4  O   1.732    S    1 1.318    O    3 0.108    O    2 0.107    H    7 0.082    O    5 0.075
     5  O   1.976    S    1 0.895    H    6 0.864    O    4 0.075    O    2 0.072    O    3 0.062
     6  H   0.881    O    5 0.864
     7  H   0.891    O   10 0.800    O    4 0.082
     8  O   1.859    H    9 0.913    H   21 0.783
     9  H   0.921    O    8 0.913
    10  O   1.850    H   11 0.909    H    7 0.800
    11  H   0.916    O   10 0.909
    12  O   1.934    H   14 0.853    H   13 0.849    H   24 0.123    N   22 0.062
    13  H   0.893    O   12 0.849
    14  H   0.895    O   12 0.853
    15  O   1.926    H   16 0.852    H   17 0.847    H   26 0.120    N   22 0.059
    16  H   0.894    O   15 0.852
    17  H   0.895    O   15 0.847
    18  O   1.902    H   20 0.874    H   19 0.837    H   21 0.100
    19  H   0.896    O   18 0.837    O    2 0.055
    20  H   0.901    O   18 0.874
    21  H   0.885    O    8 0.783    O   18 0.100
    22  N   3.514    H   23 0.947    H   25 0.804    H   26 0.793    H   24 0.789    O   12 0.062    O   15 0.059
    23  H   0.950    N   22 0.947
    24  H   0.916    N   22 0.789    O   12 0.123
    25  H   0.917    N   22 0.804    O    3 0.106
    26  H   0.916    N   22 0.793    O   15 0.120
 MOs/occ written to file <molden.input>
 
molecular dipole:
                 x           y           z       tot (Debye)
 q only:        1.041      -0.439      -1.234
   full:        0.340       0.050      -0.706       1.996
molecular quadrupole (traceless):
                xx          xy          yy          xz          yz          zz
 q only:        8.555      -1.775      -3.237      -2.016      -0.775      -5.318
  q+dip:        5.944      -1.901      -2.663      -2.292       1.939      -3.281
   full:        5.696      -2.086      -2.867      -2.429       2.175      -2.829

SCC energy    :     -50.7616172
rep           :       0.2889524
ES            :       0.2618025
AES           :      -0.0747697
AXC           :      -0.0085096
disp          :      -0.0193196
XB            :       0.0000000
fix           :       0.0000000
total E       :     -50.4722924
atomizationE  :       5.0025966     3139.18
(atE without considering molecular charge,
 total energy contains solvation terms)
H-L gap (eV)  :          9.3772
optimized geometry written to: xtbopt.xyz


------------------------------------------------------------------------
 * finished run on 2019/09/16 at 11:18:14.389     
------------------------------------------------------------------------
 total:
 * wall-time:     0 d,  0 h,  0 min,  1.775 sec
 *  cpu-time:     0 d,  0 h,  0 min,  1.757 sec
 * ratio c/w:     0.989 speedup
 SCF:
 * wall-time:     0 d,  0 h,  0 min,  0.145 sec
 *  cpu-time:     0 d,  0 h,  0 min,  0.142 sec
 * ratio c/w:     0.981 speedup
 ANC optimizer:
 * wall-time:     0 d,  0 h,  0 min,  1.608 sec
 *  cpu-time:     0 d,  0 h,  0 min,  1.593 sec
 * ratio c/w:     0.991 speedup

