      -----------------------------------------------------------      
     |                   =====================                   |     
     |                           x T B                           |     
     |                   =====================                   |     
     |                         S. Grimme                         |     
     |          Mulliken Center for Theoretical Chemistry        |     
     |                    University of Bonn                     |     
     |                 Version 6.0.1 (SAW181210)                 |     
      -----------------------------------------------------------      

   This program is distributed in the hope that it will be useful,
   but WITHOUT ANY WARRANTY; without even the implied warranty of
   MERCHANTABILITY or FITNESS FOR A PARTICULAR PURPOSE.
   
   FOR NON-COMMERCIAL, ACADEMIA USE ONLY.
   
   Cite this work as:
   S. Grimme, C. Bannwarth, P. Shushkov, J. Comput. Theory Chem., 2017,
   13, 1989-2009.
   C. Bannwarth, S. Ehlert and S. Grimme., ChemRxiv, 2018, preprint.
   http://doi.org/10.26434/chemrxiv.7246238.v1
   
   for sTDA-xTB:
   S. Grimme and C. Bannwarth, J. Chem. Phys., 2016, 145, 054103.
   
   in the mass-spec context:
   V. Asgeirsson, C. Bauer and S. Grimme, Chem. Sci., 2017, 8, 4879.
   
   if GBSA is used:
   P. Shushkov, F. März and S. Grimme, unpublished.
   
   for ANC optimizer:
   S. Grimme, unpublished.
   Rational Function algorithm used in ANCopt:
   F. Eckert, P. Pulay, H.-J. Werner, J. Comput. Chem., 1997, 18, 1473.
   
   with help from (in alphabetical order)
   C. Bannwarth, F. Bohle, G. Brandenburg, E. Caldeweyher, M. Checinski,
   S. Dohm, S. Ehlert, S. Ehrlich, F. März, H. Neugebauer, J. Pisarek,
   P. Pracht, P. Shushkov, and S. Spicher.
   
 * started run on 2019/09/16 at 11:53:45.923     
========================================================================
 # omp threads = 1
========================================================================
number of atoms            : 26
number of electrons        : 80
charge                     : 0
spin                       : .0
first test random number   : .6902

########################################################################
# WARNING! Please study the warnings concerning your input carefully
#  - XTBPATH is not set, using XTBHOME instead
#  - the use of '-opt' is discouraged, please use '--opt' next time
#  - the use of '-chrg' is discouraged, please use '--chrg' next time
#  - the use of '-uhf' is discouraged, please use '--uhf' next time
########################################################################

           ------------------------------------------------- 
          |                 G F N 2 - x T B                 |
          | Geometry, Frequencies, Noncovalent interactions |
          |            JCTC 2018 parametrisation            |
           ------------------------------------------------- 
      method parameters     
 k(s)        :  1.8500
 k(p)        :  2.2300
 k(d)        :  2.2300
 k(f)        :  2.0000
 kEN (H0ij)  : -2.0000
 D4 a1       :  0.5200
 D4 a2       :  5.0000
 D4 s6       :  1.0000
 D4 s8       :  2.7000
 D4 s9       :  5.0000
 alphaj      :  2.0000


            Z     q(EN)     CN     RAES       Cart. coordinates
     1  S   6.0    0.58    4.28    4.19    -1.09066     3.39618     5.77104
     2  O   6.0   -0.31    1.13    1.80     0.45589     4.18215     3.63285
     3  O   6.0   -0.27    1.09    1.80    -0.13443     3.25338     8.32111
     4  O   6.0   -0.23    2.02    1.83    -3.66796     5.09830     5.69548
     5  O   6.0   -0.23    2.07    1.83    -2.37688     0.69173     5.22400
     6  H   1.0    0.18    1.30    1.50    -2.92854     0.62449     3.46972
     7  H   1.0    0.14    1.12    1.45    -3.21350     6.74297     5.00636
     8  O   6.0   -0.42    1.74    1.81     2.85725    -1.50292    -1.72193
     9  H   1.0    0.17    0.95    1.42     4.43679    -2.13189    -0.95173
    10  O   6.0   -0.39    1.66    1.81    -3.38019     0.72291     0.69808
    11  H   1.0    0.18    0.95    1.42    -5.15925     1.11541     0.29229
    12  O   6.0   -0.28    1.98    1.82     0.86371    -4.43059    -4.90049
    13  H   1.0    0.17    1.12    1.45     1.75917    -3.37045    -3.72198
    14  H   1.0    0.15    0.97    1.43     1.46273    -3.93373    -6.54637
    15  O   6.0   -0.27    1.96    1.82     4.44219    -0.44875    -6.05848
    16  H   1.0    0.14    0.97    1.43     6.23248    -0.16735    -5.88443
    17  H   1.0    0.17    1.12    1.45     3.84588    -0.81007    -4.37667
    18  O   6.0   -0.22    2.93    2.62     0.46534     2.32032    -1.10401
    19  H   1.0    0.17    1.19    1.46    -1.26331     1.77278    -0.65477
    20  H   1.0    0.15    1.00    1.43     1.22274     3.40253     0.21704
    21  H   1.0    0.16    1.20    1.46     1.56606     0.87431    -1.53868
    22  N   5.0   -0.15    3.97    2.79    -1.27910    -3.48034    -0.17369
    23  H   1.0    0.09    0.99    1.43    -1.98735    -4.44331    -1.70846
    24  H   1.0    0.12    1.13    1.45     0.52604    -2.87108    -0.56704
    25  H   1.0    0.12    1.14    1.45    -2.41244    -1.94613     0.20863
    26  H   1.0    0.09    0.99    1.43    -1.24265    -4.66085     1.37211

  Z AO/shell   Hii/eV     exponent
  1     Wed Apr 25 08:07:45 CEST 2018   EN: 2.200 GM2: 0.406  GM3: 0.0800  RAES: 1.40
     1s    -10.707211    1.230000
  7     Wed Apr 25 08:07:45 CEST 2018   EN: 3.040 GM2: 0.461  GM3:-0.0640  RAES: 1.90
     2s    -16.686243    2.339881
     2p    -12.523956    2.014332
  8     Wed Apr 25 08:07:45 CEST 2018   EN: 3.440 GM2: 0.452  GM3:-0.0517  RAES: 1.80
     2s    -20.229985    2.439742
     2p    -15.503117    2.137023
 16     Tue Apr 24 11:44:34 CEST 2018   EN: 2.580 GM2: 0.340  GM3:-0.0502  RAES: 3.10
     3s    -20.029654    1.981333
     3p    -11.377694    2.025643
     3d     -0.420282    1.702555
 no old-style atom pair restraining (fixing) potential

molecular fragmentation (1/2 indicates fragments):
11111112222222222222222222
# atoms in fragment 1/2:     7    19
 fragment masses (1/2) :       98.07      107.11
CMA distance (Bohr)    :   9.307
constraining FC (au)   :  0.0500
           ------------------------------------------------- 
          |        Self-Consistent Charge Iterations        |
           ------------------------------------------------- 

 Ncao       : 65
 Nao        : 64
 Nshell     : 38
 Nel        : 80
 T(el)      :   300.0
 intcut     :    25.0
 scfconv/Eh :  0.100E-05
   qconv/e  :  0.100E-03
 intneglect :  0.100E-07
 broydamp   :      0.250
 iter      E             dE          RMSdq      gap      omega  full diag
   1    -50.5265241 -0.505265E+02  0.714E+00    8.14       0.0  T
   2    -50.5797944 -0.532702E-01  0.501E+00    7.31       1.0  T
   3    -50.6224312 -0.426368E-01  0.120E+00    5.34       1.0  T
   4    -50.6260093 -0.357815E-02  0.677E-01    5.47       1.0  T
   5    -50.6274304 -0.142104E-02  0.272E-01    5.49       1.0  T
   6    -50.6277513 -0.320903E-03  0.167E-01    5.52       1.0  T
   7    -50.6279269 -0.175633E-03  0.442E-02    5.52       1.0  T
   8    -50.6279369 -0.100355E-04  0.244E-02    5.52       1.0  T
   9    -50.6279396 -0.268376E-05  0.114E-02    5.53       1.7  T
  10    -50.6279403 -0.686464E-06  0.274E-03    5.53       7.1  T
  11    -50.6279403 -0.192840E-07  0.132E-03    5.53      14.9  T
  12    -50.6279403 -0.756059E-08  0.389E-04    5.53      50.5  T
  13    -50.6279403 -0.565485E-09  0.175E-04    5.53     112.2  T
speedup  1.01
cpu  time for SCC    0.01 s
wall time for SCC    0.01 s

   *** convergence criteria satisfied after 13 iterations ***

          eigenvalues
 #    :          28         29         30         31         32         33         34         35
 occ. :        2.000      2.000      2.000      2.000      2.000      2.000      2.000      2.000
 eps  :       -13.221    -13.062    -12.934    -12.870    -12.740    -12.725    -12.551    -11.016
 #    :          36         37         38         39         40         41         42         43
 occ. :        2.000      2.000      2.000      2.000      2.000      0.000      0.000      0.000
 eps  :       -10.851    -10.838    -10.804    -10.713    -10.583     -5.051     -2.313     -1.338
 #    :          44         45         46         47         48         49         50         51
 occ. :        0.000      0.000      0.000      0.000      0.000      0.000      0.000      0.000
 eps  :        -1.306      0.363      0.613      1.801      2.866      3.361      3.617      4.420


   #   Z            q   n(s)   n(p)   n(d)      C6AA      α(0)
   1  16 S      1.623  1.629  1.814  0.934    90.531    16.014
   2   8 O     -0.675  1.763  4.912  0.000    28.025     7.098
   3   8 O     -0.612  1.772  4.841  0.000    26.423     6.892
   4   8 O     -0.566  1.761  4.805  0.000    24.354     6.662
   5   8 O     -0.596  1.761  4.836  0.000    25.068     6.759
   6   1 H      0.384  0.616  0.000  0.000     0.511     1.121
   7   1 H      0.344  0.656  0.000  0.000     0.601     1.216
   8   8 O     -0.846  1.832  5.015  0.000    33.001     7.703
   9   1 H      0.221  0.779  0.000  0.000     1.015     1.583
  10   8 O     -0.855  1.828  5.026  0.000    33.265     7.734
  11   1 H      0.218  0.782  0.000  0.000     1.033     1.597
  12   8 O     -0.668  1.755  4.913  0.000    26.876     6.997
  13   1 H      0.324  0.676  0.000  0.000     0.651     1.267
  14   1 H      0.279  0.721  0.000  0.000     0.787     1.393
  15   8 O     -0.646  1.760  4.886  0.000    26.309     6.923
  16   1 H      0.251  0.749  0.000  0.000     0.889     1.481
  17   1 H      0.322  0.678  0.000  0.000     0.657     1.273
  18   8 O     -0.461  1.663  4.798  0.000    22.008     6.336
  19   1 H      0.402  0.598  0.000  0.000     0.475     1.079
  20   1 H      0.374  0.626  0.000  0.000     0.535     1.149
  21   1 H      0.408  0.592  0.000  0.000     0.464     1.067
  22   7 N     -0.319  1.267  4.051  0.000    28.178     7.884
  23   1 H      0.260  0.740  0.000  0.000     0.846     1.441
  24   1 H      0.309  0.691  0.000  0.000     0.687     1.298
  25   1 H      0.302  0.698  0.000  0.000     0.707     1.316
  26   1 H      0.223  0.777  0.000  0.000     0.998     1.565

 Mol. C6AA /au·bohr⁶  :       5479.644962
 Mol. C8AA /au·bohr⁸  :     118618.320228
 Mol. α(0) /au        :        106.848778

 
 Wiberg/Mayer (AO) data. WBOs > 0.1 written file <wbo>
 largest (>0.05) Wiberg bond orders for each atom
           total WBO             WBO to atom ...
     1  S   4.796    O    3 1.493    O    2 1.388    O    5 1.002    O    4 0.887
     2  O   1.759    S    1 1.388    O    3 0.140    O    5 0.102    O    4 0.090
     3  O   1.829    S    1 1.493    O    2 0.140    O    4 0.091    O    5 0.091
     4  O   1.988    S    1 0.887    H    7 0.863    O    3 0.091    O    2 0.090    O    5 0.054
     5  O   1.988    S    1 1.002    H    6 0.676    O    2 0.102    O    3 0.091    O    4 0.054    O   10 0.052
     6  H   0.853    O    5 0.676    O   10 0.162
     7  H   0.882    O    4 0.863
     8  O   1.636    H    9 0.935    H   21 0.170    H   24 0.133    H   17 0.099    H   13 0.089    N   22 0.062    O   18 0.052
     9  H   0.951    O    8 0.935
    10  O   1.618    H   11 0.940    H   19 0.179    H    6 0.162    H   25 0.147    N   22 0.067    O   18 0.057    O    5 0.052
    11  H   0.953    O   10 0.940
    12  O   1.778    H   14 0.915    H   13 0.795
    13  H   0.895    O   12 0.795    O    8 0.089
    14  H   0.922    O   12 0.915
    15  O   1.785    H   16 0.935    H   17 0.790
    16  H   0.937    O   15 0.935
    17  H   0.896    O   15 0.790    O    8 0.099
    18  O   2.274    H   20 0.825    H   21 0.655    H   19 0.653    O   10 0.057    O    8 0.052
    19  H   0.838    O   18 0.653    O   10 0.179
    20  H   0.860    O   18 0.825
    21  H   0.833    O   18 0.655    O    8 0.170
    22  N   3.531    H   26 0.945    H   23 0.921    H   24 0.761    H   25 0.757    O   10 0.067    O    8 0.062
    23  H   0.932    N   22 0.921
    24  H   0.905    N   22 0.761    O    8 0.133
    25  H   0.909    N   22 0.757    O   10 0.147
    26  H   0.950    N   22 0.945
 MOs/occ written to file <molden.input>
 
molecular dipole:
                 x           y           z       tot (Debye)
 q only:       -0.642      -0.142       0.020
   full:       -0.464       0.052       0.198       1.291
molecular quadrupole (traceless):
                xx          xy          yy          xz          yz          zz
 q only:        8.544       2.464      22.916       7.096      -8.551     -31.460
  q+dip:       14.639      -0.484      23.255       5.391      -7.476     -37.894
   full:       14.899      -0.403      23.109       5.532      -7.419     -38.009

SCC energy    :     -50.6279403
rep           :       0.2775417
ES            :       0.3057124
AES           :      -0.0512931
AXC           :      -0.0049035
disp          :      -0.0165140
XB            :       0.0000000
fix           :       0.0000000
total E       :     -50.3502739
atomizationE  :       4.8805781     3062.61
(atE without considering molecular charge,
 total energy contains solvation terms)
H-L gap (eV)  :          5.5313
           ------------------------------------------------- 
          |                 ===============                 |
          |                   A N C O P T                   |
          |                 ===============                 |
          |          Approximate Normal Coordinate          |
          |           Rational Function Optimizer           |
           ------------------------------------------------- 
dumping coords to <xtbopt.coord> and <xtbopt.log>
 optlevel               2
 Maxcycle             520
 Maxmicro              25
 Econv         1.000000000000000E-007
 Gconv         2.000000000000000E-004
 Maxdispl       1.00000000000000     
 Hlow          5.000000000000000E-003
 S6             20.0000000000000     
 Nvar               72

generating ANC from model Hessian ...
 Shifting diagonal of input Hessian by   6.566281534367992E-003
 Lowest  eigenvalues of input Hessian
    0.005000    0.006363   -0.000000   -0.000000   -0.000000    0.000000
    0.000000    0.000000    0.006574    0.006723    0.006796    0.007342
    0.007456    0.007768    0.007804    0.008766    0.008989    0.009524
 Highest eigenvalues
    1.444692    1.568973    1.602067    1.952139    2.769297    3.591089
 
cpu  time for ANC gen    0.01 s
wall time for ANC gen    0.01 s
................................................................................
.............................. CYCLE    1 ......................................
................................................................................
   1    -50.6279403 -0.506279E+02  0.470E-05    5.53       0.0  T
   2    -50.6279403 -0.296296E-11  0.365E-05    5.53     537.2  T
   3    -50.6279403 -0.371614E-11  0.143E-05    5.53    1370.9  T
speedup  1.03
cpu  time for SCC    0.00 s
wall time for SCC    0.00 s
speedup  1.03
cpu  time for grad    0.01 s
wall time for grad    0.01 s
 E :    -50.35027388  G :  0.183306    pred/act E change:  0.000D+00  0.220D-07
Maxdispl :   0.0857   ||displ|| :   0.3080   Lambda : -0.336D-01
Largest |displ|/coords:  0.0857 (  23)  0.0822 (  55)  0.0813 (  24)
................................................................................
.............................. CYCLE    2 ......................................
................................................................................
   1    -50.6448752 -0.506449E+02  0.299E-01    6.27       0.0  T
   2    -50.6451177 -0.242493E-03  0.216E-01    6.28       1.0  T
   3    -50.6452296 -0.111849E-03  0.687E-02    6.29       1.0  T
   4    -50.6452431 -0.134807E-04  0.250E-02    6.31       1.0  T
   5    -50.6452440 -0.884924E-06  0.668E-03    6.31       2.9  T
   6    -50.6452441 -0.994303E-07  0.338E-03    6.31       5.8  T
   7    -50.6452441 -0.192732E-07  0.152E-03    6.31      12.9  T
speedup  0.81
cpu  time for SCC    0.01 s
wall time for SCC    0.01 s
speedup  0.93
cpu  time for grad    0.01 s
wall time for grad    0.01 s
 E :    -50.37549560  G :  0.097050    pred/act E change:  0.000D+00 -0.252D-01
Maxdispl :   0.1083   ||displ|| :   0.3040   Lambda : -0.130D-01
Largest |displ|/coords:  0.1083 (  16)  0.1076 (  22)  0.0918 (  24)
................................................................................
.............................. CYCLE    3 ......................................
................................................................................
   1    -50.6535886 -0.506536E+02  0.246E-01    6.85       0.0  T
   2    -50.6537676 -0.179019E-03  0.177E-01    6.89       1.0  T
   3    -50.6538408 -0.732263E-04  0.591E-02    6.96       1.0  T
   4    -50.6538501 -0.930735E-05  0.189E-02    6.97       1.0  T
   5    -50.6538508 -0.677046E-06  0.447E-03    6.97       4.4  T
   6    -50.6538509 -0.430237E-07  0.255E-03    6.97       7.7  T
speedup  1.11
cpu  time for SCC    0.01 s
wall time for SCC    0.01 s
speedup  1.04
cpu  time for grad    0.01 s
wall time for grad    0.01 s
 E :    -50.38595762  G :  0.061818    pred/act E change: -0.184D-01 -0.105D-01
Maxdispl :   0.1198   ||displ|| :   0.2918   Lambda : -0.668D-02
Largest |displ|/coords:  0.1198 (  22)  0.0992 (  24)  0.0846 (  25)
................................................................................
.............................. CYCLE    4 ......................................
................................................................................
   1    -50.6572680 -0.506573E+02  0.224E-01    7.34       0.0  T
   2    -50.6574075 -0.139545E-03  0.162E-01    7.39       1.0  T
   3    -50.6574639 -0.563771E-04  0.536E-02    7.48       1.0  T
   4    -50.6574721 -0.824434E-05  0.160E-02    7.49       1.2  T
   5    -50.6574727 -0.604055E-06  0.389E-03    7.48       5.0  T
   6    -50.6574728 -0.276522E-07  0.223E-03    7.48       8.8  T
speedup  0.94
cpu  time for SCC    0.00 s
wall time for SCC    0.01 s
speedup  0.96
cpu  time for grad    0.01 s
wall time for grad    0.01 s
 E :    -50.39154902  G :  0.044093    pred/act E change: -0.712D-02 -0.559D-02
Maxdispl :   0.1930   ||displ|| :   0.4805   Lambda : -0.862D-02
Largest |displ|/coords:  0.1930 (  22)  0.1864 (  24)  0.1651 (  25)
................................................................................
.............................. CYCLE    5 ......................................
................................................................................
   1    -50.6614568 -0.506615E+02  0.398E-01    8.04       0.0  T
   2    -50.6620204 -0.563625E-03  0.283E-01    8.13       1.0  T
   3    -50.6622502 -0.229819E-03  0.102E-01    8.28       1.0  T
   4    -50.6622769 -0.266921E-04  0.275E-02    8.31       1.0  T
   5    -50.6622785 -0.161882E-05  0.785E-03    8.31       2.5  T
   6    -50.6622786 -0.904474E-07  0.447E-03    8.31       4.4  T
   7    -50.6622786 -0.395806E-07  0.164E-03    8.31      11.9  T
speedup  0.95
cpu  time for SCC    0.01 s
wall time for SCC    0.01 s
speedup  0.96
cpu  time for grad    0.01 s
wall time for grad    0.01 s
 E :    -50.39726685  G :  0.033544    pred/act E change: -0.363D-02 -0.572D-02
Maxdispl :   0.1435   ||displ|| :   0.3930   Lambda : -0.332D-02
Largest |displ|/coords:  0.1435 (   8)  0.1146 (   9)  0.1062 (  19)
................................................................................
.............................. CYCLE    6 ......................................
................................................................................
   1    -50.6614373 -0.506614E+02  0.331E-01    8.48       0.0  T
   2    -50.6616357 -0.198408E-03  0.243E-01    8.54       1.0  T
   3    -50.6617186 -0.828843E-04  0.707E-02    8.67       1.0  T
   4    -50.6617392 -0.206062E-04  0.145E-02    8.68       1.3  T
   5    -50.6617397 -0.423005E-06  0.608E-03    8.68       3.2  T
   6    -50.6617397 -0.398540E-07  0.308E-03    8.68       6.4  T
   7    -50.6617397 -0.129029E-07  0.112E-03    8.67      17.6  T
speedup  0.92
cpu  time for SCC    0.01 s
wall time for SCC    0.01 s
speedup  0.93
cpu  time for grad    0.01 s
wall time for grad    0.01 s
 E :    -50.39963112  G :  0.037995    pred/act E change: -0.530D-02 -0.236D-02
Maxdispl :   0.1905   ||displ|| :   0.5380   Lambda : -0.485D-02
Largest |displ|/coords:  0.1905 (  25)  0.1658 (   1)  0.1469 (  19)
................................................................................
.............................. CYCLE    7 ......................................
................................................................................
   1    -50.6674831 -0.506675E+02  0.499E-01    8.74       0.0  T
   2    -50.6678872 -0.404078E-03  0.368E-01    8.84       1.0  T
   3    -50.6680646 -0.177404E-03  0.109E-01    9.05       1.0  T
   4    -50.6681091 -0.444842E-04  0.209E-02    9.05       1.0  T
   5    -50.6681101 -0.103111E-05  0.101E-02    9.06       1.9  T
   6    -50.6681102 -0.103521E-06  0.529E-03    9.05       3.7  T
   7    -50.6681103 -0.412217E-07  0.167E-03    9.05      11.7  T
speedup  0.94
cpu  time for SCC    0.01 s
wall time for SCC    0.01 s
speedup  0.96
cpu  time for grad    0.01 s
wall time for grad    0.01 s
 E :    -50.40245485  G :  0.049498    pred/act E change: -0.191D-02 -0.282D-02
Maxdispl :   0.1912   ||displ|| :   0.4659   Lambda : -0.489D-02
Largest |displ|/coords:  0.1912 (  25)  0.1523 (   8)  0.1337 (  23)
................................................................................
.............................. CYCLE    8 ......................................
................................................................................
   1    -50.6708592 -0.506709E+02  0.341E-01    8.82       0.0  T
   2    -50.6710664 -0.207151E-03  0.252E-01    8.83       1.0  T
   3    -50.6711680 -0.101638E-03  0.947E-02    8.82       1.0  T
   4    -50.6711861 -0.180394E-04  0.234E-02    8.81       1.0  T
   5    -50.6711876 -0.157696E-05  0.787E-03    8.81       2.5  T
   6    -50.6711877 -0.835288E-07  0.433E-03    8.81       4.5  T
   7    -50.6711878 -0.304529E-07  0.140E-03    8.81      14.0  T
speedup  0.97
cpu  time for SCC    0.01 s
wall time for SCC    0.01 s
speedup  0.97
cpu  time for grad    0.01 s
wall time for grad    0.01 s
 E :    -50.40641477  G :  0.052520    pred/act E change: -0.313D-02 -0.396D-02
Maxdispl :   0.1239   ||displ|| :   0.3777   Lambda : -0.431D-02
Largest |displ|/coords:  0.1239 (  25)  0.1205 (   6)  0.1008 (  23)
................................................................................
.............................. CYCLE    9 ......................................
................................................................................
   1    -50.6733647 -0.506734E+02  0.334E-01    8.71       0.0  T
   2    -50.6734954 -0.130691E-03  0.254E-01    8.71       1.0  T
   3    -50.6735640 -0.685914E-04  0.738E-02    8.71       1.0  T
   4    -50.6735806 -0.166086E-04  0.207E-02    8.70       1.0  T
   5    -50.6735817 -0.112613E-05  0.655E-03    8.70       3.0  T
   6    -50.6735817 -0.472357E-07  0.366E-03    8.70       5.4  T
   7    -50.6735818 -0.237111E-07  0.113E-03    8.70      17.4  T
speedup  0.98
cpu  time for SCC    0.01 s
wall time for SCC    0.01 s
speedup  0.98
cpu  time for grad    0.01 s
wall time for grad    0.01 s
 E :    -50.40971191  G :  0.063452    pred/act E change: -0.298D-02 -0.330D-02
Maxdispl :   0.1650   ||displ|| :   0.4152   Lambda : -0.635D-02
Largest |displ|/coords:  0.1650 (  25)  0.1297 (   7)  0.1126 (   8)
................................................................................
.............................. CYCLE   10 ......................................
................................................................................
   1    -50.6874459 -0.506874E+02  0.363E-01    8.68       0.0  T
   2    -50.6876843 -0.238369E-03  0.270E-01    8.67       1.0  T
   3    -50.6878140 -0.129743E-03  0.879E-02    8.65       1.0  T
   4    -50.6878377 -0.236658E-04  0.235E-02    8.64       1.0  T
   5    -50.6878392 -0.145338E-05  0.889E-03    8.64       2.2  T
   6    -50.6878392 -0.881994E-07  0.499E-03    8.64       3.9  T
   7    -50.6878393 -0.273667E-07  0.120E-03    8.64      16.4  T
speedup  0.98
cpu  time for SCC    0.01 s
wall time for SCC    0.01 s
speedup  0.98
cpu  time for grad    0.01 s
wall time for grad    0.01 s
 E :    -50.41364935  G :  0.061686    pred/act E change: -0.246D-02 -0.394D-02
Maxdispl :   0.0924   ||displ|| :   0.3006   Lambda : -0.634D-02
Largest |displ|/coords:  0.0924 (   3)  0.0808 (   6)  0.0730 (  13)
................................................................................
.............................. CYCLE   11 ......................................
................................................................................
   1    -50.6976205 -0.506976E+02  0.263E-01    8.65       0.0  T
   2    -50.6976991 -0.785720E-04  0.200E-01    8.64       1.0  T
   3    -50.6977512 -0.521380E-04  0.540E-02    8.62       1.0  T
   4    -50.6977614 -0.102360E-04  0.178E-02    8.62       1.1  T
   5    -50.6977620 -0.548946E-06  0.556E-03    8.62       3.5  T
   6    -50.6977620 -0.413977E-07  0.294E-03    8.62       6.7  T
speedup  0.94
cpu  time for SCC    0.00 s
wall time for SCC    0.01 s
speedup  1.04
cpu  time for grad    0.01 s
wall time for grad    0.01 s
 E :    -50.41766328  G :  0.054339    pred/act E change: -0.372D-02 -0.401D-02
Maxdispl :   0.1148   ||displ|| :   0.3161   Lambda : -0.566D-02
Largest |displ|/coords:  0.1148 (   8)  0.1053 (   2)  0.0996 (  11)
................................................................................
.............................. CYCLE   12 ......................................
................................................................................
   1    -50.6871878 -0.506872E+02  0.314E-01    8.68       0.0  T
   2    -50.6873045 -0.116710E-03  0.231E-01    8.66       1.0  T
   3    -50.6873749 -0.704680E-04  0.601E-02    8.61       1.0  T
   4    -50.6873879 -0.129521E-04  0.125E-02    8.62       1.6  T
   5    -50.6873881 -0.167821E-06  0.590E-03    8.62       3.3  T
   6    -50.6873881 -0.576688E-07  0.211E-03    8.62       9.3  T
speedup  0.94
cpu  time for SCC    0.00 s
wall time for SCC    0.01 s
speedup  0.96
cpu  time for grad    0.01 s
wall time for grad    0.01 s
 E :    -50.41874999  G :  0.062626    pred/act E change: -0.346D-02 -0.109D-02
Maxdispl :   0.1649   ||displ|| :   0.3716   Lambda : -0.102D-01
Largest |displ|/coords:  0.1649 (  11)  0.1326 (   7)  0.1250 (  10)
................................................................................
.............................. CYCLE   13 ......................................
................................................................................
   1    -50.7196494 -0.507196E+02  0.464E-01    8.71       0.0  T
   2    -50.7198448 -0.195382E-03  0.346E-01    8.70       1.0  T
   3    -50.7199657 -0.120967E-03  0.814E-02    8.69       1.0  T
   4    -50.7199877 -0.219066E-04  0.179E-02    8.69       1.1  T
   5    -50.7199884 -0.731140E-06  0.771E-03    8.69       2.5  T
   6    -50.7199884 -0.217537E-07  0.395E-03    8.69       5.0  T
   7    -50.7199884 -0.234528E-07  0.677E-04    8.69      29.0  T
speedup  0.98
cpu  time for SCC    0.01 s
wall time for SCC    0.01 s
speedup  1.04
cpu  time for grad    0.01 s
wall time for grad    0.01 s
 E :    -50.41981078  G :  0.067893    pred/act E change: -0.311D-02 -0.106D-02
Maxdispl :   0.1172   ||displ|| :   0.3179   Lambda : -0.905D-02
Largest |displ|/coords:  0.1172 (   3)  0.1110 (   4)  0.1025 (  11)
................................................................................
.............................. CYCLE   14 ......................................
................................................................................
   1    -50.6925279 -0.506925E+02  0.350E-01    8.66       0.0  T
   2    -50.6926451 -0.117248E-03  0.259E-01    8.66       1.0  T
   3    -50.6927203 -0.751180E-04  0.623E-02    8.65       1.0  T
   4    -50.6927325 -0.122742E-04  0.119E-02    8.66       1.6  T
   5    -50.6927327 -0.158878E-06  0.590E-03    8.66       3.3  T
   6    -50.6927327 -0.434911E-07  0.244E-03    8.66       8.0  T
speedup  0.94
cpu  time for SCC    0.00 s
wall time for SCC    0.01 s
speedup  0.96
cpu  time for grad    0.01 s
wall time for grad    0.01 s
 E :    -50.42214450  G :  0.048985    pred/act E change: -0.578D-02 -0.233D-02
Maxdispl :   0.0855   ||displ|| :   0.1898   Lambda : -0.340D-02
Largest |displ|/coords:  0.0855 (  16)  0.0654 (  21)  0.0538 (   7)
................................................................................
.............................. CYCLE   15 ......................................
................................................................................
   1    -50.7072439 -0.507072E+02  0.147E-01    8.72       0.0  T
   2    -50.7072829 -0.389682E-04  0.109E-01    8.70       1.0  T
   3    -50.7073088 -0.258783E-04  0.340E-02    8.65       1.0  T
   4    -50.7073124 -0.366601E-05  0.918E-03    8.65       2.1  T
   5    -50.7073126 -0.155528E-06  0.382E-03    8.65       5.1  T
   6    -50.7073126 -0.117024E-07  0.183E-03    8.65      10.7  T
speedup  1.11
cpu  time for SCC    0.01 s
wall time for SCC    0.01 s
speedup  1.03
cpu  time for grad    0.01 s
wall time for grad    0.01 s
 E :    -50.42391899  G :  0.031211    pred/act E change: -0.498D-02 -0.177D-02
Maxdispl :   0.1150   ||displ|| :   0.3006   Lambda : -0.347D-02
Largest |displ|/coords:  0.1150 (  19)  0.1124 (   4)  0.1042 (  10)
................................................................................
.............................. CYCLE   16 ......................................
................................................................................
   1    -50.7186512 -0.507187E+02  0.222E-01    8.69       0.0  T
   2    -50.7187097 -0.585344E-04  0.161E-01    8.69       1.0  T
   3    -50.7187454 -0.356951E-04  0.443E-02    8.68       1.0  T
   4    -50.7187501 -0.470894E-05  0.126E-02    8.68       1.6  T
   5    -50.7187504 -0.268548E-06  0.423E-03    8.68       4.6  T
   6    -50.7187504 -0.208571E-07  0.217E-03    8.68       9.0  T
speedup  0.93
cpu  time for SCC    0.00 s
wall time for SCC    0.01 s
speedup  1.03
cpu  time for grad    0.01 s
wall time for grad    0.01 s
 E :    -50.42505253  G :  0.041719    pred/act E change: -0.176D-02 -0.113D-02
Maxdispl :   0.0981   ||displ|| :   0.2156   Lambda : -0.224D-02
Largest |displ|/coords:  0.0981 (   4)  0.0652 (  25)  0.0607 (  10)
................................................................................
.............................. CYCLE   17 ......................................
................................................................................
   1    -50.7176943 -0.507177E+02  0.147E-01    8.71       0.0  T
   2    -50.7177090 -0.146281E-04  0.109E-01    8.70       1.0  T
   3    -50.7177199 -0.109217E-04  0.239E-02    8.68       1.0  T
   4    -50.7177215 -0.160980E-05  0.660E-03    8.68       3.0  T
   5    -50.7177216 -0.706287E-07  0.258E-03    8.68       7.6  T
   6    -50.7177216 -0.904775E-08  0.146E-03    8.68      13.4  T
speedup  0.93
cpu  time for SCC    0.01 s
wall time for SCC    0.01 s
speedup  0.96
cpu  time for grad    0.01 s
wall time for grad    0.01 s
 E :    -50.42677609  G :  0.018971    pred/act E change: -0.189D-02 -0.172D-02
Maxdispl :   0.1491   ||displ|| :   0.4739   Lambda : -0.301D-02
Largest |displ|/coords:  0.1491 (   7)  0.1428 (   6)  0.1351 (  25)
................................................................................
.............................. CYCLE   18 ......................................
................................................................................
   1    -50.7094262 -0.507094E+02  0.311E-01    8.72       0.0  T
   2    -50.7094861 -0.598424E-04  0.226E-01    8.70       1.0  T
   3    -50.7095254 -0.393021E-04  0.497E-02    8.66       1.0  T
   4    -50.7095310 -0.562806E-05  0.135E-02    8.67       1.5  T
   5    -50.7095313 -0.312473E-06  0.479E-03    8.67       4.1  T
   6    -50.7095313 -0.398651E-07  0.279E-03    8.67       7.0  T
   7    -50.7095314 -0.131069E-07  0.804E-04    8.67      24.4  T
speedup  1.11
cpu  time for SCC    0.01 s
wall time for SCC    0.01 s
speedup  1.03
cpu  time for grad    0.01 s
wall time for grad    0.01 s
 E :    -50.42819766  G :  0.033362    pred/act E change: -0.117D-02 -0.142D-02
Maxdispl :   0.2002   ||displ|| :   0.4203   Lambda : -0.228D-02
Largest |displ|/coords:  0.2002 (   4)  0.1496 (  19)  0.1383 (  10)
................................................................................
.............................. CYCLE   19 ......................................
................................................................................
   1    -50.7189548 -0.507190E+02  0.258E-01    8.72       0.0  T
   2    -50.7189766 -0.217776E-04  0.190E-01    8.72       1.0  T
   3    -50.7189939 -0.173835E-04  0.366E-02    8.72       1.0  T
   4    -50.7189960 -0.204232E-05  0.126E-02    8.72       1.6  T
   5    -50.7189962 -0.208522E-06  0.309E-03    8.72       6.4  T
   6    -50.7189962 -0.101309E-07  0.202E-03    8.72       9.7  T
speedup  1.11
cpu  time for SCC    0.01 s
wall time for SCC    0.01 s
speedup  1.03
cpu  time for grad    0.01 s
wall time for grad    0.01 s
 E :    -50.42922851  G :  0.029307    pred/act E change: -0.184D-02 -0.103D-02
Maxdispl :   0.1881   ||displ|| :   0.3750   Lambda : -0.191D-02
Largest |displ|/coords:  0.1881 (   4)  0.1489 (  10)  0.1034 (  25)
................................................................................
.............................. CYCLE   20 ......................................
................................................................................
   1    -50.7189773 -0.507190E+02  0.217E-01    8.71       0.0  T
   2    -50.7190220 -0.446683E-04  0.162E-01    8.70       1.0  T
   3    -50.7190544 -0.324681E-04  0.377E-02    8.67       1.0  T
   4    -50.7190597 -0.526961E-05  0.942E-03    8.67       2.1  T
   5    -50.7190598 -0.925586E-07  0.400E-03    8.67       4.9  T
   6    -50.7190598 -0.155610E-07  0.172E-03    8.67      11.4  T
speedup  1.09
cpu  time for SCC    0.01 s
wall time for SCC    0.01 s
speedup  1.01
cpu  time for grad    0.01 s
wall time for grad    0.01 s
 E :    -50.42920507  G :  0.048729    pred/act E change: -0.134D-02  0.234D-04
Maxdispl :   0.1018   ||displ|| :   0.2436   Lambda : -0.375D-02
Largest |displ|/coords:  0.1018 (  23)  0.0878 (  19)  0.0809 (   7)
................................................................................
.............................. CYCLE   21 ......................................
................................................................................
   1    -50.7200424 -0.507200E+02  0.190E-01    8.68       0.0  T
   2    -50.7200871 -0.446495E-04  0.142E-01    8.70       1.0  T
   3    -50.7201133 -0.262398E-04  0.377E-02    8.74       1.0  T
   4    -50.7201182 -0.486723E-05  0.147E-02    8.74       1.3  T
   5    -50.7201186 -0.419553E-06  0.388E-03    8.74       5.1  T
   6    -50.7201186 -0.166653E-07  0.213E-03    8.74       9.2  T
speedup  1.11
cpu  time for SCC    0.01 s
wall time for SCC    0.01 s
speedup  1.02
cpu  time for grad    0.01 s
wall time for grad    0.01 s
 E :    -50.43076658  G :  0.027934    pred/act E change: -0.109D-02 -0.156D-02
Maxdispl :   0.1350   ||displ|| :   0.3151   Lambda : -0.258D-02
Largest |displ|/coords:  0.1350 (  14)  0.1118 (  19)  0.0932 (   7)
................................................................................
.............................. CYCLE   22 ......................................
................................................................................
   1    -50.7248991 -0.507249E+02  0.222E-01    8.84       0.0  T
   2    -50.7249372 -0.381551E-04  0.165E-01    8.83       1.0  T
   3    -50.7249555 -0.182278E-04  0.362E-02    8.82       1.0  T
   4    -50.7249604 -0.498943E-05  0.833E-03    8.83       2.4  T
   5    -50.7249606 -0.150927E-06  0.308E-03    8.83       6.4  T
   6    -50.7249606 -0.794356E-08  0.157E-03    8.83      12.5  T
speedup  1.11
cpu  time for SCC    0.01 s
wall time for SCC    0.01 s
speedup  1.02
cpu  time for grad    0.01 s
wall time for grad    0.01 s
 E :    -50.43117901  G :  0.035905    pred/act E change: -0.199D-02 -0.412D-03
Maxdispl :   0.1481   ||displ|| :   0.3112   Lambda : -0.246D-02
Largest |displ|/coords:  0.1481 (   4)  0.1043 (  10)  0.0832 (   6)
................................................................................
.............................. CYCLE   23 ......................................
................................................................................
   1    -50.7238713 -0.507239E+02  0.174E-01    8.78       0.0  T
   2    -50.7238861 -0.147655E-04  0.130E-01    8.78       1.0  T
   3    -50.7238958 -0.971865E-05  0.245E-02    8.78       1.0  T
   4    -50.7238976 -0.180168E-05  0.794E-03    8.78       2.5  T
   5    -50.7238977 -0.948603E-07  0.246E-03    8.78       8.0  T
   6    -50.7238977 -0.801752E-08  0.132E-03    8.78      14.9  T
speedup  1.11
cpu  time for SCC    0.01 s
wall time for SCC    0.01 s
speedup  1.02
cpu  time for grad    0.01 s
wall time for grad    0.01 s
 E :    -50.43270434  G :  0.019176    pred/act E change: -0.142D-02 -0.153D-02
Maxdispl :   0.1693   ||displ|| :   0.3672   Lambda : -0.193D-02
Largest |displ|/coords:  0.1693 (   4)  0.1216 (  23)  0.1030 (  10)
................................................................................
.............................. CYCLE   24 ......................................
................................................................................
   1    -50.7250233 -0.507250E+02  0.172E-01    8.81       0.0  T
   2    -50.7250441 -0.207971E-04  0.127E-01    8.82       1.0  T
   3    -50.7250541 -0.100061E-04  0.272E-02    8.83       1.0  T
   4    -50.7250568 -0.273749E-05  0.877E-03    8.82       2.2  T
   5    -50.7250570 -0.146664E-06  0.261E-03    8.82       7.5  T
   6    -50.7250570 -0.586099E-08  0.143E-03    8.82      13.8  T
speedup  1.09
cpu  time for SCC    0.01 s
wall time for SCC    0.01 s
speedup  1.01
cpu  time for grad    0.01 s
wall time for grad    0.01 s
 E :    -50.43377402  G :  0.024165    pred/act E change: -0.135D-02 -0.107D-02
Maxdispl :   0.2321   ||displ|| :   0.5145   Lambda : -0.201D-02
Largest |displ|/coords:  0.2321 (   4)  0.1848 (  10)  0.1452 (  12)
................................................................................
.............................. CYCLE   25 ......................................
................................................................................
   1    -50.7224311 -0.507224E+02  0.250E-01    8.79       0.0  T
   2    -50.7224508 -0.196900E-04  0.186E-01    8.79       1.0  T
   3    -50.7224695 -0.187217E-04  0.323E-02    8.78       1.0  T
   4    -50.7224713 -0.181015E-05  0.124E-02    8.79       1.6  T
   5    -50.7224715 -0.176992E-06  0.303E-03    8.79       6.5  T
   6    -50.7224715 -0.107562E-07  0.194E-03    8.79      10.1  T
speedup  1.11
cpu  time for SCC    0.01 s
wall time for SCC    0.01 s
speedup  1.02
cpu  time for grad    0.01 s
wall time for grad    0.01 s
 E :    -50.43493548  G :  0.032233    pred/act E change: -0.109D-02 -0.116D-02
Maxdispl :   0.1809   ||displ|| :   0.4564   Lambda : -0.268D-02
Largest |displ|/coords:  0.1809 (   4)  0.1392 (  23)  0.1367 (  21)

generating ANC from model Hessian ...
 Shifting diagonal of input Hessian by   5.177021937733044E-003
 Lowest  eigenvalues of input Hessian
    0.005000   -0.000000   -0.000000   -0.000000    0.000000    0.000000
    0.000000    0.005199    0.005365    0.005890    0.006069    0.006104
    0.006689    0.006846    0.007588    0.007777    0.008647    0.009114
 Highest eigenvalues
    1.424846    1.451816    1.504608    2.293342    3.435998    3.723289
 
cpu  time for ANC gen    0.02 s
wall time for ANC gen    0.02 s
................................................................................
.............................. CYCLE   26 ......................................
................................................................................
   1    -50.7340583 -0.507341E+02  0.185E-01    8.83       0.0  T
   2    -50.7340869 -0.286136E-04  0.136E-01    8.83       1.0  T
   3    -50.7341016 -0.147232E-04  0.331E-02    8.82       1.0  T
   4    -50.7341050 -0.332261E-05  0.117E-02    8.82       1.7  T
   5    -50.7341051 -0.177733E-06  0.313E-03    8.82       6.3  T
   6    -50.7341052 -0.131113E-07  0.163E-03    8.82      12.0  T
   7    -50.7341052 -0.349798E-08  0.632E-04    8.83      31.0  T
   8    -50.7341052 -0.850818E-09  0.185E-04    8.83     106.0  T
speedup  0.97
cpu  time for SCC    0.01 s
wall time for SCC    0.01 s
speedup  0.97
cpu  time for grad    0.01 s
wall time for grad    0.02 s
 E :    -50.43630920  G :  0.029828    pred/act E change:  0.000D+00 -0.137D-02
Maxdispl :   0.2125   ||displ|| :   0.4123   Lambda : -0.341D-02
Largest |displ|/coords:  0.2125 (  11)  0.1576 (  13)  0.1560 (   6)
................................................................................
.............................. CYCLE   27 ......................................
................................................................................
   1    -50.7306384 -0.507306E+02  0.264E-01    8.82       0.0  T
   2    -50.7306482 -0.978943E-05  0.200E-01    8.82       1.0  T
   3    -50.7306607 -0.125045E-04  0.148E-02    8.82       1.3  T
   4    -50.7306612 -0.489373E-06  0.470E-03    8.82       4.2  T
   5    -50.7306612 -0.191782E-07  0.250E-03    8.82       7.9  T
speedup  1.09
cpu  time for SCC    0.01 s
wall time for SCC    0.00 s
speedup  1.01
cpu  time for grad    0.01 s
wall time for grad    0.01 s
 E :    -50.43878569  G :  0.015306    pred/act E change:  0.000D+00 -0.248D-02
Maxdispl :   0.2688   ||displ|| :   0.5664   Lambda : -0.297D-02
Largest |displ|/coords:  0.2688 (  11)  0.1709 (   6)  0.1575 (   9)
................................................................................
.............................. CYCLE   28 ......................................
................................................................................
   1    -50.7249873 -0.507250E+02  0.349E-01    8.81       0.0  T
   2    -50.7250082 -0.209213E-04  0.264E-01    8.81       1.0  T
   3    -50.7250301 -0.218994E-04  0.258E-02    8.81       1.0  T
   4    -50.7250318 -0.172267E-05  0.857E-03    8.81       2.3  T
   5    -50.7250319 -0.908501E-07  0.325E-03    8.81       6.0  T
   6    -50.7250319 -0.117266E-07  0.168E-03    8.81      11.7  T
   7    -50.7250319 -0.568008E-08  0.438E-04    8.81      44.8  T
speedup  0.95
cpu  time for SCC    0.01 s
wall time for SCC    0.01 s
speedup  0.86
cpu  time for grad    0.01 s
wall time for grad    0.02 s
 E :    -50.44041444  G :  0.024586    pred/act E change: -0.199D-02 -0.163D-02
Maxdispl :   0.2004   ||displ|| :   0.4361   Lambda : -0.173D-02
Largest |displ|/coords:  0.2004 (   6)  0.1805 (   7)  0.1679 (  11)
................................................................................
.............................. CYCLE   29 ......................................
................................................................................
   1    -50.7270077 -0.507270E+02  0.238E-01    8.83       0.0  T
   2    -50.7270144 -0.669144E-05  0.179E-01    8.83       1.0  T
   3    -50.7270210 -0.653819E-05  0.164E-02    8.83       1.2  T
   4    -50.7270216 -0.610667E-06  0.574E-03    8.83       3.4  T
   5    -50.7270216 -0.411684E-07  0.183E-03    8.83      10.7  T
speedup  1.09
cpu  time for SCC    0.01 s
wall time for SCC    0.00 s
speedup  0.98
cpu  time for grad    0.01 s
wall time for grad    0.01 s
 E :    -50.44160950  G :  0.019329    pred/act E change: -0.196D-02 -0.120D-02
Maxdispl :   0.2031   ||displ|| :   0.4888   Lambda : -0.159D-02
Largest |displ|/coords:  0.2031 (   4)  0.1861 (   3)  0.1814 (  11)
................................................................................
.............................. CYCLE   30 ......................................
................................................................................
   1    -50.7333134 -0.507333E+02  0.179E-01    8.87       0.0  T
   2    -50.7333211 -0.766753E-05  0.135E-01    8.87       1.0  T
   3    -50.7333282 -0.714071E-05  0.173E-02    8.87       1.1  T
   4    -50.7333290 -0.785514E-06  0.428E-03    8.87       4.6  T
   5    -50.7333291 -0.256392E-07  0.194E-03    8.87      10.1  T
   6    -50.7333291 -0.477115E-08  0.914E-04    8.87      21.5  T
speedup  0.93
cpu  time for SCC    0.00 s
wall time for SCC    0.01 s
speedup  1.01
cpu  time for grad    0.01 s
wall time for grad    0.01 s
 E :    -50.44272545  G :  0.015254    pred/act E change: -0.103D-02 -0.112D-02
Maxdispl :   0.2580   ||displ|| :   0.5721   Lambda : -0.146D-02
Largest |displ|/coords:  0.2580 (   3)  0.2135 (   4)  0.1966 (  11)
................................................................................
.............................. CYCLE   31 ......................................
................................................................................
   1    -50.7377379 -0.507377E+02  0.242E-01    8.93       0.0  T
   2    -50.7377483 -0.103749E-04  0.181E-01    8.92       1.0  T
   3    -50.7377566 -0.834389E-05  0.203E-02    8.92       1.0  T
   4    -50.7377579 -0.123794E-05  0.650E-03    8.92       3.0  T
   5    -50.7377579 -0.455075E-07  0.213E-03    8.92       9.2  T
   6    -50.7377579 -0.462854E-08  0.117E-03    8.92      16.7  T
speedup  0.93
cpu  time for SCC    0.00 s
wall time for SCC    0.01 s
speedup  1.01
cpu  time for grad    0.01 s
wall time for grad    0.01 s
 E :    -50.44367305  G :  0.013694    pred/act E change: -0.985D-03 -0.948D-03
Maxdispl :   0.2221   ||displ|| :   0.5255   Lambda : -0.112D-02
Largest |displ|/coords:  0.2221 (   4)  0.1951 (   3)  0.1913 (  11)
................................................................................
.............................. CYCLE   32 ......................................
................................................................................
   1    -50.7383426 -0.507383E+02  0.252E-01    8.95       0.0  T
   2    -50.7383532 -0.106661E-04  0.191E-01    8.95       1.0  T
   3    -50.7383662 -0.129425E-04  0.213E-02    8.95       1.0  T
   4    -50.7383668 -0.599141E-06  0.587E-03    8.95       3.3  T
   5    -50.7383668 -0.359223E-07  0.248E-03    8.95       7.9  T
   6    -50.7383668 -0.607884E-08  0.114E-03    8.95      17.3  T
speedup  1.11
cpu  time for SCC    0.01 s
wall time for SCC    0.01 s
speedup  1.01
cpu  time for grad    0.01 s
wall time for grad    0.01 s
 E :    -50.44443948  G :  0.014043    pred/act E change: -0.970D-03 -0.766D-03
Maxdispl :   0.2555   ||displ|| :   0.5130   Lambda : -0.926D-03
Largest |displ|/coords:  0.2555 (   4)  0.2405 (   3)  0.1462 (   8)
................................................................................
.............................. CYCLE   33 ......................................
................................................................................
   1    -50.7389392 -0.507389E+02  0.254E-01    8.97       0.0  T
   2    -50.7389522 -0.129650E-04  0.191E-01    8.97       1.0  T
   3    -50.7389651 -0.129209E-04  0.272E-02    8.97       1.0  T
   4    -50.7389663 -0.125553E-05  0.663E-03    8.97       3.0  T
   5    -50.7389664 -0.518497E-07  0.252E-03    8.97       7.8  T
   6    -50.7389664 -0.556128E-08  0.116E-03    8.97      16.9  T
speedup  0.89
cpu  time for SCC    0.00 s
wall time for SCC    0.01 s
speedup  0.99
cpu  time for grad    0.01 s
wall time for grad    0.01 s
 E :    -50.44497320  G :  0.016746    pred/act E change: -0.713D-03 -0.534D-03
Maxdispl :   0.3340   ||displ|| :   0.5364   Lambda : -0.117D-02
Largest |displ|/coords:  0.3340 (   4)  0.2011 (   8)  0.1963 (   3)
................................................................................
.............................. CYCLE   34 ......................................
................................................................................
   1    -50.7420633 -0.507421E+02  0.198E-01    8.98       0.0  T
   2    -50.7420749 -0.116892E-04  0.149E-01    8.98       1.0  T
   3    -50.7420864 -0.114757E-04  0.259E-02    8.99       1.0  T
   4    -50.7420876 -0.121995E-05  0.834E-03    8.99       2.4  T
   5    -50.7420877 -0.861798E-07  0.262E-03    8.99       7.5  T
   6    -50.7420877 -0.777798E-08  0.149E-03    8.99      13.1  T
speedup  0.93
cpu  time for SCC    0.01 s
wall time for SCC    0.01 s
speedup  1.00
cpu  time for grad    0.01 s
wall time for grad    0.01 s
 E :    -50.44560237  G :  0.016548    pred/act E change: -0.585D-03 -0.629D-03
Maxdispl :   0.2344   ||displ|| :   0.4279   Lambda : -0.791D-03
Largest |displ|/coords:  0.2344 (   4)  0.1788 (   3)  0.1432 (   8)
................................................................................
.............................. CYCLE   35 ......................................
................................................................................
   1    -50.7388370 -0.507388E+02  0.180E-01    8.94       0.0  T
   2    -50.7388483 -0.112298E-04  0.136E-01    8.94       1.0  T
   3    -50.7388572 -0.889523E-05  0.216E-02    8.95       1.0  T
   4    -50.7388587 -0.151052E-05  0.577E-03    8.95       3.4  T
   5    -50.7388587 -0.494927E-07  0.238E-03    8.95       8.2  T
   6    -50.7388587 -0.755852E-08  0.130E-03    8.95      15.1  T
speedup  1.13
cpu  time for SCC    0.01 s
wall time for SCC    0.01 s
speedup  1.01
cpu  time for grad    0.01 s
wall time for grad    0.01 s
 E :    -50.44599643  G :  0.015324    pred/act E change: -0.751D-03 -0.394D-03
Maxdispl :   0.2174   ||displ|| :   0.4207   Lambda : -0.103D-02
Largest |displ|/coords:  0.2174 (   6)  0.1982 (   1)  0.1190 (   2)
................................................................................
.............................. CYCLE   36 ......................................
................................................................................
   1    -50.7460455 -0.507460E+02  0.214E-01    8.92       0.0  T
   2    -50.7460633 -0.177966E-04  0.161E-01    8.93       1.0  T
   3    -50.7460745 -0.111526E-04  0.268E-02    8.93       1.0  T
   4    -50.7460769 -0.240763E-05  0.845E-03    8.93       2.3  T
   5    -50.7460770 -0.130874E-06  0.254E-03    8.93       7.7  T
   6    -50.7460770 -0.357343E-08  0.136E-03    8.93      14.4  T
speedup  0.93
cpu  time for SCC    0.00 s
wall time for SCC    0.01 s
speedup  1.00
cpu  time for grad    0.01 s
wall time for grad    0.01 s
 E :    -50.44576232  G :  0.037392    pred/act E change: -0.468D-03  0.234D-03
Maxdispl :   0.0941   ||displ|| :   0.2505   Lambda : -0.196D-02
Largest |displ|/coords:  0.0941 (   8)  0.0907 (  11)  0.0774 (  18)
................................................................................
.............................. CYCLE   37 ......................................
................................................................................
   1    -50.7377527 -0.507378E+02  0.229E-01    8.92       0.0  T
   2    -50.7377741 -0.213489E-04  0.173E-01    8.93       1.0  T
   3    -50.7377927 -0.186039E-04  0.264E-02    8.93       1.0  T
   4    -50.7377953 -0.261415E-05  0.826E-03    8.93       2.4  T
   5    -50.7377954 -0.881665E-07  0.311E-03    8.93       6.3  T
   6    -50.7377954 -0.836824E-08  0.163E-03    8.93      12.0  T
speedup  0.94
cpu  time for SCC    0.00 s
wall time for SCC    0.01 s
speedup  1.01
cpu  time for grad    0.01 s
wall time for grad    0.01 s
 E :    -50.44643195  G :  0.020777    pred/act E change: -0.609D-03 -0.670D-03
Maxdispl :   0.1556   ||displ|| :   0.3196   Lambda : -0.171D-02
Largest |displ|/coords:  0.1556 (   7)  0.1492 (   5)  0.1082 (  10)
................................................................................
.............................. CYCLE   38 ......................................
................................................................................
   1    -50.7453716 -0.507454E+02  0.388E-01    8.98       0.0  T
   2    -50.7453959 -0.242740E-04  0.295E-01    8.98       1.0  T
   3    -50.7454195 -0.235888E-04  0.246E-02    8.98       1.0  T
   4    -50.7454219 -0.238585E-05  0.815E-03    8.98       2.4  T
   5    -50.7454220 -0.881972E-07  0.340E-03    8.98       5.8  T
   6    -50.7454220 -0.418221E-08  0.162E-03    8.98      12.1  T
speedup  0.93
cpu  time for SCC    0.00 s
wall time for SCC    0.01 s
speedup  0.99
cpu  time for grad    0.01 s
wall time for grad    0.01 s
 E :    -50.44593023  G :  0.029530    pred/act E change: -0.104D-02  0.502D-03
Maxdispl :   0.1034   ||displ|| :   0.1997   Lambda : -0.154D-02
Largest |displ|/coords:  0.1034 (   3)  0.0817 (   1)  0.0777 (   7)
................................................................................
.............................. CYCLE   39 ......................................
................................................................................
   1    -50.7435900 -0.507436E+02  0.208E-01    8.95       0.0  T
   2    -50.7435993 -0.922192E-05  0.158E-01    8.95       1.0  T
   3    -50.7436074 -0.817915E-05  0.158E-02    8.95       1.2  T
   4    -50.7436085 -0.107472E-05  0.554E-03    8.95       3.5  T
   5    -50.7436086 -0.374209E-07  0.201E-03    8.95       9.8  T
speedup  1.09
cpu  time for SCC    0.00 s
wall time for SCC    0.00 s
speedup  0.99
cpu  time for grad    0.01 s
wall time for grad    0.01 s
 E :    -50.44685238  G :  0.011427    pred/act E change: -0.940D-03 -0.922D-03
Maxdispl :   0.1128   ||displ|| :   0.2630   Lambda : -0.528D-03
Largest |displ|/coords:  0.1128 (   2)  0.1063 (   6)  0.0997 (   1)
................................................................................
.............................. CYCLE   40 ......................................
................................................................................
   1    -50.7431526 -0.507432E+02  0.183E-01    8.95       0.0  T
   2    -50.7431581 -0.555192E-05  0.138E-01    8.95       1.0  T
   3    -50.7431624 -0.428882E-05  0.154E-02    8.95       1.3  T
   4    -50.7431632 -0.754513E-06  0.540E-03    8.95       3.6  T
   5    -50.7431632 -0.331378E-07  0.177E-03    8.95      11.1  T
   6    -50.7431632 -0.176573E-08  0.890E-04    8.95      22.0  T
speedup  0.93
cpu  time for SCC    0.00 s
wall time for SCC    0.01 s
speedup  1.00
cpu  time for grad    0.01 s
wall time for grad    0.01 s
 E :    -50.44697068  G :  0.014461    pred/act E change: -0.799D-03 -0.118D-03
Maxdispl :   0.0970   ||displ|| :   0.1912   Lambda : -0.332D-03
Largest |displ|/coords:  0.0970 (   4)  0.0710 (   1)  0.0676 (   2)
................................................................................
.............................. CYCLE   41 ......................................
................................................................................
   1    -50.7410224 -0.507410E+02  0.787E-02    8.93       0.0  T
   2    -50.7410253 -0.284594E-05  0.593E-02    8.93       1.0  T
   3    -50.7410277 -0.241886E-05  0.114E-02    8.94       1.7  T
   4    -50.7410280 -0.337867E-06  0.506E-03    8.94       3.9  T
   5    -50.7410281 -0.303203E-07  0.122E-03    8.94      16.1  T
   6    -50.7410281 -0.287175E-08  0.722E-04    8.94      27.2  T
speedup  1.11
cpu  time for SCC    0.01 s
wall time for SCC    0.01 s
speedup  1.00
cpu  time for grad    0.01 s
wall time for grad    0.01 s
 E :    -50.44714589  G :  0.009939    pred/act E change: -0.283D-03 -0.175D-03
Maxdispl :   0.0883   ||displ|| :   0.1902   Lambda : -0.347D-03
Largest |displ|/coords:  0.0883 (  11)  0.0825 (   5)  0.0802 (   4)
................................................................................
.............................. CYCLE   42 ......................................
................................................................................
   1    -50.7447480 -0.507447E+02  0.117E-01    8.93       0.0  T
   2    -50.7447551 -0.708167E-05  0.879E-02    8.93       1.0  T
   3    -50.7447593 -0.426157E-05  0.165E-02    8.93       1.2  T
   4    -50.7447603 -0.974525E-06  0.475E-03    8.93       4.1  T
   5    -50.7447604 -0.453277E-07  0.162E-03    8.93      12.1  T
   6    -50.7447604 -0.224910E-08  0.856E-04    8.93      22.9  T
speedup  0.93
cpu  time for SCC    0.00 s
wall time for SCC    0.01 s
speedup  1.00
cpu  time for grad    0.01 s
wall time for grad    0.01 s
 E :    -50.44715296  G :  0.013385    pred/act E change: -0.172D-03 -0.707D-05
Maxdispl :   0.1136   ||displ|| :   0.1904   Lambda : -0.334D-03
Largest |displ|/coords:  0.1136 (   2)  0.0826 (   3)  0.0798 (   1)
................................................................................
.............................. CYCLE   43 ......................................
................................................................................
   1    -50.7440224 -0.507440E+02  0.102E-01    8.93       0.0  T
   2    -50.7440244 -0.198016E-05  0.767E-02    8.93       1.0  T
   3    -50.7440258 -0.138519E-05  0.908E-03    8.94       2.2  T
   4    -50.7440261 -0.287700E-06  0.248E-03    8.93       7.9  T
   5    -50.7440261 -0.928074E-08  0.104E-03    8.93      18.9  T
speedup  1.09
cpu  time for SCC    0.00 s
wall time for SCC    0.00 s
speedup  0.98
cpu  time for grad    0.01 s
wall time for grad    0.01 s
 E :    -50.44738124  G :  0.005344    pred/act E change: -0.180D-03 -0.228D-03
Maxdispl :   0.1631   ||displ|| :   0.3004   Lambda : -0.208D-03
Largest |displ|/coords:  0.1631 (   2)  0.1365 (   3)  0.1334 (   1)
................................................................................
.............................. CYCLE   44 ......................................
................................................................................
   1    -50.7412577 -0.507413E+02  0.131E-01    8.91       0.0  T
   2    -50.7412598 -0.200997E-05  0.981E-02    8.91       1.0  T
   3    -50.7412617 -0.192621E-05  0.920E-03    8.91       2.1  T
   4    -50.7412619 -0.210404E-06  0.337E-03    8.91       5.8  T
   5    -50.7412619 -0.130191E-07  0.119E-03    8.91      16.5  T
   6    -50.7412619 -0.202181E-08  0.671E-04    8.91      29.2  T
speedup  0.94
cpu  time for SCC    0.01 s
wall time for SCC    0.01 s
speedup  1.01
cpu  time for grad    0.01 s
wall time for grad    0.01 s
 E :    -50.44750166  G :  0.008126    pred/act E change: -0.173D-03 -0.120D-03
Maxdispl :   0.1870   ||displ|| :   0.2872   Lambda : -0.191D-03
Largest |displ|/coords:  0.1870 (   2)  0.1187 (   1)  0.1008 (   3)
................................................................................
.............................. CYCLE   45 ......................................
................................................................................
   1    -50.7426513 -0.507427E+02  0.133E-01    8.92       0.0  T
   2    -50.7426534 -0.203940E-05  0.999E-02    8.91       1.0  T
   3    -50.7426556 -0.223602E-05  0.903E-03    8.91       2.2  T
   4    -50.7426558 -0.149037E-06  0.276E-03    8.91       7.1  T
   5    -50.7426558 -0.915010E-08  0.100E-03    8.91      19.5  T
speedup  0.89
cpu  time for SCC    0.00 s
wall time for SCC    0.00 s
speedup  0.98
cpu  time for grad    0.01 s
wall time for grad    0.01 s
 E :    -50.44760027  G :  0.008415    pred/act E change: -0.113D-03 -0.986D-04
Maxdispl :   0.1429   ||displ|| :   0.2710   Lambda : -0.210D-03
Largest |displ|/coords:  0.1429 (   2)  0.1229 (   3)  0.0983 (   1)
................................................................................
.............................. CYCLE   46 ......................................
................................................................................
   1    -50.7427649 -0.507428E+02  0.151E-01    8.91       0.0  T
   2    -50.7427683 -0.345158E-05  0.113E-01    8.91       1.0  T
   3    -50.7427707 -0.236108E-05  0.102E-02    8.90       1.9  T
   4    -50.7427712 -0.524557E-06  0.420E-03    8.91       4.7  T
   5    -50.7427712 -0.226485E-07  0.124E-03    8.91      15.8  T
   6    -50.7427712 -0.994852E-09  0.654E-04    8.91      30.0  T
speedup  1.13
cpu  time for SCC    0.01 s
wall time for SCC    0.01 s
speedup  1.01
cpu  time for grad    0.01 s
wall time for grad    0.01 s
 E :    -50.44774567  G :  0.008871    pred/act E change: -0.103D-03 -0.145D-03
Maxdispl :   0.1874   ||displ|| :   0.3137   Lambda : -0.255D-03
Largest |displ|/coords:  0.1874 (   3)  0.1363 (   2)  0.1108 (   1)
................................................................................
.............................. CYCLE   47 ......................................
................................................................................
   1    -50.7425869 -0.507426E+02  0.154E-01    8.92       0.0  T
   2    -50.7425899 -0.301942E-05  0.116E-01    8.92       1.0  T
   3    -50.7425926 -0.265953E-05  0.111E-02    8.92       1.8  T
   4    -50.7425929 -0.330130E-06  0.334E-03    8.92       5.9  T
   5    -50.7425929 -0.117256E-07  0.137E-03    8.92      14.3  T
   6    -50.7425929 -0.236628E-08  0.657E-04    8.92      29.8  T
speedup  0.93
cpu  time for SCC    0.00 s
wall time for SCC    0.01 s
speedup  1.00
cpu  time for grad    0.01 s
wall time for grad    0.01 s
 E :    -50.44790270  G :  0.009491    pred/act E change: -0.113D-03 -0.157D-03
Maxdispl :   0.1256   ||displ|| :   0.2466   Lambda : -0.220D-03
Largest |displ|/coords:  0.1256 (   3)  0.1038 (   8)  0.0980 (   1)
................................................................................
.............................. CYCLE   48 ......................................
................................................................................
   1    -50.7437750 -0.507438E+02  0.142E-01    8.96       0.0  T
   2    -50.7437769 -0.183550E-05  0.106E-01    8.96       1.0  T
   3    -50.7437786 -0.169239E-05  0.117E-02    8.95       1.7  T
   4    -50.7437787 -0.147153E-06  0.208E-03    8.95       9.5  T
   5    -50.7437787 -0.697609E-08  0.106E-03    8.95      18.4  T
speedup  1.11
cpu  time for SCC    0.00 s
wall time for SCC    0.00 s
speedup  1.00
cpu  time for grad    0.01 s
wall time for grad    0.01 s
 E :    -50.44805477  G :  0.009694    pred/act E change: -0.140D-03 -0.152D-03
Maxdispl :   0.2448   ||displ|| :   0.4424   Lambda : -0.361D-03
Largest |displ|/coords:  0.2448 (   3)  0.2045 (   1)  0.1750 (   2)
................................................................................
.............................. CYCLE   49 ......................................
................................................................................
   1    -50.7425982 -0.507426E+02  0.213E-01    8.93       0.0  T
   2    -50.7426073 -0.908388E-05  0.157E-01    8.93       1.0  T
   3    -50.7426114 -0.408460E-05  0.248E-02    8.94       1.0  T
   4    -50.7426128 -0.139992E-05  0.529E-03    8.93       3.7  T
   5    -50.7426128 -0.513316E-07  0.192E-03    8.93      10.2  T
   6    -50.7426128 -0.487043E-08  0.100E-03    8.93      19.6  T
speedup  0.93
cpu  time for SCC    0.00 s
wall time for SCC    0.01 s
speedup  0.93
cpu  time for grad    0.01 s
wall time for grad    0.01 s
 E :    -50.44823093  G :  0.012258    pred/act E change: -0.117D-03 -0.176D-03
Maxdispl :   0.1831   ||displ|| :   0.3277   Lambda : -0.475D-03
Largest |displ|/coords:  0.1831 (   1)  0.1339 (   8)  0.1161 (   3)
................................................................................
.............................. CYCLE   50 ......................................
................................................................................
   1    -50.7435667 -0.507436E+02  0.215E-01    8.90       0.0  T
   2    -50.7435775 -0.108445E-04  0.161E-01    8.90       1.0  T
   3    -50.7435864 -0.891125E-05  0.235E-02    8.90       1.0  T
   4    -50.7435877 -0.127577E-05  0.798E-03    8.90       2.5  T
   5    -50.7435878 -0.575893E-07  0.217E-03    8.90       9.0  T
   6    -50.7435878 -0.399573E-08  0.122E-03    8.90      16.0  T
speedup  0.93
cpu  time for SCC    0.00 s
wall time for SCC    0.01 s
speedup  1.00
cpu  time for grad    0.01 s
wall time for grad    0.01 s
 E :    -50.44826692  G :  0.017751    pred/act E change: -0.216D-03 -0.360D-04
Maxdispl :   0.1798   ||displ|| :   0.2898   Lambda : -0.577D-03
Largest |displ|/coords:  0.1798 (   1)  0.1404 (   2)  0.1259 (   3)
................................................................................
.............................. CYCLE   51 ......................................
................................................................................
   1    -50.7409582 -0.507410E+02  0.136E-01    8.86       0.0  T
   2    -50.7409629 -0.474695E-05  0.101E-01    8.86       1.0  T
   3    -50.7409662 -0.327052E-05  0.163E-02    8.86       1.2  T
   4    -50.7409668 -0.639467E-06  0.635E-03    8.86       3.1  T
   5    -50.7409669 -0.471545E-07  0.169E-03    8.86      11.6  T
   6    -50.7409669 -0.382035E-08  0.101E-03    8.86      19.4  T
speedup  1.11
cpu  time for SCC    0.01 s
wall time for SCC    0.01 s
speedup  1.00
cpu  time for grad    0.01 s
wall time for grad    0.01 s
 E :    -50.44845243  G :  0.016879    pred/act E change: -0.263D-03 -0.186D-03
Maxdispl :   0.1110   ||displ|| :   0.2278   Lambda : -0.657D-03
Largest |displ|/coords:  0.1110 (   3)  0.0883 (   2)  0.0877 (   8)
................................................................................
.............................. CYCLE   52 ......................................
................................................................................
   1    -50.7482118 -0.507482E+02  0.207E-01    8.92       0.0  T
   2    -50.7482310 -0.192277E-04  0.155E-01    8.92       1.0  T
   3    -50.7482445 -0.134887E-04  0.262E-02    8.93       1.0  T
   4    -50.7482468 -0.233944E-05  0.101E-02    8.92       1.9  T
   5    -50.7482470 -0.139479E-06  0.289E-03    8.92       6.8  T
   6    -50.7482470 -0.706409E-08  0.163E-03    8.93      12.0  T
speedup  1.11
cpu  time for SCC    0.01 s
wall time for SCC    0.01 s
speedup  1.01
cpu  time for grad    0.01 s
wall time for grad    0.01 s
 E :    -50.44795523  G :  0.033681    pred/act E change: -0.313D-03  0.497D-03
Maxdispl :   0.0971   ||displ|| :   0.2538   Lambda : -0.154D-02
Largest |displ|/coords:  0.0971 (   2)  0.0844 (   6)  0.0820 (   4)

generating ANC from model Hessian ...
 Shifting diagonal of input Hessian by   5.204226203781241E-003
 Lowest  eigenvalues of input Hessian
    0.005000   -0.000000   -0.000000   -0.000000   -0.000000   -0.000000
    0.000000    0.005300    0.005768    0.006020    0.006431    0.006978
    0.007111    0.007838    0.008233    0.008869    0.009186    0.009799
 Highest eigenvalues
    1.411911    1.415151    1.427524    2.351098    3.453470    3.763220
 
cpu  time for ANC gen    0.02 s
wall time for ANC gen    0.02 s
................................................................................
.............................. CYCLE   53 ......................................
................................................................................
   1    -50.7421038 -0.507421E+02  0.212E-01    8.89       0.0  T
   2    -50.7421191 -0.152378E-04  0.160E-01    8.89       1.0  T
   3    -50.7421335 -0.144441E-04  0.216E-02    8.88       1.0  T
   4    -50.7421350 -0.153543E-05  0.693E-03    8.88       2.8  T
   5    -50.7421351 -0.573204E-07  0.283E-03    8.89       6.9  T
   6    -50.7421351 -0.104765E-07  0.142E-03    8.89      13.8  T
   7    -50.7421351 -0.365335E-08  0.333E-04    8.89      58.8  T
   8    -50.7421351 -0.248995E-09  0.101E-04    8.89     194.6  T
speedup  0.99
cpu  time for SCC    0.01 s
wall time for SCC    0.01 s
speedup  0.99
cpu  time for grad    0.01 s
wall time for grad    0.02 s
 E :    -50.44836103  G :  0.021475    pred/act E change:  0.000D+00 -0.406D-03
Maxdispl :   0.0943   ||displ|| :   0.1761   Lambda : -0.757D-03
Largest |displ|/coords:  0.0943 (   1)  0.0791 (   3)  0.0738 (   6)
................................................................................
.............................. CYCLE   54 ......................................
................................................................................
   1    -50.7438612 -0.507439E+02  0.136E-01    8.91       0.0  T
   2    -50.7438641 -0.282213E-05  0.102E-01    8.91       1.0  T
   3    -50.7438664 -0.238406E-05  0.997E-03    8.90       2.0  T
   4    -50.7438668 -0.339680E-06  0.411E-03    8.91       4.8  T
   5    -50.7438668 -0.283270E-07  0.130E-03    8.90      15.1  T
speedup  0.89
cpu  time for SCC    0.00 s
wall time for SCC    0.00 s
speedup  1.00
cpu  time for grad    0.01 s
wall time for grad    0.01 s
 E :    -50.44884109  G :  0.006634    pred/act E change:  0.000D+00 -0.480D-03
Maxdispl :   0.1169   ||displ|| :   0.2217   Lambda : -0.375D-03
Largest |displ|/coords:  0.1169 (   1)  0.1035 (  10)  0.1030 (   3)
................................................................................
.............................. CYCLE   55 ......................................
................................................................................
   1    -50.7441395 -0.507441E+02  0.211E-01    8.91       0.0  T
   2    -50.7441474 -0.789531E-05  0.161E-01    8.91       1.0  T
   3    -50.7441577 -0.102725E-04  0.120E-02    8.91       1.6  T
   4    -50.7441580 -0.320444E-06  0.421E-03    8.91       4.7  T
   5    -50.7441580 -0.110838E-07  0.179E-03    8.91      11.0  T
   6    -50.7441580 -0.611540E-08  0.680E-04    8.91      28.8  T
speedup  1.11
cpu  time for SCC    0.01 s
wall time for SCC    0.01 s
speedup  1.00
cpu  time for grad    0.01 s
wall time for grad    0.01 s
 E :    -50.44899337  G :  0.009713    pred/act E change: -0.390D-03 -0.152D-03
Maxdispl :   0.1424   ||displ|| :   0.2040   Lambda : -0.289D-03
Largest |displ|/coords:  0.1424 (   1)  0.0975 (   3)  0.0633 (   6)
................................................................................
.............................. CYCLE   56 ......................................
................................................................................
   1    -50.7446253 -0.507446E+02  0.159E-01    8.90       0.0  T
   2    -50.7446281 -0.283533E-05  0.120E-01    8.90       1.0  T
   3    -50.7446308 -0.267233E-05  0.936E-03    8.90       2.1  T
   4    -50.7446311 -0.304546E-06  0.279E-03    8.90       7.0  T
   5    -50.7446311 -0.910047E-08  0.132E-03    8.90      14.8  T
speedup  0.89
cpu  time for SCC    0.00 s
wall time for SCC    0.00 s
speedup  0.99
cpu  time for grad    0.01 s
wall time for grad    0.01 s
 E :    -50.44914949  G :  0.008948    pred/act E change: -0.197D-03 -0.156D-03
Maxdispl :   0.1912   ||displ|| :   0.2824   Lambda : -0.302D-03
Largest |displ|/coords:  0.1912 (   1)  0.1380 (   3)  0.0652 (   6)
................................................................................
.............................. CYCLE   57 ......................................
................................................................................
   1    -50.7432375 -0.507432E+02  0.160E-01    8.89       0.0  T
   2    -50.7432407 -0.323200E-05  0.120E-01    8.89       1.0  T
   3    -50.7432436 -0.292346E-05  0.116E-02    8.89       1.7  T
   4    -50.7432440 -0.381064E-06  0.379E-03    8.89       5.2  T
   5    -50.7432440 -0.167401E-07  0.152E-03    8.89      12.9  T
   6    -50.7432440 -0.204399E-08  0.648E-04    8.89      30.3  T
speedup  0.93
cpu  time for SCC    0.00 s
wall time for SCC    0.01 s
speedup  1.00
cpu  time for grad    0.01 s
wall time for grad    0.01 s
 E :    -50.44936798  G :  0.008375    pred/act E change: -0.150D-03 -0.218D-03
Maxdispl :   0.3409   ||displ|| :   0.4537   Lambda : -0.458D-03
Largest |displ|/coords:  0.3409 (   1)  0.1948 (   3)  0.1247 (  13)
................................................................................
.............................. CYCLE   58 ......................................
................................................................................
   1    -50.7430107 -0.507430E+02  0.187E-01    8.84       0.0  T
   2    -50.7430163 -0.565329E-05  0.140E-01    8.85       1.0  T
   3    -50.7430213 -0.491677E-05  0.158E-02    8.85       1.2  T
   4    -50.7430219 -0.629596E-06  0.509E-03    8.85       3.9  T
   5    -50.7430219 -0.362340E-07  0.191E-03    8.85      10.3  T
   6    -50.7430219 -0.351805E-08  0.883E-04    8.85      22.2  T
speedup  1.13
cpu  time for SCC    0.01 s
wall time for SCC    0.01 s
speedup  1.01
cpu  time for grad    0.01 s
wall time for grad    0.01 s
 E :    -50.44964526  G :  0.009258    pred/act E change: -0.163D-03 -0.277D-03
Maxdispl :   0.3529   ||displ|| :   0.4857   Lambda : -0.409D-03
Largest |displ|/coords:  0.3529 (   1)  0.2331 (   3)  0.1105 (   6)
................................................................................
.............................. CYCLE   59 ......................................
................................................................................
   1    -50.7386676 -0.507387E+02  0.248E-01    8.82       0.0  T
   2    -50.7386798 -0.121460E-04  0.186E-01    8.82       1.0  T
   3    -50.7386911 -0.113036E-04  0.204E-02    8.83       1.0  T
   4    -50.7386925 -0.138723E-05  0.689E-03    8.82       2.8  T
   5    -50.7386925 -0.688686E-07  0.308E-03    8.82       6.4  T
   6    -50.7386925 -0.110523E-07  0.140E-03    8.82      14.0  T
   7    -50.7386925 -0.562700E-08  0.311E-04    8.82      63.0  T
speedup  0.97
cpu  time for SCC    0.01 s
wall time for SCC    0.01 s
speedup  0.99
cpu  time for grad    0.01 s
wall time for grad    0.01 s
 E :    -50.44973656  G :  0.022924    pred/act E change: -0.276D-03 -0.913D-04
Maxdispl :   0.1733   ||displ|| :   0.2535   Lambda : -0.932D-03
Largest |displ|/coords:  0.1733 (   1)  0.0921 (   5)  0.0776 (   3)
................................................................................
.............................. CYCLE   60 ......................................
................................................................................
   1    -50.7461002 -0.507461E+02  0.118E-01    8.85       0.0  T
   2    -50.7461081 -0.793409E-05  0.886E-02    8.85       1.0  T
   3    -50.7461140 -0.585805E-05  0.167E-02    8.86       1.2  T
   4    -50.7461150 -0.969031E-06  0.463E-03    8.85       4.2  T
   5    -50.7461150 -0.515282E-07  0.178E-03    8.85      11.0  T
speedup  0.87
cpu  time for SCC    0.00 s
wall time for SCC    0.00 s
speedup  0.99
cpu  time for grad    0.01 s
wall time for grad    0.01 s
 E :    -50.45019598  G :  0.010587    pred/act E change: -0.253D-03 -0.459D-03
Maxdispl :   0.3136   ||displ|| :   0.4710   Lambda : -0.615D-03
Largest |displ|/coords:  0.3136 (   1)  0.2514 (   3)  0.1276 (  13)
................................................................................
.............................. CYCLE   61 ......................................
................................................................................
   1    -50.7440381 -0.507440E+02  0.199E-01    8.82       0.0  T
   2    -50.7440487 -0.106395E-04  0.149E-01    8.82       1.0  T
   3    -50.7440562 -0.753246E-05  0.212E-02    8.83       1.0  T
   4    -50.7440578 -0.150913E-05  0.647E-03    8.83       3.0  T
   5    -50.7440578 -0.665357E-07  0.253E-03    8.83       7.7  T
   6    -50.7440578 -0.877263E-08  0.134E-03    8.83      14.6  T
speedup  1.13
cpu  time for SCC    0.01 s
wall time for SCC    0.01 s
speedup  1.02
cpu  time for grad    0.01 s
wall time for grad    0.01 s
 E :    -50.45048425  G :  0.018376    pred/act E change: -0.496D-03 -0.288D-03
Maxdispl :   0.2255   ||displ|| :   0.4627   Lambda : -0.911D-03
Largest |displ|/coords:  0.2255 (   1)  0.2093 (   3)  0.1808 (  13)
................................................................................
.............................. CYCLE   62 ......................................
................................................................................
   1    -50.7442534 -0.507443E+02  0.178E-01    8.79       0.0  T
   2    -50.7442697 -0.162384E-04  0.133E-01    8.80       1.0  T
   3    -50.7442793 -0.964767E-05  0.255E-02    8.80       1.0  T
   4    -50.7442817 -0.240869E-05  0.839E-03    8.80       2.3  T
   5    -50.7442818 -0.114781E-06  0.290E-03    8.80       6.8  T
   6    -50.7442818 -0.133838E-07  0.157E-03    8.80      12.5  T
speedup  0.94
cpu  time for SCC    0.00 s
wall time for SCC    0.01 s
speedup  1.00
cpu  time for grad    0.01 s
wall time for grad    0.01 s
 E :    -50.45088052  G :  0.014966    pred/act E change: -0.376D-03 -0.396D-03
Maxdispl :   0.3105   ||displ|| :   0.4485   Lambda : -0.821D-03
Largest |displ|/coords:  0.3105 (   1)  0.1826 (   3)  0.1268 (   2)
................................................................................
.............................. CYCLE   63 ......................................
................................................................................
   1    -50.7426206 -0.507426E+02  0.208E-01    8.81       0.0  T
   2    -50.7426278 -0.712847E-05  0.156E-01    8.81       1.0  T
   3    -50.7426340 -0.628028E-05  0.174E-02    8.81       1.1  T
   4    -50.7426349 -0.838981E-06  0.614E-03    8.81       3.2  T
   5    -50.7426349 -0.448634E-07  0.206E-03    8.81       9.5  T
   6    -50.7426349 -0.350067E-08  0.111E-03    8.81      17.7  T
speedup  0.93
cpu  time for SCC    0.01 s
wall time for SCC    0.01 s
speedup  1.00
cpu  time for grad    0.01 s
wall time for grad    0.01 s
 E :    -50.45133799  G :  0.014996    pred/act E change: -0.553D-03 -0.457D-03
Maxdispl :   0.1685   ||displ|| :   0.3400   Lambda : -0.675D-03
Largest |displ|/coords:  0.1685 (   1)  0.1432 (   5)  0.1146 (   8)
................................................................................
.............................. CYCLE   64 ......................................
................................................................................
   1    -50.7477307 -0.507477E+02  0.116E-01    8.84       0.0  T
   2    -50.7477347 -0.400863E-05  0.866E-02    8.84       1.0  T
   3    -50.7477376 -0.290138E-05  0.149E-02    8.84       1.3  T
   4    -50.7477381 -0.529041E-06  0.470E-03    8.84       4.2  T
   5    -50.7477381 -0.290899E-07  0.132E-03    8.84      14.9  T
   6    -50.7477381 -0.191420E-08  0.794E-04    8.84      24.7  T
speedup  1.11
cpu  time for SCC    0.01 s
wall time for SCC    0.01 s
speedup  1.00
cpu  time for grad    0.01 s
wall time for grad    0.01 s
 E :    -50.45171612  G :  0.011134    pred/act E change: -0.493D-03 -0.378D-03
Maxdispl :   0.3727   ||displ|| :   0.6462   Lambda : -0.834D-03
Largest |displ|/coords:  0.3727 (   1)  0.2765 (   3)  0.2249 (   5)
................................................................................
.............................. CYCLE   65 ......................................
................................................................................
   1    -50.7410517 -0.507411E+02  0.249E-01    8.76       0.0  T
   2    -50.7410832 -0.315362E-04  0.186E-01    8.76       1.0  T
   3    -50.7410974 -0.141238E-04  0.395E-02    8.77       1.0  T
   4    -50.7411022 -0.486802E-05  0.117E-02    8.77       1.7  T
[...]
Maxdispl :   0.0776   ||displ|| :   0.0941   Lambda : -0.304D-05
Largest |displ|/coords:  0.0776 (   1)  0.0303 (   4)  0.0286 (   2)
................................................................................
.............................. CYCLE  231 ......................................
................................................................................
   1    -50.7674466 -0.507674E+02  0.586E-02    9.15       0.0  T
   2    -50.7674469 -0.277652E-06  0.442E-02    9.15       1.0  T
   3    -50.7674472 -0.296770E-06  0.264E-03    9.15       7.4  T
   4    -50.7674472 -0.226637E-07  0.122E-03    9.15      16.1  T
   5    -50.7674472 -0.767493E-09  0.389E-04    9.15      50.4  T
   6    -50.7674472 -0.147743E-09  0.175E-04    9.15     112.0  T
speedup  1.11
cpu  time for SCC    0.01 s
wall time for SCC    0.01 s
speedup  1.07
cpu  time for grad    0.01 s
wall time for grad    0.01 s
 E :    -50.46648042  G :  0.000863    pred/act E change: -0.757D-06 -0.188D-05
Maxdispl :   0.0156   ||displ|| :   0.0186   Lambda : -0.887D-06
Largest |displ|/coords:  0.0156 (   1)  0.0046 (   4)  0.0038 (  11)
................................................................................
.............................. CYCLE  232 ......................................
................................................................................
   1    -50.7675105 -0.507675E+02  0.103E-02    9.15       0.0  T
   2    -50.7675105 -0.161394E-07  0.777E-03    9.15       2.5  T
   3    -50.7675106 -0.106162E-07  0.709E-04    9.15      27.7  T
   4    -50.7675106 -0.267396E-08  0.322E-04    9.15      60.9  T
speedup  1.08
cpu  time for SCC    0.00 s
wall time for SCC    0.00 s
speedup  1.06
cpu  time for grad    0.01 s
wall time for grad    0.01 s
 E :    -50.46648107  G :  0.000454    pred/act E change: -0.153D-05 -0.648D-06
Maxdispl :   0.0330   ||displ|| :   0.0416   Lambda : -0.939D-06
Largest |displ|/coords:  0.0330 (   1)  0.0142 (   4)  0.0112 (  11)
................................................................................
.............................. CYCLE  233 ......................................
................................................................................
   1    -50.7674977 -0.507675E+02  0.289E-02    9.15       0.0  T
   2    -50.7674978 -0.831526E-07  0.219E-02    9.15       1.0  T
   3    -50.7674979 -0.787463E-07  0.145E-03    9.15      13.5  T
   4    -50.7674979 -0.907288E-08  0.687E-04    9.15      28.5  T
   5    -50.7674979 -0.264549E-09  0.201E-04    9.15      97.6  T
speedup  1.11
cpu  time for SCC    0.00 s
wall time for SCC    0.00 s
speedup  1.06
cpu  time for grad    0.01 s
wall time for grad    0.01 s
 E :    -50.46648175  G :  0.000495    pred/act E change: -0.444D-06 -0.682D-06
Maxdispl :   0.0146   ||displ|| :   0.0244   Lambda : -0.105D-05
Largest |displ|/coords:  0.0146 (   1)  0.0099 (   4)  0.0088 (  11)
................................................................................
.............................. CYCLE  234 ......................................
................................................................................
   1    -50.7675786 -0.507676E+02  0.201E-02    9.14       0.0  T
   2    -50.7675786 -0.496853E-07  0.152E-02    9.14       1.3  T
   3    -50.7675787 -0.375520E-07  0.117E-03    9.15      16.7  T
   4    -50.7675787 -0.736843E-08  0.526E-04    9.15      37.3  T
   5    -50.7675787 -0.215060E-09  0.144E-04    9.15     135.7  T
speedup  0.87
cpu  time for SCC    0.00 s
wall time for SCC    0.00 s
speedup  0.98
cpu  time for grad    0.01 s
wall time for grad    0.01 s
 E :    -50.46648239  G :  0.000409    pred/act E change: -0.470D-06 -0.632D-06
Maxdispl :   0.0312   ||displ|| :   0.0453   Lambda : -0.778D-06
Largest |displ|/coords:  0.0312 (   1)  0.0184 (   4)  0.0155 (  11)
................................................................................
.............................. CYCLE  235 ......................................
................................................................................
   1    -50.7674807 -0.507675E+02  0.375E-02    9.14       0.0  T
   2    -50.7674808 -0.148408E-06  0.283E-02    9.14       1.0  T
   3    -50.7674809 -0.134520E-06  0.197E-03    9.14      10.0  T
   4    -50.7674810 -0.171741E-07  0.804E-04    9.14      24.4  T
   5    -50.7674810 -0.536133E-09  0.284E-04    9.14      69.2  T
speedup  0.67
cpu  time for SCC    0.00 s
wall time for SCC    0.00 s
speedup  0.92
cpu  time for grad    0.01 s
wall time for grad    0.01 s
 E :    -50.46648270  G :  0.000787    pred/act E change: -0.527D-06 -0.319D-06
Maxdispl :   0.0132   ||displ|| :   0.0147   Lambda : -0.762D-06
Largest |displ|/coords:  0.0132 (   1)  0.0042 (   2)  0.0025 (  18)
................................................................................
.............................. CYCLE  236 ......................................
................................................................................
   1    -50.7675622 -0.507676E+02  0.523E-03    9.15       0.0  T
   2    -50.7675622 -0.565426E-08  0.394E-03    9.15       5.0  T
   3    -50.7675622 -0.517365E-08  0.428E-04    9.15      45.8  T
   4    -50.7675622 -0.647312E-09  0.178E-04    9.15     110.3  T
speedup  1.08
cpu  time for SCC    0.00 s
wall time for SCC    0.00 s
speedup  0.98
cpu  time for grad    0.01 s
wall time for grad    0.01 s
 E :    -50.46648320  G :  0.000318    pred/act E change: -0.390D-06 -0.496D-06
Maxdispl :   0.0079   ||displ|| :   0.0150   Lambda : -0.514D-06
Largest |displ|/coords:  0.0079 (  11)  0.0057 (   4)  0.0048 (  13)
................................................................................
.............................. CYCLE  237 ......................................
................................................................................
   1    -50.7675680 -0.507676E+02  0.152E-02    9.15       0.0  T
   2    -50.7675680 -0.249477E-07  0.115E-02    9.14       1.7  T
   3    -50.7675680 -0.219308E-07  0.843E-04    9.14      23.3  T
   4    -50.7675680 -0.294418E-08  0.324E-04    9.14      60.6  T
speedup  1.08
cpu  time for SCC    0.00 s
wall time for SCC    0.00 s
speedup  1.02
cpu  time for grad    0.01 s
wall time for grad    0.01 s
 E :    -50.46648353  G :  0.000217    pred/act E change: -0.381D-06 -0.331D-06
Maxdispl :   0.0048   ||displ|| :   0.0104   Lambda : -0.237D-06
Largest |displ|/coords:  0.0048 (  11)  0.0034 (   4)  0.0033 (   2)
................................................................................
.............................. CYCLE  238 ......................................
................................................................................
   1    -50.7675505 -0.507676E+02  0.100E-02    9.14       0.0  T
   2    -50.7675505 -0.117720E-07  0.759E-03    9.14       2.6  T
   3    -50.7675505 -0.102760E-07  0.592E-04    9.14      33.1  T
   4    -50.7675506 -0.143171E-08  0.229E-04    9.14      85.5  T
speedup  0.81
cpu  time for SCC    0.00 s
wall time for SCC    0.00 s
speedup  1.00
cpu  time for grad    0.01 s
wall time for grad    0.01 s
 E :    -50.46648372  G :  0.000180    pred/act E change: -0.257D-06 -0.193D-06
Maxdispl :   0.0077   ||displ|| :   0.0175   Lambda : -0.272D-06
Largest |displ|/coords:  0.0077 (   1)  0.0071 (  11)  0.0069 (   2)
................................................................................
.............................. CYCLE  239 ......................................
................................................................................
   1    -50.7675174 -0.507675E+02  0.160E-02    9.14       0.0  T
   2    -50.7675174 -0.296064E-07  0.121E-02    9.14       1.6  T
   3    -50.7675174 -0.259930E-07  0.954E-04    9.14      20.5  T
   4    -50.7675174 -0.367461E-08  0.376E-04    9.14      52.2  T
speedup  0.83
cpu  time for SCC    0.00 s
wall time for SCC    0.00 s
speedup  0.98
cpu  time for grad    0.01 s
wall time for grad    0.01 s
 E :    -50.46648391  G :  0.000165    pred/act E change: -0.119D-06 -0.183D-06
Maxdispl :   0.0036   ||displ|| :   0.0057   Lambda : -0.120D-06
Largest |displ|/coords:  0.0036 (   2)  0.0017 (   5)  0.0015 (  12)
................................................................................
.............................. CYCLE  240 ......................................
................................................................................
   1    -50.7675300 -0.507675E+02  0.432E-03    9.14       0.0  T
   2    -50.7675300 -0.342001E-08  0.325E-03    9.14       6.0  T
   3    -50.7675300 -0.262149E-08  0.394E-04    9.14      49.8  T
   4    -50.7675300 -0.477797E-09  0.148E-04    9.14     132.4  T
speedup  1.08
cpu  time for SCC    0.00 s
wall time for SCC    0.00 s
speedup  0.98
cpu  time for grad    0.01 s
wall time for grad    0.01 s
 E :    -50.46648400  G :  0.000133    pred/act E change: -0.136D-06 -0.985D-07
Maxdispl :   0.0094   ||displ|| :   0.0190   Lambda : -0.191D-06
Largest |displ|/coords:  0.0094 (   2)  0.0092 (   1)  0.0059 (  11)

   *** GEOMETRY OPTIMIZATION CONVERGED AFTER 240 ITERATIONS ***

------------------------------------------------------------------------
 total energy gain (kcal):     -0.0079
------------------------------------------------------------------------
================
 final structure:
================
$coord
        0.59073679685889        0.66041056118973        3.18592634564309      S 
        0.59940349017958        2.82627379045902        1.48518326692117      O 
        3.06527772663286       -0.13177002429846        3.97505861341668      O 
       -0.82118419725291        1.57761205119669        5.69463905365733      O 
       -0.97158234971680       -1.36766189256927        2.16836025303926      O 
       -3.95474901220147       -0.08146498683212        2.52106702923001      H 
        0.48577350328132        1.54450954733938        6.93103946446178      H 
        3.46755836246241        2.23758152722920       -2.50589707991513      O 
        2.62333392009985        2.63691519399667       -0.89483465287126      H 
       -5.40291828796586        1.05405908140577        2.57580464542254      O 
       -5.20924834872704        1.99853390658965        4.11050796756587      H 
        0.93575680581974       -5.35538862464290       -3.65475989491213      O 
        2.17349792128550       -4.62298782809808       -2.49870503892293      H 
        0.55849481879476       -7.00016047324738       -3.00161935279260      H 
        3.99627558006844       -2.65464148050523       -0.40231045968503      O 
        3.76673043586227       -2.07064234088324        1.32285345214123      H 
        4.68064683636755       -1.23020865208805       -1.30654680148618      H 
       -3.56365069382699        3.27625692042057       -1.66672184167943      O 
       -4.79034560159862        2.65110112968614       -0.44187234044536      H 
       -2.09673024643469        3.66399101714283       -0.63075073895201      H 
        3.80290713291194        3.82147283412791       -3.31834792595787      H 
       -0.81830289430552       -0.70430592739731       -2.80016056576202      N 
       -0.93356795467811       -2.34220705892877       -3.83902408700467      H 
        0.89317070216506        0.18016690921099       -3.15437144031264      H 
       -2.26197681255445        0.64578570607078       -2.97733241259575      H 
       -0.81530765252209       -1.21323090561864       -0.87718542019099      H 
$end
 
 Bond Distances (Angstroems)
 ---------------------------
S1-O2=1.4573         S1-O3=1.4370         S1-O4=1.5988         S1-O5=1.4578         O2-S1=1.4573         O3-S1=1.4370         
O4-S1=1.5988         O4-H7=0.9522         O5-S1=1.4578         H6-O10=0.9743        H7-O4=0.9522         O8-H9=0.9854         
O8-H21=0.9586        H9-O8=0.9854         O10-H6=0.9743        O10-H11=0.9591       H11-O10=0.9591       O12-H13=0.9765       
O12-H14=0.9575       H13-O12=0.9765       H14-O12=0.9575       O15-H16=0.9714       O15-H17=0.9635       H16-O15=0.9714       
H17-O15=0.9635       O18-H19=0.9752       O18-H20=0.9722       H19-O18=0.9752       H20-O18=0.9722       H21-O8=0.9586        
N22-H23=1.0282       N22-H24=1.0366       N22-H25=1.0502       N22-H26=1.0526       H23-N22=1.0282       H24-N22=1.0366       
H25-N22=1.0502       H26-N22=1.0526       
 N  H  Rav=1.0419 sigma=0.0100  Rmin=1.0282  Rmax=1.0526     4
 O  H  Rav=0.9678 sigma=0.0097  Rmin=0.9522  Rmax=0.9854    11
 S  O  Rav=1.4877 sigma=0.0647  Rmin=1.4370  Rmax=1.5988     4
 
 selected bond angles (degree)
 --------------------
O3-S1-O2=113.96                O4-S1-O2=105.99                O4-S1-O3=105.85                O5-S1-O2=110.65                
O5-S1-O3=114.17                O5-S1-O4=105.38                H7-O4-S1=103.03                H21-O8-H9=106.53               
H11-O10-H6=105.22              
 
 selected dihedral angles (degree)
 ---------------------------------
H7-O4-S1-O2=246.44            H7-O4-S1-O3=  7.80            H7-O4-S1-O5=129.09            
 
 CMA Distance (Angstroems)
 ---------------------------
R(CMA):  2.5628

========================================================================
 FINAL SINGLEPOINT CALCULATION ON OPTIMIZED GEOMETRY
========================================================================

 Ncao       : 65
 Nao        : 64
 Nshell     : 38
 Nel        : 80
 T(el)      :   300.0
 intcut     :    25.0
 scfconv/Eh :  0.100E-05
   qconv/e  :  0.100E-03
 intneglect :  0.100E-07
 broydamp   :      0.250
 iter      E             dE          RMSdq      gap      omega  full diag
   1    -50.7675300 -0.507675E+02  0.570E-05    9.14       0.0  T
   2    -50.7675300 -0.195399E-11  0.358E-05    9.14     547.8  T
   3    -50.7675300 -0.916600E-12  0.541E-06    9.14    3626.7  T
speedup  0.74
cpu  time for SCC    0.00 s
wall time for SCC    0.00 s

   *** convergence criteria satisfied after 3 iterations ***

          eigenvalues
 #    :          28         29         30         31         32         33         34         35
 occ. :        2.000      2.000      2.000      2.000      2.000      2.000      2.000      2.000
 eps  :       -13.526    -13.445    -12.768    -12.566    -12.529    -12.425    -12.318    -12.185
 #    :          36         37         38         39         40         41         42         43
 occ. :        2.000      2.000      2.000      2.000      2.000      0.000      0.000      0.000
 eps  :       -12.101    -12.002    -11.886    -11.858    -11.816     -2.672     -0.821     -0.700
 #    :          44         45         46         47         48         49         50         51
 occ. :        0.000      0.000      0.000      0.000      0.000      0.000      0.000      0.000
 eps  :         0.656      0.876      1.631      2.319      2.768      4.263      4.478      4.804


   #   Z            q   n(s)   n(p)   n(d)      C6AA      α(0)
   1  16 S      1.706  1.586  1.768  0.940    88.627    15.845
   2   8 O     -0.757  1.770  4.986  0.000    30.303     7.381
   3   8 O     -0.736  1.773  4.963  0.000    29.709     7.308
   4   8 O     -0.607  1.749  4.858  0.000    25.325     6.794
   5   8 O     -0.738  1.770  4.968  0.000    29.772     7.316
   6   1 H      0.311  0.689  0.000  0.000     0.688     1.303
   7   1 H      0.348  0.652  0.000  0.000     0.586     1.199
   8   8 O     -0.621  1.742  4.879  0.000    25.697     6.842
   9   1 H      0.329  0.671  0.000  0.000     0.639     1.256
  10   8 O     -0.610  1.739  4.871  0.000    25.432     6.806
  11   1 H      0.288  0.712  0.000  0.000     0.758     1.367
  12   8 O     -0.611  1.741  4.870  0.000    25.456     6.810
  13   1 H      0.329  0.671  0.000  0.000     0.641     1.258
  14   1 H      0.280  0.720  0.000  0.000     0.783     1.390
  15   8 O     -0.626  1.740  4.887  0.000    25.822     6.858
  16   1 H      0.309  0.691  0.000  0.000     0.695     1.310
  17   1 H      0.307  0.693  0.000  0.000     0.699     1.314
  18   8 O     -0.617  1.752  4.865  0.000    25.587     6.827
  19   1 H      0.320  0.680  0.000  0.000     0.663     1.279
  20   1 H      0.311  0.689  0.000  0.000     0.690     1.305
  21   1 H      0.292  0.708  0.000  0.000     0.746     1.356
  22   7 N     -0.346  1.271  4.075  0.000    28.879     7.981
  23   1 H      0.279  0.721  0.000  0.000     0.780     1.384
  24   1 H      0.281  0.719  0.000  0.000     0.773     1.377
  25   1 H      0.289  0.711  0.000  0.000     0.747     1.354
  26   1 H      0.289  0.711  0.000  0.000     0.746     1.353

 Mol. C6AA /au·bohr⁶  :       5447.785188
 Mol. C8AA /au·bohr⁸  :     117813.744290
 Mol. α(0) /au        :        106.571643

 
 Wiberg/Mayer (AO) data. WBOs > 0.1 written file <wbo>
 largest (>0.05) Wiberg bond orders for each atom
           total WBO             WBO to atom ...
     1  S   4.820    O    3 1.362    O    2 1.283    O    5 1.268    O    4 0.871
     2  O   1.710    S    1 1.283    O    3 0.111    O    5 0.111    O    4 0.068    H    9 0.066
     3  O   1.727    S    1 1.362    O    2 0.111    O    5 0.108    O    4 0.079
     4  O   1.953    S    1 0.871    H    7 0.862    O    3 0.079    O    2 0.068    O    5 0.065
     5  O   1.754    S    1 1.268    O    2 0.111    O    3 0.108    H   26 0.088    O    4 0.065
     6  H   0.903    O   10 0.851
     7  H   0.879    O    4 0.862
     8  O   1.866    H   21 0.907    H    9 0.821    H   24 0.055
     9  H   0.891    O    8 0.821    O    2 0.066
    10  O   1.852    H   11 0.912    H    6 0.851
    11  H   0.917    O   10 0.912
    12  O   1.844    H   14 0.917    H   13 0.850
    13  H   0.892    O   12 0.850
    14  H   0.921    O   12 0.917
    15  O   1.840    H   17 0.889    H   16 0.856
    16  H   0.905    O   15 0.856
    17  H   0.906    O   15 0.889
    18  O   1.896    H   20 0.870    H   19 0.855    H   25 0.084
    19  H   0.897    O   18 0.855
    20  H   0.904    O   18 0.870
    21  H   0.915    O    8 0.907
    22  N   3.535    H   23 0.882    H   24 0.858    H   25 0.826    H   26 0.818
    23  H   0.922    N   22 0.882
    24  H   0.921    N   22 0.858    O    8 0.055
    25  H   0.916    N   22 0.826    O   18 0.084
    26  H   0.916    N   22 0.818    O    5 0.088
 MOs/occ written to file <molden.input>
 
molecular dipole:
                 x           y           z       tot (Debye)
 q only:       -0.138       0.055      -1.155
   full:        0.224       0.383       0.013       1.128
molecular quadrupole (traceless):
                xx          xy          yy          xz          yz          zz
 q only:       -9.526       6.327       1.837      -1.813       1.951       7.689
  q+dip:      -13.269       8.903       3.870      -2.596       2.141       9.398
   full:      -13.558       9.055       3.533      -2.718       2.357      10.025

SCC energy    :     -50.7675300
rep           :       0.3007524
ES            :       0.2631328
AES           :      -0.0767377
AXC           :      -0.0082462
disp          :      -0.0201573
XB            :       0.0000000
fix           :       0.0000000
total E       :     -50.4664840
atomizationE  :       4.9967882     3135.53
(atE without considering molecular charge,
 total energy contains solvation terms)
H-L gap (eV)  :          9.1436
optimized geometry written to: xtbopt.xyz


------------------------------------------------------------------------
 * finished run on 2019/09/16 at 11:53:50.915     
------------------------------------------------------------------------
 total:
 * wall-time:     0 d,  0 h,  0 min,  4.989 sec
 *  cpu-time:     0 d,  0 h,  0 min,  4.948 sec
 * ratio c/w:     0.992 speedup
 SCF:
 * wall-time:     0 d,  0 h,  0 min,  0.145 sec
 *  cpu-time:     0 d,  0 h,  0 min,  0.142 sec
 * ratio c/w:     0.978 speedup
 ANC optimizer:
 * wall-time:     0 d,  0 h,  0 min,  4.818 sec
 *  cpu-time:     0 d,  0 h,  0 min,  4.784 sec
 * ratio c/w:     0.993 speedup

