      -----------------------------------------------------------      
     |                   =====================                   |     
     |                           x T B                           |     
     |                   =====================                   |     
     |                         S. Grimme                         |     
     |          Mulliken Center for Theoretical Chemistry        |     
     |                    University of Bonn                     |     
     |                 Version 6.0.1 (SAW181210)                 |     
      -----------------------------------------------------------      

   This program is distributed in the hope that it will be useful,
   but WITHOUT ANY WARRANTY; without even the implied warranty of
   MERCHANTABILITY or FITNESS FOR A PARTICULAR PURPOSE.
   
   FOR NON-COMMERCIAL, ACADEMIA USE ONLY.
   
   Cite this work as:
   S. Grimme, C. Bannwarth, P. Shushkov, J. Comput. Theory Chem., 2017,
   13, 1989-2009.
   C. Bannwarth, S. Ehlert and S. Grimme., ChemRxiv, 2018, preprint.
   http://doi.org/10.26434/chemrxiv.7246238.v1
   
   for sTDA-xTB:
   S. Grimme and C. Bannwarth, J. Chem. Phys., 2016, 145, 054103.
   
   in the mass-spec context:
   V. Asgeirsson, C. Bauer and S. Grimme, Chem. Sci., 2017, 8, 4879.
   
   if GBSA is used:
   P. Shushkov, F. März and S. Grimme, unpublished.
   
   for ANC optimizer:
   S. Grimme, unpublished.
   Rational Function algorithm used in ANCopt:
   F. Eckert, P. Pulay, H.-J. Werner, J. Comput. Chem., 1997, 18, 1473.
   
   with help from (in alphabetical order)
   C. Bannwarth, F. Bohle, G. Brandenburg, E. Caldeweyher, M. Checinski,
   S. Dohm, S. Ehlert, S. Ehrlich, F. März, H. Neugebauer, J. Pisarek,
   P. Pracht, P. Shushkov, and S. Spicher.
   
 * started run on 2019/09/16 at 11:35:04.649     
========================================================================
 # omp threads = 1
========================================================================
number of atoms            : 26
number of electrons        : 80
charge                     : 0
spin                       : .0
first test random number   : .6817

########################################################################
# WARNING! Please study the warnings concerning your input carefully
#  - XTBPATH is not set, using XTBHOME instead
#  - the use of '-opt' is discouraged, please use '--opt' next time
#  - the use of '-chrg' is discouraged, please use '--chrg' next time
#  - the use of '-uhf' is discouraged, please use '--uhf' next time
########################################################################

           ------------------------------------------------- 
          |                 G F N 2 - x T B                 |
          | Geometry, Frequencies, Noncovalent interactions |
          |            JCTC 2018 parametrisation            |
           ------------------------------------------------- 
      method parameters     
 k(s)        :  1.8500
 k(p)        :  2.2300
 k(d)        :  2.2300
 k(f)        :  2.0000
 kEN (H0ij)  : -2.0000
 D4 a1       :  0.5200
 D4 a2       :  5.0000
 D4 s6       :  1.0000
 D4 s8       :  2.7000
 D4 s9       :  5.0000
 alphaj      :  2.0000


            Z     q(EN)     CN     RAES       Cart. coordinates
     1  S   6.0    0.59    4.29    4.23    -5.73258     0.63378    -3.65081
     2  O   6.0   -0.32    1.19    1.80    -4.51685     1.22052    -1.25098
     3  O   6.0   -0.27    1.09    1.80    -8.35233    -0.09832    -3.84727
     4  O   6.0   -0.23    2.02    1.83    -5.13984     2.98728    -5.56264
     5  O   6.0   -0.23    2.08    1.84    -4.16780    -1.50604    -5.14758
     6  H   1.0    0.18    1.30    1.50    -2.36554    -1.18964    -4.95247
     7  H   1.0    0.14    1.12    1.45    -5.04830     4.51192    -4.53625
     8  O   6.0   -0.40    1.60    1.81     0.97050    -3.37836     2.39978
     9  H   1.0    0.18    0.94    1.42     0.37340    -5.14568     2.33791
    10  O   6.0   -0.35    1.53    1.80     0.10352    -0.02015    -4.30448
    11  H   1.0    0.17    0.95    1.42     0.60749     0.80363    -5.90172
    12  O   6.0   -0.40    1.60    1.81     2.91160     2.57663     2.10516
    13  H   1.0    0.18    0.94    1.42     3.48775     4.33796     1.88263
    14  O   6.0   -0.23    2.96    2.69     2.93788    -0.88333    -0.92189
    15  H   1.0    0.16    1.15    1.45     3.20717     0.70141     0.02992
    16  H   1.0    0.16    1.14    1.45     2.23917    -2.23854     0.15756
    17  H   1.0    0.17    1.24    1.47     1.90703    -0.61082    -2.45635
    18  O   6.0   -0.23    2.94    2.63    -1.21216     0.63373     2.45383
    19  H   1.0    0.16    1.05    1.44    -2.44024     0.94692     1.08139
    20  H   1.0    0.16    1.16    1.46    -0.69090    -1.15854     2.53173
    21  H   1.0    0.16    1.16    1.46     0.25634     1.78486     2.35426
    22  N   5.0   -0.15    3.96    2.76     4.13294    -0.98185     5.03965
    23  H   1.0    0.12    1.13    1.45     3.93203     0.71031     4.10120
    24  H   1.0    0.08    0.99    1.43     5.97600    -1.58777     4.89674
    25  H   1.0    0.08    0.99    1.43     3.67266    -0.74220     6.91453
    26  H   1.0    0.12    1.13    1.45     2.95107    -2.30773     4.24615

  Z AO/shell   Hii/eV     exponent
  1     Wed Apr 25 08:07:45 CEST 2018   EN: 2.200 GM2: 0.406  GM3: 0.0800  RAES: 1.40
     1s    -10.707211    1.230000
  7     Wed Apr 25 08:07:45 CEST 2018   EN: 3.040 GM2: 0.461  GM3:-0.0640  RAES: 1.90
     2s    -16.686243    2.339881
     2p    -12.523956    2.014332
  8     Wed Apr 25 08:07:45 CEST 2018   EN: 3.440 GM2: 0.452  GM3:-0.0517  RAES: 1.80
     2s    -20.229985    2.439742
     2p    -15.503117    2.137023
 16     Tue Apr 24 11:44:34 CEST 2018   EN: 2.580 GM2: 0.340  GM3:-0.0502  RAES: 3.10
     3s    -20.029654    1.981333
     3p    -11.377694    2.025643
     3d     -0.420282    1.702555
 no old-style atom pair restraining (fixing) potential

molecular fragmentation (1/2 indicates fragments):
11111112222222222222222222
# atoms in fragment 1/2:     7    19
 fragment masses (1/2) :       98.07      107.11
CMA distance (Bohr)    :   8.821
constraining FC (au)   :  0.0500
           ------------------------------------------------- 
          |        Self-Consistent Charge Iterations        |
           ------------------------------------------------- 

 Ncao       : 65
 Nao        : 64
 Nshell     : 38
 Nel        : 80
 T(el)      :   300.0
 intcut     :    25.0
 scfconv/Eh :  0.100E-05
   qconv/e  :  0.100E-03
 intneglect :  0.100E-07
 broydamp   :      0.250
 iter      E             dE          RMSdq      gap      omega  full diag
   1    -50.4692109 -0.504692E+02  0.714E+00    8.09       0.0  T
   2    -50.5235795 -0.543686E-01  0.503E+00    6.86       1.0  T
   3    -50.5681893 -0.446098E-01  0.124E+00    3.62       1.0  T
   4    -50.5720806 -0.389130E-02  0.690E-01    3.86       1.0  T
   5    -50.5734722 -0.139161E-02  0.296E-01    3.89       1.0  T
   6    -50.5738789 -0.406776E-03  0.168E-01    3.97       1.0  T
   7    -50.5740610 -0.182089E-03  0.458E-02    3.99       1.0  T
   8    -50.5740722 -0.111927E-04  0.264E-02    3.98       1.0  T
   9    -50.5740757 -0.347267E-05  0.106E-02    3.99       1.8  T
  10    -50.5740763 -0.557251E-06  0.320E-03    4.00       6.1  T
  11    -50.5740763 -0.350251E-07  0.144E-03    4.00      13.6  T
  12    -50.5740763 -0.930324E-08  0.465E-04    4.00      42.2  T
  13    -50.5740763 -0.912202E-09  0.178E-04    4.00     110.1  T
speedup  0.97
cpu  time for SCC    0.01 s
wall time for SCC    0.02 s

   *** convergence criteria satisfied after 13 iterations ***

          eigenvalues
 #    :          28         29         30         31         32         33         34         35
 occ. :        2.000      2.000      2.000      2.000      2.000      2.000      2.000      2.000
 eps  :       -12.793    -12.408    -12.298    -12.156    -11.977    -11.862    -11.192    -10.691
 #    :          36         37         38         39         40         41         42         43
 occ. :        2.000      2.000      2.000      2.000      2.000      0.000      0.000      0.000
 eps  :       -10.560    -10.463    -10.357     -8.696     -8.367     -4.370     -1.720     -1.537
 #    :          44         45         46         47         48         49         50         51
 occ. :        0.000      0.000      0.000      0.000      0.000      0.000      0.000      0.000
 eps  :        -0.523      0.630      1.171      2.534      2.793      3.186      3.918      4.178


   #   Z            q   n(s)   n(p)   n(d)      C6AA      α(0)
   1  16 S      1.636  1.629  1.804  0.931    90.238    15.988
   2   8 O     -0.679  1.754  4.925  0.000    28.129     7.111
   3   8 O     -0.625  1.772  4.854  0.000    26.749     6.934
   4   8 O     -0.563  1.761  4.802  0.000    24.279     6.652
   5   8 O     -0.588  1.760  4.827  0.000    24.863     6.731
   6   1 H      0.388  0.612  0.000  0.000     0.502     1.111
   7   1 H      0.339  0.661  0.000  0.000     0.613     1.228
   8   8 O     -0.854  1.817  5.038  0.000    33.265     7.733
   9   1 H      0.200  0.800  0.000  0.000     1.117     1.660
  10   8 O     -0.890  1.838  5.051  0.000    34.367     7.862
  11   1 H      0.177  0.823  0.000  0.000     1.244     1.752
  12   8 O     -0.854  1.817  5.037  0.000    33.261     7.733
  13   1 H      0.197  0.803  0.000  0.000     1.134     1.673
  14   8 O     -0.518  1.683  4.835  0.000    23.224     6.509
  15   1 H      0.378  0.622  0.000  0.000     0.524     1.136
  16   1 H      0.378  0.622  0.000  0.000     0.524     1.135
  17   1 H      0.391  0.609  0.000  0.000     0.494     1.099
  18   8 O     -0.478  1.666  4.812  0.000    22.366     6.387
  19   1 H      0.391  0.609  0.000  0.000     0.502     1.113
  20   1 H      0.400  0.600  0.000  0.000     0.480     1.087
  21   1 H      0.400  0.600  0.000  0.000     0.481     1.088
  22   7 N     -0.306  1.266  4.040  0.000    27.868     7.841
  23   1 H      0.313  0.687  0.000  0.000     0.675     1.286
  24   1 H      0.227  0.773  0.000  0.000     0.979     1.550
  25   1 H      0.224  0.776  0.000  0.000     0.990     1.559
  26   1 H      0.314  0.686  0.000  0.000     0.672     1.284

 Mol. C6AA /au·bohr⁶  :       5530.503710
 Mol. C8AA /au·bohr⁸  :     119686.130353
 Mol. α(0) /au        :        107.241688

 
 Wiberg/Mayer (AO) data. WBOs > 0.1 written file <wbo>
 largest (>0.05) Wiberg bond orders for each atom
           total WBO             WBO to atom ...
     1  S   4.781    O    3 1.480    O    2 1.365    O    5 1.018    O    4 0.885
     2  O   1.765    S    1 1.365    O    3 0.135    O    5 0.102    O    4 0.086    H   19 0.060
     3  O   1.815    S    1 1.480    O    2 0.135    O    5 0.094    O    4 0.091
     4  O   1.989    S    1 0.885    H    7 0.867    O    3 0.091    O    2 0.086    O    5 0.057
     5  O   1.994    S    1 1.018    H    6 0.656    O    2 0.102    O    3 0.094    O    4 0.057    O   10 0.054
     6  H   0.849    O    5 0.656    O   10 0.177
     7  H   0.885    O    4 0.867
     8  O   1.595    H    9 0.943    H   20 0.170    H   16 0.149    H   26 0.148    N   22 0.064    O   18 0.055    O   14 0.053
     9  H   0.960    O    8 0.943
    10  O   1.482    H   11 0.962    H   17 0.206    H    6 0.177    O   14 0.063    O    5 0.054
    11  H   0.969    O   10 0.962
    12  O   1.591    H   13 0.944    H   21 0.167    H   15 0.149    H   23 0.146    N   22 0.064    O   18 0.055    O   14 0.053
    13  H   0.961    O   12 0.944
    14  O   2.227    H   15 0.702    H   16 0.702    H   17 0.632    O   10 0.063    O    8 0.053    O   12 0.053
    15  H   0.857    O   14 0.702    O   12 0.149
    16  H   0.857    O   14 0.702    O    8 0.149
    17  H   0.847    O   14 0.632    O   10 0.206
    18  O   2.265    H   19 0.777    H   21 0.668    H   20 0.665    O    8 0.055    O   12 0.055
    19  H   0.847    O   18 0.777    O    2 0.060
    20  H   0.840    O   18 0.665    O    8 0.170
    21  H   0.840    O   18 0.668    O   12 0.167
    22  N   3.529    H   25 0.944    H   24 0.943    H   23 0.751    H   26 0.749    O    8 0.064    O   12 0.064
    23  H   0.902    N   22 0.751    O   12 0.146
    24  H   0.948    N   22 0.943
    25  H   0.950    N   22 0.944
    26  H   0.901    N   22 0.749    O    8 0.148
 MOs/occ written to file <molden.input>
 
molecular dipole:
                 x           y           z       tot (Debye)
 q only:        2.892       0.437       4.283
   full:        3.056       0.764       4.023      12.987
molecular quadrupole (traceless):
                xx          xy          yy          xz          yz          zz
 q only:       -6.412     -12.432       2.522       3.815      -8.448       3.890
  q+dip:      -10.550     -12.662       6.634       4.456     -11.498       3.916
   full:      -10.872     -12.419       7.212       4.387     -11.746       3.660

SCC energy    :     -50.5740763
rep           :       0.2635916
ES            :       0.3417148
AES           :      -0.0573145
AXC           :      -0.0053565
disp          :      -0.0169351
XB            :       0.0000000
fix           :       0.0000000
total E       :     -50.3103090
atomizationE  :       4.8406131     3037.53
(atE without considering molecular charge,
 total energy contains solvation terms)
H-L gap (eV)  :          3.9971
           ------------------------------------------------- 
          |                 ===============                 |
          |                   A N C O P T                   |
          |                 ===============                 |
          |          Approximate Normal Coordinate          |
          |           Rational Function Optimizer           |
           ------------------------------------------------- 
dumping coords to <xtbopt.coord> and <xtbopt.log>
 optlevel               2
 Maxcycle             520
 Maxmicro              25
 Econv         1.000000000000000E-007
 Gconv         2.000000000000000E-004
 Maxdispl       1.00000000000000     
 Hlow          5.000000000000000E-003
 S6             20.0000000000000     
 Nvar               72

generating ANC from model Hessian ...
 Shifting diagonal of input Hessian by   5.024143164416951E-003
 Lowest  eigenvalues of input Hessian
    0.005000   -0.000000   -0.000000   -0.000000    0.000000    0.000000
    0.000000    0.005032    0.005441    0.005593    0.006001    0.006667
    0.007148    0.007636    0.008350    0.008463    0.009772    0.012741
 Highest eigenvalues
    1.587434    1.596982    1.610551    1.953889    2.771093    3.593948
 
cpu  time for ANC gen    0.02 s
wall time for ANC gen    0.02 s
................................................................................
.............................. CYCLE    1 ......................................
................................................................................
   1    -50.5740763 -0.505741E+02  0.485E-05    4.00       0.0  T
   2    -50.5740763 -0.423483E-11  0.377E-05    4.00     520.4  T
   3    -50.5740763 -0.301270E-11  0.159E-05    4.00    1231.6  T
speedup  0.97
cpu  time for SCC    0.00 s
wall time for SCC    0.00 s
speedup  0.99
cpu  time for grad    0.01 s
wall time for grad    0.01 s
 E :    -50.31030893  G :  0.231206    pred/act E change:  0.000D+00  0.226D-07
Maxdispl :   0.1059   ||displ|| :   0.2643   Lambda : -0.491D-01
Largest |displ|/coords:  0.1059 (  56)  0.0955 (  55)  0.0737 (  53)
................................................................................
.............................. CYCLE    2 ......................................
................................................................................
   1    -50.5956283 -0.505956E+02  0.367E-01    4.88       0.0  T
   2    -50.5960352 -0.406885E-03  0.265E-01    5.02       1.0  T
   3    -50.5962106 -0.175402E-03  0.839E-02    5.27       1.0  T
   4    -50.5962344 -0.238215E-04  0.253E-02    5.27       1.0  T
   5    -50.5962354 -0.103280E-05  0.686E-03    5.26       2.9  T
   6    -50.5962355 -0.862460E-07  0.396E-03    5.26       5.0  T
   7    -50.5962355 -0.344601E-07  0.162E-03    5.26      12.1  T
speedup  1.09
cpu  time for SCC    0.01 s
wall time for SCC    0.01 s
speedup  1.01
cpu  time for grad    0.01 s
wall time for grad    0.01 s
 E :    -50.34791925  G :  0.132510    pred/act E change:  0.000D+00 -0.376D-01
Maxdispl :   0.0903   ||displ|| :   0.2604   Lambda : -0.205D-01
Largest |displ|/coords:  0.0903 (  16)  0.0782 (  24)  0.0704 (  46)
................................................................................
.............................. CYCLE    3 ......................................
................................................................................
   1    -50.6068204 -0.506068E+02  0.318E-01    6.01       0.0  T
   2    -50.6072467 -0.426257E-03  0.223E-01    6.18       1.0  T
   3    -50.6074266 -0.179941E-03  0.833E-02    6.46       1.0  T
   4    -50.6074407 -0.140598E-04  0.208E-02    6.48       1.0  T
   5    -50.6074418 -0.110606E-05  0.616E-03    6.46       3.2  T
   6    -50.6074418 -0.631092E-07  0.375E-03    6.47       5.2  T
   7    -50.6074419 -0.306834E-07  0.146E-03    6.46      13.4  T
speedup  0.94
cpu  time for SCC    0.01 s
wall time for SCC    0.01 s
speedup  0.95
cpu  time for grad    0.01 s
wall time for grad    0.01 s
 E :    -50.36466182  G :  0.085948    pred/act E change: -0.263D-01 -0.167D-01
Maxdispl :   0.1559   ||displ|| :   0.3191   Lambda : -0.113D-01
Largest |displ|/coords:  0.1559 (   6)  0.1202 (  16)  0.1055 (  12)
................................................................................
.............................. CYCLE    4 ......................................
................................................................................
   1    -50.6111268 -0.506111E+02  0.339E-01    7.03       0.0  T
   2    -50.6115488 -0.421984E-03  0.237E-01    7.22       1.0  T
   3    -50.6117299 -0.181173E-03  0.881E-02    7.52       1.0  T
   4    -50.6117453 -0.154006E-04  0.206E-02    7.54       1.0  T
   5    -50.6117470 -0.163934E-05  0.769E-03    7.52       2.5  T
   6    -50.6117471 -0.935749E-07  0.439E-03    7.52       4.5  T
   7    -50.6117471 -0.283166E-07  0.158E-03    7.52      12.4  T
speedup  0.94
cpu  time for SCC    0.01 s
wall time for SCC    0.01 s
speedup  1.01
cpu  time for grad    0.01 s
wall time for grad    0.01 s
 E :    -50.37394399  G :  0.059327    pred/act E change: -0.109D-01 -0.928D-02
Maxdispl :   0.1835   ||displ|| :   0.2900   Lambda : -0.646D-02
Largest |displ|/coords:  0.1835 (   6)  0.1136 (  16)  0.0601 (  27)
................................................................................
.............................. CYCLE    5 ......................................
................................................................................
   1    -50.6158562 -0.506159E+02  0.216E-01    7.89       0.0  T
   2    -50.6160866 -0.230369E-03  0.150E-01    8.03       1.0  T
   3    -50.6161876 -0.100987E-03  0.617E-02    8.19       1.0  T
   4    -50.6161942 -0.659393E-05  0.145E-02    8.21       1.4  T
   5    -50.6161948 -0.688034E-06  0.492E-03    8.20       4.0  T
   6    -50.6161949 -0.305363E-07  0.299E-03    8.20       6.5  T
speedup  1.09
cpu  time for SCC    0.01 s
wall time for SCC    0.01 s
speedup  1.00
cpu  time for grad    0.01 s
wall time for grad    0.01 s
 E :    -50.37924234  G :  0.039701    pred/act E change: -0.621D-02 -0.530D-02
Maxdispl :   0.2725   ||displ|| :   0.5791   Lambda : -0.914D-02
Largest |displ|/coords:  0.2725 (  12)  0.2382 (  16)  0.2370 (   6)
................................................................................
.............................. CYCLE    6 ......................................
................................................................................
   1    -50.6059473 -0.506059E+02  0.660E-01    8.57       0.0  T
   2    -50.6077663 -0.181903E-02  0.449E-01    8.74       1.0  T
   3    -50.6084849 -0.718578E-03  0.181E-01    8.87       1.0  T
   4    -50.6085416 -0.567403E-04  0.387E-02    8.87       1.0  T
   5    -50.6085489 -0.726632E-05  0.173E-02    8.87       1.1  T
   6    -50.6085496 -0.723801E-06  0.107E-02    8.87       1.8  T
   7    -50.6085498 -0.168833E-06  0.291E-03    8.87       6.7  T
   8    -50.6085498 -0.163661E-07  0.774E-04    8.87      25.3  T
speedup  0.96
cpu  time for SCC    0.01 s
wall time for SCC    0.01 s
speedup  1.01
cpu  time for grad    0.01 s
wall time for grad    0.01 s
 E :    -50.38213251  G :  0.068418    pred/act E change: -0.350D-02 -0.289D-02
Maxdispl :   0.2303   ||displ|| :   0.5177   Lambda : -0.161D-01
Largest |displ|/coords:  0.2303 (   5)  0.2180 (   7)  0.1851 (  13)
................................................................................
.............................. CYCLE    7 ......................................
................................................................................
   1    -50.6265237 -0.506265E+02  0.693E-01    8.88       0.0  T
   2    -50.6268462 -0.322499E-03  0.516E-01    8.88       1.0  T
   3    -50.6270649 -0.218632E-03  0.101E-01    8.86       1.0  T
   4    -50.6271006 -0.356966E-04  0.347E-02    8.86       1.0  T
   5    -50.6271034 -0.279277E-05  0.110E-02    8.87       1.8  T
   6    -50.6271034 -0.301051E-07  0.559E-03    8.87       3.5  T
   7    -50.6271035 -0.109999E-06  0.113E-03    8.87      17.3  T
speedup  1.06
cpu  time for SCC    0.01 s
wall time for SCC    0.01 s
speedup  0.99
cpu  time for grad    0.01 s
wall time for grad    0.01 s
 E :    -50.38035006  G :  0.093329    pred/act E change: -0.610D-02  0.178D-02
Maxdispl :   0.1458   ||displ|| :   0.2910   Lambda : -0.847D-02
Largest |displ|/coords:  0.1458 (   6)  0.1016 (   9)  0.1015 (  10)
................................................................................
.............................. CYCLE    8 ......................................
................................................................................
   1    -50.6205331 -0.506205E+02  0.353E-01    8.84       0.0  T
   2    -50.6206175 -0.843939E-04  0.261E-01    8.85       1.0  T
   3    -50.6206676 -0.501747E-04  0.527E-02    8.86       1.0  T
   4    -50.6206770 -0.933587E-05  0.151E-02    8.86       1.3  T
   5    -50.6206776 -0.584202E-06  0.468E-03    8.85       4.2  T
   6    -50.6206776 -0.449847E-07  0.287E-03    8.85       6.8  T
speedup  0.88
cpu  time for SCC    0.00 s
wall time for SCC    0.01 s
speedup  0.98
cpu  time for grad    0.01 s
wall time for grad    0.01 s
 E :    -50.38557860  G :  0.018403    pred/act E change: -0.102D-01 -0.523D-02
Maxdispl :   0.1378   ||displ|| :   0.3372   Lambda : -0.252D-02
Largest |displ|/coords:  0.1378 (  16)  0.1212 (   2)  0.1199 (   6)
................................................................................
.............................. CYCLE    9 ......................................
................................................................................
   1    -50.6138741 -0.506139E+02  0.356E-01    8.86       0.0  T
   2    -50.6142139 -0.339811E-03  0.249E-01    8.87       1.0  T
   3    -50.6143528 -0.138853E-03  0.890E-02    8.87       1.0  T
   4    -50.6143692 -0.164731E-04  0.197E-02    8.87       1.0  T
   5    -50.6143712 -0.191434E-05  0.703E-03    8.87       2.8  T
   6    -50.6143712 -0.892307E-07  0.472E-03    8.87       4.2  T
   7    -50.6143713 -0.212155E-07  0.114E-03    8.87      17.2  T
   8    -50.6143713 -0.307714E-08  0.300E-04    8.87      65.4  T
speedup  1.05
cpu  time for SCC    0.01 s
wall time for SCC    0.01 s
speedup  1.05
cpu  time for grad    0.02 s
wall time for grad    0.02 s
 E :    -50.38591790  G :  0.048155    pred/act E change: -0.459D-02 -0.339D-03
Maxdispl :   0.0751   ||displ|| :   0.1753   Lambda : -0.259D-02
Largest |displ|/coords:  0.0751 (   2)  0.0743 (   4)  0.0654 (   7)
................................................................................
.............................. CYCLE   10 ......................................
................................................................................
   1    -50.6203618 -0.506204E+02  0.159E-01    8.87       0.0  T
   2    -50.6203765 -0.147128E-04  0.119E-01    8.87       1.0  T
   3    -50.6203874 -0.108870E-04  0.203E-02    8.86       1.0  T
   4    -50.6203889 -0.147285E-05  0.860E-03    8.86       2.3  T
   5    -50.6203890 -0.122837E-06  0.227E-03    8.86       8.6  T
   6    -50.6203890 -0.777085E-08  0.123E-03    8.86      15.9  T
speedup  1.03
cpu  time for SCC    0.01 s
wall time for SCC    0.01 s
speedup  0.98
cpu  time for grad    0.01 s
wall time for grad    0.01 s
 E :    -50.38742447  G :  0.021626    pred/act E change: -0.140D-02 -0.151D-02
Maxdispl :   0.1338   ||displ|| :   0.2938   Lambda : -0.126D-02
Largest |displ|/coords:  0.1338 (   2)  0.1292 (   6)  0.1224 (  10)
................................................................................
.............................. CYCLE   11 ......................................
................................................................................
   1    -50.6228201 -0.506228E+02  0.172E-01    8.82       0.0  T
   2    -50.6228519 -0.318105E-04  0.127E-01    8.83       1.0  T
   3    -50.6228670 -0.150642E-04  0.312E-02    8.84       1.0  T
   4    -50.6228708 -0.377859E-05  0.911E-03    8.83       2.2  T
   5    -50.6228710 -0.236387E-06  0.307E-03    8.83       6.4  T
   6    -50.6228710 -0.129033E-07  0.168E-03    8.83      11.6  T
speedup  1.05
cpu  time for SCC    0.01 s
wall time for SCC    0.01 s
speedup  0.98
cpu  time for grad    0.01 s
wall time for grad    0.01 s
 E :    -50.38823490  G :  0.016905    pred/act E change: -0.134D-02 -0.810D-03
Maxdispl :   0.1900   ||displ|| :   0.3707   Lambda : -0.130D-02
Largest |displ|/coords:  0.1900 (   2)  0.1303 (  16)  0.1078 (   6)
................................................................................
.............................. CYCLE   12 ......................................
................................................................................
   1    -50.6248950 -0.506249E+02  0.235E-01    8.77       0.0  T
   2    -50.6249756 -0.806048E-04  0.172E-01    8.77       1.0  T
   3    -50.6250117 -0.361099E-04  0.487E-02    8.78       1.0  T
   4    -50.6250195 -0.779450E-05  0.129E-02    8.78       1.5  T
   5    -50.6250201 -0.593818E-06  0.426E-03    8.78       4.6  T
   6    -50.6250201 -0.243945E-07  0.257E-03    8.78       7.6  T
   7    -50.6250201 -0.879555E-08  0.740E-04    8.78      26.5  T
speedup  0.91
cpu  time for SCC    0.01 s
wall time for SCC    0.01 s
speedup  0.99
cpu  time for grad    0.01 s
wall time for grad    0.01 s
 E :    -50.38909677  G :  0.017124    pred/act E change: -0.687D-03 -0.862D-03
Maxdispl :   0.1458   ||displ|| :   0.2903   Lambda : -0.999D-03
Largest |displ|/coords:  0.1458 (   2)  0.1095 (   5)  0.0944 (  16)
................................................................................
.............................. CYCLE   13 ......................................
................................................................................
   1    -50.6280546 -0.506281E+02  0.192E-01    8.76       0.0  T
   2    -50.6281036 -0.490140E-04  0.140E-01    8.76       1.0  T
   3    -50.6281253 -0.217496E-04  0.395E-02    8.76       1.0  T
   4    -50.6281300 -0.468618E-05  0.107E-02    8.76       1.8  T
   5    -50.6281304 -0.389622E-06  0.337E-03    8.76       5.8  T
   6    -50.6281304 -0.138090E-07  0.203E-03    8.76       9.7  T
   7    -50.6281304 -0.510511E-08  0.592E-04    8.76      33.1  T
speedup  1.09
cpu  time for SCC    0.01 s
wall time for SCC    0.01 s
speedup  1.01
cpu  time for grad    0.01 s
wall time for grad    0.01 s
 E :    -50.38975499  G :  0.018959    pred/act E change: -0.741D-03 -0.658D-03
Maxdispl :   0.1503   ||displ|| :   0.3375   Lambda : -0.124D-02
Largest |displ|/coords:  0.1503 (   5)  0.1052 (   2)  0.0879 (  16)
................................................................................
.............................. CYCLE   14 ......................................
................................................................................
   1    -50.6316569 -0.506317E+02  0.222E-01    8.79       0.0  T
   2    -50.6316826 -0.256945E-04  0.164E-01    8.78       1.0  T
   3    -50.6317012 -0.185568E-04  0.342E-02    8.75       1.0  T
   4    -50.6317042 -0.302867E-05  0.966E-03    8.75       2.0  T
   5    -50.6317044 -0.159444E-06  0.343E-03    8.75       5.7  T
   6    -50.6317044 -0.185152E-07  0.166E-03    8.75      11.8  T
   7    -50.6317044 -0.653612E-08  0.603E-04    8.75      32.5  T
speedup  0.92
cpu  time for SCC    0.01 s
wall time for SCC    0.01 s
speedup  1.00
cpu  time for grad    0.01 s
wall time for grad    0.01 s
 E :    -50.39065654  G :  0.024743    pred/act E change: -0.541D-03 -0.902D-03
Maxdispl :   0.2159   ||displ|| :   0.4679   Lambda : -0.208D-02
Largest |displ|/coords:  0.2159 (   5)  0.1644 (   2)  0.1261 (  20)
................................................................................
.............................. CYCLE   15 ......................................
................................................................................
   1    -50.6359845 -0.506360E+02  0.348E-01    8.78       0.0  T
   2    -50.6360663 -0.818668E-04  0.255E-01    8.77       1.0  T
   3    -50.6361164 -0.500876E-04  0.595E-02    8.74       1.0  T
   4    -50.6361263 -0.986188E-05  0.201E-02    8.74       1.0  T
   5    -50.6361269 -0.599531E-06  0.553E-03    8.74       3.5  T
   6    -50.6361269 -0.648051E-07  0.290E-03    8.74       6.8  T
speedup  1.07
cpu  time for SCC    0.01 s
wall time for SCC    0.01 s
speedup  1.07
cpu  time for grad    0.01 s
wall time for grad    0.01 s
 E :    -50.39246185  G :  0.037031    pred/act E change: -0.688D-03 -0.181D-02
Maxdispl :   0.3038   ||displ|| :   0.6652   Lambda : -0.510D-02
Largest |displ|/coords:  0.3038 (   5)  0.1926 (  18)  0.1896 (   1)
................................................................................
.............................. CYCLE   16 ......................................
................................................................................
   1    -50.6534421 -0.506534E+02  0.540E-01    8.92       0.0  T
   2    -50.6537769 -0.334797E-03  0.397E-01    8.90       1.0  T
   3    -50.6539523 -0.175409E-03  0.115E-01    8.86       1.0  T
   4    -50.6539883 -0.359784E-04  0.394E-02    8.85       1.0  T
   5    -50.6539908 -0.255921E-05  0.104E-02    8.86       1.9  T
   6    -50.6539910 -0.199390E-06  0.542E-03    8.86       3.6  T
   7    -50.6539911 -0.497133E-07  0.196E-03    8.86      10.0  T
speedup  1.09
cpu  time for SCC    0.01 s
wall time for SCC    0.01 s
speedup  0.99
cpu  time for grad    0.01 s
wall time for grad    0.01 s
 E :    -50.39605954  G :  0.069853    pred/act E change: -0.127D-02 -0.360D-02
Maxdispl :   0.1410   ||displ|| :   0.3969   Lambda : -0.664D-02
Largest |displ|/coords:  0.1410 (   2)  0.1237 (  20)  0.1179 (  16)
................................................................................
.............................. CYCLE   17 ......................................
................................................................................
   1    -50.6426813 -0.506427E+02  0.368E-01    8.66       0.0  T
   2    -50.6430273 -0.345947E-03  0.265E-01    8.71       1.0  T
   3    -50.6431975 -0.170226E-03  0.945E-02    8.77       1.0  T
   4    -50.6432251 -0.276649E-04  0.269E-02    8.75       1.0  T
   5    -50.6432266 -0.147429E-05  0.820E-03    8.74       2.4  T
   6    -50.6432268 -0.130354E-06  0.469E-03    8.74       4.2  T
   7    -50.6432268 -0.245679E-07  0.113E-03    8.74      17.4  T
speedup  0.91
cpu  time for SCC    0.01 s
wall time for SCC    0.01 s
speedup  0.98
cpu  time for grad    0.01 s
wall time for grad    0.01 s
 E :    -50.39825021  G :  0.082432    pred/act E change: -0.368D-02 -0.219D-02
Maxdispl :   0.1169   ||displ|| :   0.2576   Lambda : -0.107D-01
Largest |displ|/coords:  0.1169 (  16)  0.0979 (  17)  0.0619 (   4)
................................................................................
.............................. CYCLE   18 ......................................
................................................................................
   1    -50.6747248 -0.506747E+02  0.292E-01    8.87       0.0  T
   2    -50.6749175 -0.192688E-03  0.212E-01    8.81       1.0  T
   3    -50.6750328 -0.115233E-03  0.698E-02    8.72       1.0  T
   4    -50.6750463 -0.135549E-04  0.208E-02    8.73       1.0  T
   5    -50.6750472 -0.917874E-06  0.809E-03    8.74       2.4  T
   6    -50.6750473 -0.596859E-07  0.380E-03    8.74       5.2  T
   7    -50.6750473 -0.219159E-07  0.914E-04    8.74      21.5  T
speedup  0.95
cpu  time for SCC    0.01 s
wall time for SCC    0.01 s
speedup  1.01
cpu  time for grad    0.01 s
wall time for grad    0.01 s
 E :    -50.40204918  G :  0.091450    pred/act E change: -0.384D-02 -0.380D-02
Maxdispl :   0.1345   ||displ|| :   0.3526   Lambda : -0.120D-01
Largest |displ|/coords:  0.1345 (  18)  0.1147 (   1)  0.1109 (  17)
................................................................................
.............................. CYCLE   19 ......................................
................................................................................
   1    -50.6605113 -0.506605E+02  0.408E-01    8.56       0.0  T
   2    -50.6609496 -0.438315E-03  0.290E-01    8.67       1.0  T
   3    -50.6611664 -0.216772E-03  0.105E-01    8.80       1.0  T
   4    -50.6611967 -0.303069E-04  0.261E-02    8.76       1.0  T
   5    -50.6611981 -0.142573E-05  0.971E-03    8.74       2.0  T
   6    -50.6611985 -0.328368E-06  0.571E-03    8.75       3.4  T
   7    -50.6611985 -0.383278E-07  0.112E-03    8.75      17.5  T
speedup  0.95
cpu  time for SCC    0.01 s
wall time for SCC    0.01 s
speedup  1.01
cpu  time for grad    0.01 s
wall time for grad    0.01 s
 E :    -50.40457088  G :  0.087932    pred/act E change: -0.571D-02 -0.252D-02
Maxdispl :   0.1459   ||displ|| :   0.3027   Lambda : -0.149D-01
Largest |displ|/coords:  0.1459 (  21)  0.1088 (  11)  0.0849 (  23)
................................................................................
.............................. CYCLE   20 ......................................
................................................................................
   1    -50.6845667 -0.506846E+02  0.376E-01    8.88       0.0  T
   2    -50.6848007 -0.234030E-03  0.274E-01    8.82       1.0  T
   3    -50.6849495 -0.148758E-03  0.792E-02    8.69       1.0  T
   4    -50.6849693 -0.198065E-04  0.209E-02    8.72       1.0  T
   5    -50.6849702 -0.932340E-06  0.890E-03    8.72       2.2  T
   6    -50.6849703 -0.678753E-07  0.394E-03    8.72       5.0  T
   7    -50.6849703 -0.345997E-07  0.924E-04    8.72      21.2  T
speedup  0.78
cpu  time for SCC    0.00 s
wall time for SCC    0.01 s
speedup  0.94
cpu  time for grad    0.01 s
wall time for grad    0.01 s
 E :    -50.40904340  G :  0.090130    pred/act E change: -0.672D-02 -0.447D-02
Maxdispl :   0.0983   ||displ|| :   0.2918   Lambda : -0.115D-01
Largest |displ|/coords:  0.0983 (   4)  0.0804 (  18)  0.0774 (   2)
................................................................................
.............................. CYCLE   21 ......................................
................................................................................
   1    -50.6851661 -0.506852E+02  0.322E-01    8.59       0.0  T
   2    -50.6853856 -0.219418E-03  0.230E-01    8.61       1.0  T
   3    -50.6855038 -0.118292E-03  0.739E-02    8.61       1.0  T
   4    -50.6855187 -0.148421E-04  0.187E-02    8.59       1.0  T
   5    -50.6855195 -0.802128E-06  0.719E-03    8.59       2.7  T
   6    -50.6855196 -0.913225E-07  0.418E-03    8.59       4.7  T
   7    -50.6855196 -0.201560E-07  0.758E-04    8.59      25.9  T
speedup  1.08
cpu  time for SCC    0.01 s
wall time for SCC    0.01 s
speedup  1.00
cpu  time for grad    0.01 s
wall time for grad    0.01 s
 E :    -50.41389541  G :  0.063980    pred/act E change: -0.812D-02 -0.485D-02
Maxdispl :   0.0791   ||displ|| :   0.2177   Lambda : -0.640D-02
Largest |displ|/coords:  0.0791 (   6)  0.0587 (  23)  0.0567 (   5)
................................................................................
.............................. CYCLE   22 ......................................
................................................................................
   1    -50.6943996 -0.506944E+02  0.207E-01    8.69       0.0  T
   2    -50.6944772 -0.775698E-04  0.151E-01    8.65       1.0  T
   3    -50.6945223 -0.451281E-04  0.470E-02    8.57       1.0  T
   4    -50.6945297 -0.741564E-05  0.132E-02    8.57       1.5  T
   5    -50.6945301 -0.345203E-06  0.429E-03    8.57       4.6  T
   6    -50.6945301 -0.189529E-07  0.229E-03    8.57       8.5  T
speedup  0.91
cpu  time for SCC    0.00 s
wall time for SCC    0.01 s
speedup  0.99
cpu  time for grad    0.01 s
wall time for grad    0.01 s
 E :    -50.41763112  G :  0.051150    pred/act E change: -0.624D-02 -0.374D-02
Maxdispl :   0.0747   ||displ|| :   0.2006   Lambda : -0.491D-02
Largest |displ|/coords:  0.0747 (   4)  0.0732 (   2)  0.0588 (  27)
................................................................................
.............................. CYCLE   23 ......................................
................................................................................
   1    -50.7067999 -0.507068E+02  0.189E-01    8.57       0.0  T
   2    -50.7068921 -0.921405E-04  0.135E-01    8.55       1.0  T
   3    -50.7069466 -0.545284E-04  0.470E-02    8.53       1.0  T
   4    -50.7069526 -0.596867E-05  0.114E-02    8.52       1.7  T
   5    -50.7069529 -0.297099E-06  0.540E-03    8.52       3.6  T
   6    -50.7069529 -0.200467E-07  0.251E-03    8.52       7.8  T
speedup  1.05
cpu  time for SCC    0.01 s
wall time for SCC    0.01 s
speedup  0.98
cpu  time for grad    0.01 s
wall time for grad    0.01 s
 E :    -50.41995410  G :  0.057281    pred/act E change: -0.335D-02 -0.232D-02
Maxdispl :   0.0883   ||displ|| :   0.2209   Lambda : -0.579D-02
Largest |displ|/coords:  0.0883 (   2)  0.0805 (   1)  0.0774 (   9)
................................................................................
.............................. CYCLE   24 ......................................
................................................................................
   1    -50.7023159 -0.507023E+02  0.218E-01    8.44       0.0  T
   2    -50.7023928 -0.769855E-04  0.158E-01    8.41       1.0  T
   3    -50.7024379 -0.450973E-04  0.466E-02    8.35       1.0  T
   4    -50.7024447 -0.673264E-05  0.116E-02    8.35       1.7  T
   5    -50.7024449 -0.231213E-06  0.439E-03    8.35       4.5  T
   6    -50.7024449 -0.360243E-07  0.226E-03    8.35       8.7  T
speedup  1.09
cpu  time for SCC    0.01 s
wall time for SCC    0.01 s
speedup  1.00
cpu  time for grad    0.01 s
wall time for grad    0.01 s
 E :    -50.42223731  G :  0.044241    pred/act E change: -0.256D-02 -0.228D-02
Maxdispl :   0.0709   ||displ|| :   0.1709   Lambda : -0.336D-02
Largest |displ|/coords:  0.0709 (   3)  0.0548 (  29)  0.0542 (  27)
................................................................................
.............................. CYCLE   25 ......................................
................................................................................
   1    -50.7149168 -0.507149E+02  0.130E-01    8.50       0.0  T
   2    -50.7149466 -0.298037E-04  0.917E-02    8.47       1.0  T
   3    -50.7149627 -0.160645E-04  0.284E-02    8.43       1.0  T
   4    -50.7149648 -0.214358E-05  0.759E-03    8.42       2.6  T
   5    -50.7149650 -0.133554E-06  0.289E-03    8.42       6.8  T
   6    -50.7149650 -0.102539E-07  0.146E-03    8.42      13.4  T
speedup  0.89
cpu  time for SCC    0.00 s
wall time for SCC    0.01 s
speedup  1.00
cpu  time for grad    0.01 s
wall time for grad    0.01 s
 E :    -50.42490579  G :  0.028836    pred/act E change: -0.303D-02 -0.267D-02
Maxdispl :   0.2807   ||displ|| :   0.4831   Lambda : -0.598D-02
Largest |displ|/coords:  0.2807 (   2)  0.1579 (  27)  0.1394 (  29)

generating ANC from model Hessian ...
 Shifting diagonal of input Hessian by   5.066145237154964E-003
 Lowest  eigenvalues of input Hessian
    0.005000    0.005010   -0.000000   -0.000000   -0.000000    0.000000
    0.000000    0.000000    0.005166    0.005454    0.005524    0.006246
    0.006779    0.007018    0.007424    0.007947    0.008693    0.009484
 Highest eigenvalues
    1.400326    1.413223    1.441597    2.417472    3.256495    3.769103
 
cpu  time for ANC gen    0.02 s
wall time for ANC gen    0.02 s
................................................................................
.............................. CYCLE   26 ......................................
................................................................................
   1    -50.7218381 -0.507218E+02  0.327E-01    8.16       0.0  T
   2    -50.7219146 -0.764949E-04  0.230E-01    8.11       1.0  T
   3    -50.7219578 -0.431669E-04  0.532E-02    8.02       1.0  T
   4    -50.7219627 -0.488613E-05  0.172E-02    8.02       1.1  T
   5    -50.7219632 -0.525717E-06  0.486E-03    8.02       4.0  T
   6    -50.7219633 -0.418966E-07  0.270E-03    8.02       7.3  T
   7    -50.7219633 -0.122413E-07  0.960E-04    8.02      20.4  T
   8    -50.7219633 -0.206364E-08  0.210E-04    8.02      93.2  T
speedup  0.93
cpu  time for SCC    0.01 s
wall time for SCC    0.01 s
speedup  0.96
cpu  time for grad    0.01 s
wall time for grad    0.02 s
 E :    -50.42769483  G :  0.031787    pred/act E change:  0.000D+00 -0.279D-02
Maxdispl :   0.2324   ||displ|| :   0.3872   Lambda : -0.286D-02
Largest |displ|/coords:  0.2324 (  13)  0.1421 (  15)  0.1193 (   9)
................................................................................
.............................. CYCLE   27 ......................................
................................................................................
   1    -50.7208823 -0.507209E+02  0.251E-01    8.05       0.0  T
   2    -50.7209043 -0.219892E-04  0.188E-01    8.05       1.0  T
   3    -50.7209179 -0.135706E-04  0.261E-02    8.05       1.0  T
   4    -50.7209211 -0.319923E-05  0.767E-03    8.04       2.6  T
   5    -50.7209213 -0.166348E-06  0.310E-03    8.04       6.3  T
   6    -50.7209213 -0.871461E-08  0.173E-03    8.04      11.3  T
speedup  0.91
cpu  time for SCC    0.00 s
wall time for SCC    0.01 s
speedup  1.01
cpu  time for grad    0.01 s
wall time for grad    0.01 s
 E :    -50.42941625  G :  0.017724    pred/act E change:  0.000D+00 -0.172D-02
Maxdispl :   0.1466   ||displ|| :   0.3338   Lambda : -0.143D-02
Largest |displ|/coords:  0.1466 (  13)  0.1247 (   1)  0.1197 (  15)
................................................................................
.............................. CYCLE   28 ......................................
................................................................................
   1    -50.7208420 -0.507208E+02  0.274E-01    8.12       0.0  T
   2    -50.7208613 -0.192625E-04  0.208E-01    8.11       1.0  T
   3    -50.7208812 -0.199597E-04  0.233E-02    8.11       1.0  T
   4    -50.7208830 -0.178378E-05  0.812E-03    8.11       2.4  T
   5    -50.7208831 -0.978216E-07  0.287E-03    8.11       6.8  T
   6    -50.7208831 -0.766450E-08  0.152E-03    8.11      12.9  T
speedup  1.09
cpu  time for SCC    0.01 s
wall time for SCC    0.01 s
speedup  1.01
cpu  time for grad    0.01 s
wall time for grad    0.01 s
 E :    -50.43011283  G :  0.023720    pred/act E change: -0.165D-02 -0.697D-03
Maxdispl :   0.1465   ||displ|| :   0.2683   Lambda : -0.110D-02
Largest |displ|/coords:  0.1465 (   5)  0.1217 (   1)  0.0932 (  15)
................................................................................
.............................. CYCLE   29 ......................................
................................................................................
   1    -50.7255663 -0.507256E+02  0.169E-01    8.23       0.0  T
   2    -50.7255767 -0.103501E-04  0.126E-01    8.23       1.0  T
   3    -50.7255859 -0.924897E-05  0.186E-02    8.24       1.1  T
   4    -50.7255870 -0.101356E-05  0.475E-03    8.23       4.1  T
   5    -50.7255870 -0.302423E-07  0.242E-03    8.23       8.1  T
speedup  1.04
cpu  time for SCC    0.01 s
wall time for SCC    0.00 s
speedup  0.98
cpu  time for grad    0.01 s
wall time for grad    0.01 s
 E :    -50.43071184  G :  0.012781    pred/act E change: -0.795D-03 -0.599D-03
Maxdispl :   0.1737   ||displ|| :   0.3329   Lambda : -0.715D-03
Largest |displ|/coords:  0.1737 (   1)  0.1461 (  13)  0.1350 (   5)
................................................................................
.............................. CYCLE   30 ......................................
................................................................................
   1    -50.7262567 -0.507263E+02  0.191E-01    8.23       0.0  T
   2    -50.7262640 -0.731473E-05  0.143E-01    8.23       1.0  T
   3    -50.7262699 -0.589062E-05  0.170E-02    8.24       1.2  T
   4    -50.7262708 -0.866843E-06  0.371E-03    8.24       5.3  T
   5    -50.7262708 -0.172918E-07  0.200E-03    8.24       9.8  T
   6    -50.7262708 -0.655854E-08  0.880E-04    8.24      22.3  T
speedup  1.03
cpu  time for SCC    0.01 s
wall time for SCC    0.01 s
speedup  1.05
cpu  time for grad    0.01 s
wall time for grad    0.01 s
 E :    -50.43116272  G :  0.013419    pred/act E change: -0.588D-03 -0.451D-03
Maxdispl :   0.2079   ||displ|| :   0.3477   Lambda : -0.646D-03
Largest |displ|/coords:  0.2079 (   1)  0.1230 (   9)  0.0829 (   2)
................................................................................
.............................. CYCLE   31 ......................................
................................................................................
   1    -50.7285355 -0.507285E+02  0.195E-01    8.17       0.0  T
   2    -50.7285432 -0.774527E-05  0.146E-01    8.16       1.0  T
   3    -50.7285508 -0.758340E-05  0.202E-02    8.16       1.0  T
   4    -50.7285515 -0.668467E-06  0.633E-03    8.16       3.1  T
   5    -50.7285516 -0.549595E-07  0.178E-03    8.16      11.0  T
   6    -50.7285516 -0.372029E-08  0.110E-03    8.16      17.8  T
speedup  1.02
cpu  time for SCC    0.01 s
wall time for SCC    0.01 s
speedup  1.04
cpu  time for grad    0.01 s
wall time for grad    0.01 s
 E :    -50.43152691  G :  0.010764    pred/act E change: -0.397D-03 -0.364D-03
Maxdispl :   0.1963   ||displ|| :   0.2851   Lambda : -0.328D-03
Largest |displ|/coords:  0.1963 (   1)  0.0750 (  13)  0.0709 (   5)
................................................................................
.............................. CYCLE   32 ......................................
................................................................................
   1    -50.7271774 -0.507272E+02  0.182E-01    8.10       0.0  T
   2    -50.7271827 -0.535772E-05  0.136E-01    8.10       1.0  T
   3    -50.7271890 -0.626053E-05  0.171E-02    8.11       1.1  T
   4    -50.7271893 -0.331529E-06  0.305E-03    8.11       6.4  T
   5    -50.7271893 -0.124425E-07  0.174E-03    8.11      11.2  T
   6    -50.7271894 -0.491209E-08  0.692E-04    8.11      28.3  T
speedup  1.02
cpu  time for SCC    0.01 s
wall time for SCC    0.01 s
speedup  0.97
cpu  time for grad    0.01 s
wall time for grad    0.01 s
 E :    -50.43175167  G :  0.015170    pred/act E change: -0.362D-03 -0.225D-03
Maxdispl :   0.2445   ||displ|| :   0.3073   Lambda : -0.455D-03
Largest |displ|/coords:  0.2445 (   1)  0.0771 (   2)  0.0652 (  14)
................................................................................
.............................. CYCLE   33 ......................................
................................................................................
   1    -50.7274470 -0.507274E+02  0.180E-01    8.05       0.0  T
   2    -50.7274529 -0.586653E-05  0.133E-01    8.05       1.0  T
   3    -50.7274591 -0.615168E-05  0.199E-02    8.05       1.0  T
   4    -50.7274595 -0.426618E-06  0.456E-03    8.05       4.3  T
   5    -50.7274595 -0.357654E-07  0.182E-03    8.05      10.8  T
   6    -50.7274595 -0.461577E-08  0.103E-03    8.05      19.0  T
speedup  0.91
cpu  time for SCC    0.00 s
wall time for SCC    0.01 s
speedup  1.01
cpu  time for grad    0.01 s
wall time for grad    0.01 s
 E :    -50.43202461  G :  0.010030    pred/act E change: -0.178D-03 -0.273D-03
Maxdispl :   0.2467   ||displ|| :   0.3140   Lambda : -0.374D-03
Largest |displ|/coords:  0.2467 (   1)  0.0721 (  13)  0.0709 (  16)
................................................................................
.............................. CYCLE   34 ......................................
................................................................................
   1    -50.7244199 -0.507244E+02  0.208E-01    8.02       0.0  T
   2    -50.7244257 -0.579564E-05  0.155E-01    8.03       1.0  T
   3    -50.7244325 -0.680804E-05  0.194E-02    8.04       1.0  T
   4    -50.7244328 -0.329844E-06  0.477E-03    8.04       4.1  T
   5    -50.7244328 -0.380299E-07  0.188E-03    8.04      10.4  T
   6    -50.7244328 -0.408574E-08  0.106E-03    8.04      18.4  T
speedup  1.09
cpu  time for SCC    0.01 s
wall time for SCC    0.01 s
speedup  1.01
cpu  time for grad    0.01 s
wall time for grad    0.01 s
 E :    -50.43226292  G :  0.014786    pred/act E change: -0.249D-03 -0.238D-03
Maxdispl :   0.1650   ||displ|| :   0.2494   Lambda : -0.499D-03
Largest |displ|/coords:  0.1650 (   1)  0.0655 (   5)  0.0633 (  16)
................................................................................
.............................. CYCLE   35 ......................................
................................................................................
   1    -50.7271392 -0.507271E+02  0.138E-01    8.15       0.0  T
   2    -50.7271451 -0.596627E-05  0.102E-01    8.15       1.0  T
   3    -50.7271492 -0.407582E-05  0.160E-02    8.16       1.2  T
   4    -50.7271499 -0.715940E-06  0.460E-03    8.16       4.3  T
   5    -50.7271500 -0.332307E-07  0.148E-03    8.16      13.2  T
   6    -50.7271500 -0.220668E-08  0.815E-04    8.16      24.1  T
speedup  0.89
cpu  time for SCC    0.00 s
wall time for SCC    0.01 s
speedup  0.99
cpu  time for grad    0.01 s
wall time for grad    0.01 s
 E :    -50.43255494  G :  0.009095    pred/act E change: -0.205D-03 -0.292D-03
Maxdispl :   0.2803   ||displ|| :   0.3657   Lambda : -0.406D-03
Largest |displ|/coords:  0.2803 (   1)  0.1151 (   4)  0.0858 (   8)
................................................................................
.............................. CYCLE   36 ......................................
................................................................................
   1    -50.7252092 -0.507252E+02  0.227E-01    8.10       0.0  T
   2    -50.7252186 -0.937834E-05  0.169E-01    8.11       1.0  T
   3    -50.7252276 -0.904973E-05  0.236E-02    8.13       1.0  T
   4    -50.7252284 -0.805716E-06  0.625E-03    8.13       3.1  T
   5    -50.7252285 -0.625291E-07  0.199E-03    8.13       9.9  T
   6    -50.7252285 -0.662279E-08  0.114E-03    8.13      17.2  T
speedup  1.07
cpu  time for SCC    0.01 s
wall time for SCC    0.01 s
speedup  0.99
cpu  time for grad    0.01 s
wall time for grad    0.01 s
 E :    -50.43280816  G :  0.013427    pred/act E change: -0.265D-03 -0.253D-03
Maxdispl :   0.2688   ||displ|| :   0.3901   Lambda : -0.620D-03
Largest |displ|/coords:  0.2688 (   1)  0.1314 (   4)  0.1132 (   8)
................................................................................
.............................. CYCLE   37 ......................................
................................................................................
   1    -50.7226404 -0.507226E+02  0.251E-01    8.14       0.0  T
   2    -50.7226542 -0.138159E-04  0.187E-01    8.14       1.0  T
   3    -50.7226672 -0.130260E-04  0.277E-02    8.16       1.0  T
   4    -50.7226685 -0.130421E-05  0.926E-03    8.16       2.1  T
   5    -50.7226687 -0.113309E-06  0.258E-03    8.16       7.6  T
   6    -50.7226687 -0.851919E-08  0.155E-03    8.16      12.6  T
speedup  0.88
cpu  time for SCC    0.00 s
wall time for SCC    0.01 s
speedup  0.98
cpu  time for grad    0.01 s
wall time for grad    0.01 s
 E :    -50.43294045  G :  0.019825    pred/act E change: -0.230D-03 -0.132D-03
Maxdispl :   0.1209   ||displ|| :   0.2227   Lambda : -0.762D-03
Largest |displ|/coords:  0.1209 (   1)  0.0869 (   5)  0.0770 (   7)
................................................................................
.............................. CYCLE   38 ......................................
................................................................................
   1    -50.7288401 -0.507288E+02  0.128E-01    8.28       0.0  T
   2    -50.7288481 -0.799926E-05  0.933E-02    8.28       1.0  T
   3    -50.7288528 -0.472952E-05  0.192E-02    8.28       1.0  T
   4    -50.7288536 -0.783525E-06  0.492E-03    8.28       4.0  T
   5    -50.7288537 -0.500165E-07  0.173E-03    8.28      11.3  T
   6    -50.7288537 -0.281455E-08  0.962E-04    8.28      20.4  T
speedup  0.86
cpu  time for SCC    0.01 s
wall time for SCC    0.01 s
speedup  0.97
cpu  time for grad    0.01 s
wall time for grad    0.01 s
 E :    -50.43330335  G :  0.012810    pred/act E change: -0.357D-03 -0.363D-03
Maxdispl :   0.4031   ||displ|| :   0.4943   Lambda : -0.770D-03
Largest |displ|/coords:  0.4031 (   1)  0.1109 (   5)  0.1029 (  13)
................................................................................
.............................. CYCLE   39 ......................................
................................................................................
   1    -50.7220814 -0.507221E+02  0.326E-01    8.05       0.0  T
   2    -50.7221045 -0.231560E-04  0.240E-01    8.06       1.0  T
   3    -50.7221263 -0.217658E-04  0.382E-02    8.08       1.0  T
   4    -50.7221284 -0.210197E-05  0.915E-03    8.08       2.1  T
   5    -50.7221285 -0.136304E-06  0.360E-03    8.07       5.5  T
   6    -50.7221286 -0.201458E-07  0.196E-03    8.08      10.0  T
   7    -50.7221286 -0.567670E-08  0.500E-04    8.08      39.2  T
speedup  0.90
cpu  time for SCC    0.01 s
wall time for SCC    0.01 s
speedup  0.98
cpu  time for grad    0.01 s
wall time for grad    0.01 s
 E :    -50.43325785  G :  0.030003    pred/act E change: -0.400D-03  0.455D-04
Maxdispl :   0.0755   ||displ|| :   0.1618   Lambda : -0.107D-02
Largest |displ|/coords:  0.0755 (   5)  0.0600 (  13)  0.0569 (   2)
................................................................................
.............................. CYCLE   40 ......................................
................................................................................
   1    -50.7275533 -0.507276E+02  0.102E-01    8.13       0.0  T
   2    -50.7275609 -0.754507E-05  0.763E-02    8.13       1.0  T
   3    -50.7275658 -0.491097E-05  0.161E-02    8.11       1.2  T
   4    -50.7275667 -0.900877E-06  0.446E-03    8.11       4.4  T
   5    -50.7275667 -0.339420E-07  0.178E-03    8.11      11.0  T
speedup  1.06
cpu  time for SCC    0.00 s
wall time for SCC    0.00 s
speedup  0.99
cpu  time for grad    0.01 s
wall time for grad    0.01 s
 E :    -50.43381567  G :  0.009880    pred/act E change: -0.479D-03 -0.558D-03
Maxdispl :   0.2361   ||displ|| :   0.3738   Lambda : -0.556D-03
Largest |displ|/coords:  0.2361 (   1)  0.1513 (   5)  0.1234 (   4)
................................................................................
.............................. CYCLE   41 ......................................
................................................................................
   1    -50.7289450 -0.507289E+02  0.185E-01    8.28       0.0  T
   2    -50.7289529 -0.790452E-05  0.137E-01    8.28       1.0  T
   3    -50.7289583 -0.536642E-05  0.258E-02    8.28       1.0  T
   4    -50.7289594 -0.106597E-05  0.617E-03    8.28       3.2  T
   5    -50.7289594 -0.477473E-07  0.203E-03    8.28       9.7  T
   6    -50.7289594 -0.449086E-08  0.105E-03    8.28      18.7  T
speedup  0.89
cpu  time for SCC    0.00 s
wall time for SCC    0.01 s
speedup  0.99
cpu  time for grad    0.01 s
wall time for grad    0.01 s
 E :    -50.43407511  G :  0.011364    pred/act E change: -0.549D-03 -0.259D-03
Maxdispl :   0.3818   ||displ|| :   0.5281   Lambda : -0.649D-03
Largest |displ|/coords:  0.3818 (   1)  0.2048 (   5)  0.1246 (   4)
................................................................................
.............................. CYCLE   42 ......................................
................................................................................
   1    -50.7249439 -0.507249E+02  0.296E-01    8.03       0.0  T
   2    -50.7249582 -0.143263E-04  0.218E-01    8.03       1.0  T
   3    -50.7249729 -0.146359E-04  0.336E-02    8.03       1.0  T
   4    -50.7249738 -0.927389E-06  0.894E-03    8.03       2.2  T
   5    -50.7249740 -0.147132E-06  0.254E-03    8.03       7.7  T
   6    -50.7249740 -0.711020E-08  0.166E-03    8.03      11.8  T
speedup  1.05
cpu  time for SCC    0.01 s
wall time for SCC    0.01 s
speedup  1.06
cpu  time for grad    0.01 s
wall time for grad    0.01 s
 E :    -50.43443913  G :  0.015615    pred/act E change: -0.317D-03 -0.364D-03
Maxdispl :   0.2073   ||displ|| :   0.3703   Lambda : -0.703D-03
Largest |displ|/coords:  0.2073 (   5)  0.1867 (   1)  0.1455 (   2)
................................................................................
.............................. CYCLE   43 ......................................
................................................................................
   1    -50.7277590 -0.507278E+02  0.193E-01    8.04       0.0  T
   2    -50.7277724 -0.133373E-04  0.143E-01    8.04       1.0  T
   3    -50.7277808 -0.842755E-05  0.269E-02    8.03       1.0  T
   4    -50.7277826 -0.186606E-05  0.917E-03    8.03       2.1  T
   5    -50.7277828 -0.112263E-06  0.244E-03    8.03       8.0  T
   6    -50.7277828 -0.697345E-08  0.142E-03    8.03      13.8  T
speedup  1.07
cpu  time for SCC    0.01 s
wall time for SCC    0.01 s
speedup  0.99
cpu  time for grad    0.01 s
wall time for grad    0.01 s
 E :    -50.43471353  G :  0.014960    pred/act E change: -0.415D-03 -0.274D-03
Maxdispl :   0.0537   ||displ|| :   0.1058   Lambda : -0.357D-03
Largest |displ|/coords:  0.0537 (   4)  0.0330 (  12)  0.0289 (  14)
................................................................................
.............................. CYCLE   44 ......................................
................................................................................
   1    -50.7300094 -0.507300E+02  0.614E-02    8.10       0.0  T
   2    -50.7300120 -0.258760E-05  0.448E-02    8.10       1.0  T
   3    -50.7300135 -0.153683E-05  0.102E-02    8.09       1.9  T
   4    -50.7300138 -0.248899E-06  0.341E-03    8.09       5.7  T
   5    -50.7300138 -0.223039E-07  0.101E-03    8.09      19.5  T
   6    -50.7300138 -0.149658E-08  0.528E-04    8.09      37.2  T
speedup  1.07
cpu  time for SCC    0.01 s
wall time for SCC    0.01 s
speedup  0.98
cpu  time for grad    0.01 s
wall time for grad    0.01 s
 E :    -50.43492466  G :  0.007291    pred/act E change: -0.400D-03 -0.211D-03
Maxdispl :   0.2769   ||displ|| :   0.3553   Lambda : -0.389D-03
Largest |displ|/coords:  0.2769 (   1)  0.0911 (  14)  0.0779 (   5)
................................................................................
.............................. CYCLE   45 ......................................
................................................................................
   1    -50.7271905 -0.507272E+02  0.201E-01    8.02       0.0  T
   2    -50.7271991 -0.851403E-05  0.149E-01    8.02       1.0  T
   3    -50.7272062 -0.710423E-05  0.247E-02    8.02       1.0  T
   4    -50.7272071 -0.931612E-06  0.767E-03    8.02       2.6  T
   5    -50.7272072 -0.788698E-07  0.199E-03    8.02       9.8  T
   6    -50.7272072 -0.550590E-08  0.123E-03    8.02      15.9  T
speedup  0.89
cpu  time for SCC    0.00 s
wall time for SCC    0.01 s
speedup  0.98
cpu  time for grad    0.01 s
wall time for grad    0.01 s
 E :    -50.43505861  G :  0.013293    pred/act E change: -0.180D-03 -0.134D-03
Maxdispl :   0.1111   ||displ|| :   0.1794   Lambda : -0.347D-03
Largest |displ|/coords:  0.1111 (   4)  0.0716 (   8)  0.0400 (  18)
................................................................................
.............................. CYCLE   46 ......................................
................................................................................
   1    -50.7314908 -0.507315E+02  0.926E-02    8.10       0.0  T
   2    -50.7314940 -0.319610E-05  0.676E-02    8.10       1.0  T
   3    -50.7314966 -0.257944E-05  0.132E-02    8.10       1.5  T
   4    -50.7314969 -0.276919E-06  0.399E-03    8.10       4.9  T
   5    -50.7314969 -0.232019E-07  0.116E-03    8.10      16.9  T
   6    -50.7314969 -0.197944E-08  0.689E-04    8.10      28.5  T
speedup  1.07
cpu  time for SCC    0.01 s
wall time for SCC    0.01 s
speedup  1.07
cpu  time for grad    0.01 s
wall time for grad    0.01 s
 E :    -50.43515064  G :  0.012102    pred/act E change: -0.219D-03 -0.920D-04
Maxdispl :   0.0867   ||displ|| :   0.1437   Lambda : -0.301D-03
Largest |displ|/coords:  0.0867 (   1)  0.0425 (   2)  0.0379 (  20)
................................................................................
.............................. CYCLE   47 ......................................
................................................................................
   1    -50.7298594 -0.507299E+02  0.103E-01    8.08       0.0  T
   2    -50.7298617 -0.229614E-05  0.762E-02    8.08       1.0  T
   3    -50.7298638 -0.205203E-05  0.108E-02    8.09       1.8  T
   4    -50.7298640 -0.233494E-06  0.402E-03    8.09       4.9  T
   5    -50.7298640 -0.195355E-07  0.112E-03    8.09      17.5  T
   6    -50.7298640 -0.145795E-08  0.692E-04    8.09      28.3  T
speedup  1.05
cpu  time for SCC    0.01 s
wall time for SCC    0.01 s
speedup  1.04
cpu  time for grad    0.01 s
wall time for grad    0.01 s
 E :    -50.43528525  G :  0.006324    pred/act E change: -0.179D-03 -0.135D-03
Maxdispl :   0.0509   ||displ|| :   0.0851   Lambda : -0.112D-03
Largest |displ|/coords:  0.0509 (   1)  0.0278 (   4)  0.0225 (   7)
................................................................................
.............................. CYCLE   48 ......................................
................................................................................
   1    -50.7303419 -0.507303E+02  0.552E-02    8.04       0.0  T
   2    -50.7303430 -0.106774E-05  0.408E-02    8.04       1.0  T
   3    -50.7303439 -0.880081E-06  0.784E-03    8.04       2.5  T
   4    -50.7303440 -0.110482E-06  0.280E-03    8.04       7.0  T
   5    -50.7303440 -0.102626E-07  0.671E-04    8.04      29.2  T
speedup  1.02
cpu  time for SCC    0.00 s
wall time for SCC    0.00 s
speedup  1.03
cpu  time for grad    0.01 s
wall time for grad    0.01 s
 E :    -50.43533750  G :  0.006529    pred/act E change: -0.154D-03 -0.522D-04
Maxdispl :   0.1395   ||displ|| :   0.1721   Lambda : -0.103D-03
Largest |displ|/coords:  0.1395 (   1)  0.0333 (   3)  0.0281 (   5)
................................................................................
.............................. CYCLE   49 ......................................
................................................................................
   1    -50.7285693 -0.507286E+02  0.105E-01    8.02       0.0  T
   2    -50.7285717 -0.235382E-05  0.775E-02    8.01       1.0  T
   3    -50.7285731 -0.144951E-05  0.132E-02    8.01       1.5  T
   4    -50.7285734 -0.307631E-06  0.395E-03    8.01       5.0  T
   5    -50.7285735 -0.204825E-07  0.851E-04    8.01      23.0  T
   6    -50.7285735 -0.846775E-09  0.541E-04    8.01      36.3  T
speedup  0.85
cpu  time for SCC    0.00 s
wall time for SCC    0.01 s
speedup  0.96
cpu  time for grad    0.01 s
wall time for grad    0.01 s
 E :    -50.43538072  G :  0.006617    pred/act E change: -0.563D-04 -0.432D-04
Maxdispl :   0.0478   ||displ|| :   0.0782   Lambda : -0.883D-04
Largest |displ|/coords:  0.0478 (   5)  0.0342 (   4)  0.0269 (   7)
................................................................................
.............................. CYCLE   50 ......................................
................................................................................
   1    -50.7297867 -0.507298E+02  0.433E-02    8.09       0.0  T
   2    -50.7297872 -0.521586E-06  0.320E-02    8.09       1.0  T
   3    -50.7297876 -0.386383E-06  0.553E-03    8.09       3.5  T
   4    -50.7297876 -0.595376E-07  0.220E-03    8.09       8.9  T
   5    -50.7297876 -0.453554E-08  0.414E-04    8.09      47.4  T
speedup  1.02
cpu  time for SCC    0.00 s
wall time for SCC    0.00 s
speedup  0.95
cpu  time for grad    0.01 s
wall time for grad    0.01 s
 E :    -50.43543170  G :  0.005564    pred/act E change: -0.528D-04 -0.510D-04
Maxdispl :   0.0391   ||displ|| :   0.0804   Lambda : -0.642D-04
Largest |displ|/coords:  0.0391 (   1)  0.0302 (   2)  0.0235 (   4)
................................................................................
.............................. CYCLE   51 ......................................
................................................................................
   1    -50.7306852 -0.507307E+02  0.610E-02    8.07       0.0  T
   2    -50.7306859 -0.739318E-06  0.455E-02    8.07       1.0  T
   3    -50.7306866 -0.688628E-06  0.610E-03    8.08       3.2  T
   4    -50.7306867 -0.742666E-07  0.210E-03    8.08       9.3  T
   5    -50.7306867 -0.498719E-08  0.505E-04    8.08      38.8  T
speedup  1.00
cpu  time for SCC    0.00 s
wall time for SCC    0.00 s
speedup  1.02
cpu  time for grad    0.01 s
wall time for grad    0.01 s
 E :    -50.43547398  G :  0.004317    pred/act E change: -0.444D-04 -0.423D-04
Maxdispl :   0.0771   ||displ|| :   0.1336   Lambda : -0.783D-04
Largest |displ|/coords:  0.0771 (   1)  0.0402 (   7)  0.0293 (  64)
................................................................................
.............................. CYCLE   52 ......................................
................................................................................
   1    -50.7306028 -0.507306E+02  0.107E-01    8.09       0.0  T
   2    -50.7306052 -0.240900E-05  0.807E-02    8.10       1.0  T
   3    -50.7306071 -0.186759E-05  0.975E-03    8.10       2.0  T
   4    -50.7306074 -0.333296E-06  0.336E-03    8.10       5.8  T
   5    -50.7306075 -0.123049E-07  0.910E-04    8.10      21.6  T
   6    -50.7306075 -0.763897E-09  0.469E-04    8.10      41.8  T
speedup  1.00
cpu  time for SCC    0.01 s
wall time for SCC    0.01 s
speedup  1.02
cpu  time for grad    0.01 s
wall time for grad    0.01 s
 E :    -50.43552164  G :  0.005215    pred/act E change: -0.323D-04 -0.477D-04
Maxdispl :   0.0445   ||displ|| :   0.1151   Lambda : -0.890D-04
Largest |displ|/coords:  0.0445 (   8)  0.0363 (   1)  0.0295 (  12)

generating ANC from model Hessian ...
 Shifting diagonal of input Hessian by   5.025051265778655E-003
 Lowest  eigenvalues of input Hessian
    0.005000   -0.000000   -0.000000   -0.000000   -0.000000    0.000000
    0.000000    0.005161    0.005262    0.005573    0.005871    0.006244
    0.006395    0.006597    0.006702    0.007068    0.007877    0.008419
 Highest eigenvalues
    1.397613    1.405690    1.410595    2.480283    3.247477    3.920466
 
cpu  time for ANC gen    0.02 s
wall time for ANC gen    0.02 s
................................................................................
.............................. CYCLE   53 ......................................
................................................................................
   1    -50.7307423 -0.507307E+02  0.919E-02    8.09       0.0  T
   2    -50.7307444 -0.209538E-05  0.691E-02    8.09       1.0  T
   3    -50.7307460 -0.156161E-05  0.924E-03    8.09       2.1  T
   4    -50.7307463 -0.288332E-06  0.303E-03    8.09       6.5  T
   5    -50.7307463 -0.107221E-07  0.826E-04    8.09      23.7  T
   6    -50.7307463 -0.867459E-09  0.429E-04    8.09      45.7  T
speedup  1.05
cpu  time for SCC    0.01 s
wall time for SCC    0.01 s
speedup  0.99
cpu  time for grad    0.01 s
wall time for grad    0.01 s
 E :    -50.43557845  G :  0.003761    pred/act E change:  0.000D+00 -0.568D-04
Maxdispl :   0.0537   ||displ|| :   0.0830   Lambda : -0.792D-04
Largest |displ|/coords:  0.0537 (   3)  0.0304 (  10)  0.0258 (   8)
................................................................................
.............................. CYCLE   54 ......................................
................................................................................
   1    -50.7306835 -0.507307E+02  0.583E-02    8.08       0.0  T
   2    -50.7306839 -0.489442E-06  0.436E-02    8.08       1.0  T
   3    -50.7306845 -0.602561E-06  0.515E-03    8.07       3.8  T
   4    -50.7306846 -0.257479E-07  0.114E-03    8.07      17.2  T
   5    -50.7306846 -0.296430E-08  0.529E-04    8.07      37.1  T
   6    -50.7306846 -0.353602E-09  0.321E-04    8.07      61.0  T
speedup  1.05
cpu  time for SCC    0.01 s
wall time for SCC    0.01 s
speedup  0.99
cpu  time for grad    0.01 s
wall time for grad    0.01 s
 E :    -50.43563710  G :  0.002250    pred/act E change:  0.000D+00 -0.587D-04
Maxdispl :   0.1368   ||displ|| :   0.1873   Lambda : -0.124D-03
Largest |displ|/coords:  0.1368 (   3)  0.0628 (  15)  0.0580 (   2)
................................................................................
.............................. CYCLE   55 ......................................
................................................................................
   1    -50.7301848 -0.507302E+02  0.127E-01    8.05       0.0  T
   2    -50.7301872 -0.241062E-05  0.948E-02    8.04       1.0  T
   3    -50.7301900 -0.276457E-05  0.121E-02    8.04       1.6  T
   4    -50.7301901 -0.137933E-06  0.345E-03    8.04       5.7  T
   5    -50.7301901 -0.210427E-07  0.100E-03    8.04      19.6  T
   6    -50.7301901 -0.119940E-08  0.674E-04    8.04      29.1  T
   7    -50.7301901 -0.618250E-09  0.151E-04    8.04     129.7  T
speedup  0.95
cpu  time for SCC    0.01 s
wall time for SCC    0.01 s
speedup  0.97
cpu  time for grad    0.01 s
wall time for grad    0.01 s
 E :    -50.43570830  G :  0.003533    pred/act E change: -0.399D-04 -0.712D-04
Maxdispl :   0.0881   ||displ|| :   0.1286   Lambda : -0.570D-04
Largest |displ|/coords:  0.0881 (   3)  0.0548 (   2)  0.0409 (  15)
................................................................................
.............................. CYCLE   56 ......................................
................................................................................
   1    -50.7299822 -0.507300E+02  0.775E-02    8.02       0.0  T
   2    -50.7299830 -0.827425E-06  0.577E-02    8.02       1.0  T
   3    -50.7299839 -0.863070E-06  0.701E-03    8.02       2.8  T
   4    -50.7299840 -0.665472E-07  0.269E-03    8.02       7.3  T
   5    -50.7299840 -0.939465E-08  0.650E-04    8.02      30.2  T
   6    -50.7299840 -0.505707E-09  0.444E-04    8.02      44.2  T
speedup  1.03
cpu  time for SCC    0.01 s
wall time for SCC    0.01 s
speedup  1.00
cpu  time for grad    0.01 s
wall time for grad    0.01 s
 E :    -50.43574595  G :  0.003913    pred/act E change: -0.640D-04 -0.377D-04
Maxdispl :   0.1014   ||displ|| :   0.1535   Lambda : -0.668D-04
Largest |displ|/coords:  0.1014 (   3)  0.0593 (   2)  0.0462 (  15)
................................................................................
.............................. CYCLE   57 ......................................
................................................................................
   1    -50.7299989 -0.507300E+02  0.909E-02    8.01       0.0  T
   2    -50.7300003 -0.134207E-05  0.679E-02    8.01       1.0  T
   3    -50.7300017 -0.141524E-05  0.846E-03    8.01       2.3  T
   4    -50.7300018 -0.110183E-06  0.354E-03    8.01       5.5  T
   5    -50.7300018 -0.134254E-07  0.787E-04    8.01      24.9  T
   6    -50.7300018 -0.724334E-09  0.522E-04    8.01      37.6  T
speedup  1.05
cpu  time for SCC    0.01 s
wall time for SCC    0.01 s
speedup  1.00
cpu  time for grad    0.01 s
wall time for grad    0.01 s
 E :    -50.43579655  G :  0.003946    pred/act E change: -0.290D-04 -0.506D-04
Maxdispl :   0.1167   ||displ|| :   0.2084   Lambda : -0.913D-04
Largest |displ|/coords:  0.1167 (   3)  0.0880 (   2)  0.0597 (   1)
................................................................................
.............................. CYCLE   58 ......................................
................................................................................
   1    -50.7300934 -0.507301E+02  0.126E-01    8.03       0.0  T
   2    -50.7300955 -0.213016E-05  0.944E-02    8.03       1.0  T
   3    -50.7300978 -0.223944E-05  0.107E-02    8.03       1.8  T
   4    -50.7300979 -0.163954E-06  0.444E-03    8.03       4.4  T
   5    -50.7300979 -0.196887E-07  0.104E-03    8.03      18.9  T
   6    -50.7300979 -0.120334E-08  0.664E-04    8.03      29.5  T
   7    -50.7300979 -0.590347E-09  0.171E-04    8.03     114.5  T
speedup  0.92
cpu  time for SCC    0.01 s
wall time for SCC    0.01 s
speedup  0.95
cpu  time for grad    0.01 s
wall time for grad    0.01 s
 E :    -50.43586061  G :  0.004600    pred/act E change: -0.342D-04 -0.641D-04
Maxdispl :   0.0854   ||displ|| :   0.1868   Lambda : -0.791D-04
Largest |displ|/coords:  0.0854 (   3)  0.0719 (   2)  0.0605 (   1)
................................................................................
.............................. CYCLE   59 ......................................
................................................................................
   1    -50.7300631 -0.507301E+02  0.124E-01    8.06       0.0  T
   2    -50.7300651 -0.198212E-05  0.926E-02    8.06       1.0  T
   3    -50.7300671 -0.200691E-05  0.102E-02    8.07       1.9  T
   4    -50.7300673 -0.174212E-06  0.449E-03    8.07       4.4  T
   5    -50.7300673 -0.154122E-07  0.100E-03    8.07      19.5  T
   6    -50.7300673 -0.100317E-08  0.606E-04    8.07      32.4  T
speedup  1.03
cpu  time for SCC    0.01 s
wall time for SCC    0.01 s
speedup  1.04
cpu  time for grad    0.01 s
wall time for grad    0.01 s
 E :    -50.43591932  G :  0.005139    pred/act E change: -0.476D-04 -0.587D-04
Maxdispl :   0.0804   ||displ|| :   0.1881   Lambda : -0.106D-03
Largest |displ|/coords:  0.0804 (   1)  0.0686 (   2)  0.0555 (   6)
................................................................................
.............................. CYCLE   60 ......................................
................................................................................
   1    -50.7307580 -0.507308E+02  0.129E-01    8.13       0.0  T
   2    -50.7307598 -0.174948E-05  0.962E-02    8.13       1.0  T
   3    -50.7307615 -0.172620E-05  0.103E-02    8.14       1.9  T
   4    -50.7307616 -0.153696E-06  0.394E-03    8.14       5.0  T
   5    -50.7307616 -0.119976E-07  0.898E-04    8.14      21.8  T
   6    -50.7307616 -0.691529E-09  0.520E-04    8.14      37.7  T
speedup  1.05
cpu  time for SCC    0.01 s
wall time for SCC    0.01 s
speedup  1.04
cpu  time for grad    0.01 s
wall time for grad    0.01 s
 E :    -50.43599400  G :  0.004867    pred/act E change: -0.409D-04 -0.747D-04
Maxdispl :   0.1005   ||displ|| :   0.2532   Lambda : -0.109D-03
Largest |displ|/coords:  0.1005 (   1)  0.0933 (   2)  0.0809 (  15)
................................................................................
.............................. CYCLE   61 ......................................
................................................................................
   1    -50.7289815 -0.507290E+02  0.186E-01    8.15       0.0  T
   2    -50.7289864 -0.490559E-05  0.139E-01    8.15       1.0  T
   3    -50.7289905 -0.413060E-05  0.163E-02    8.15       1.2  T
   4    -50.7289911 -0.602893E-06  0.736E-03    8.15       2.7  T
   5    -50.7289912 -0.348833E-07  0.158E-03    8.15      12.4  T
   6    -50.7289912 -0.250778E-08  0.903E-04    8.15      21.7  T
speedup  0.86
cpu  time for SCC    0.00 s
wall time for SCC    0.01 s
speedup  0.96
cpu  time for grad    0.01 s
wall time for grad    0.01 s
 E :    -50.43604630  G :  0.010348    pred/act E change: -0.551D-04 -0.523D-04
Maxdispl :   0.0937   ||displ|| :   0.1946   Lambda : -0.231D-03
Largest |displ|/coords:  0.0937 (   3)  0.0690 (   1)  0.0599 (  12)
................................................................................
.............................. CYCLE   62 ......................................
................................................................................
   1    -50.7322209 -0.507322E+02  0.109E-01    8.21       0.0  T
   2    -50.7322236 -0.270810E-05  0.815E-02    8.21       1.0  T
   3    -50.7322257 -0.202758E-05  0.112E-02    8.21       1.8  T
   4    -50.7322260 -0.360753E-06  0.349E-03    8.21       5.6  T
   5    -50.7322260 -0.235884E-07  0.122E-03    8.21      16.1  T
   6    -50.7322260 -0.161463E-08  0.646E-04    8.21      30.3  T
speedup  1.03
cpu  time for SCC    0.01 s
wall time for SCC    0.01 s
speedup  0.96
cpu  time for grad    0.01 s
wall time for grad    0.01 s
 E :    -50.43611790  G :  0.008398    pred/act E change: -0.583D-04 -0.716D-04
Maxdispl :   0.0740   ||displ|| :   0.1822   Lambda : -0.139D-03
Largest |displ|/coords:  0.0740 (   6)  0.0694 (   1)  0.0647 (   2)
................................................................................
.............................. CYCLE   63 ......................................
................................................................................
   1    -50.7304429 -0.507304E+02  0.125E-01    8.16       0.0  T
   2    -50.7304467 -0.375550E-05  0.927E-02    8.15       1.0  T
   3    -50.7304490 -0.235162E-05  0.140E-02    8.15       1.4  T
   4    -50.7304496 -0.568038E-06  0.629E-03    8.15       3.1  T
   5    -50.7304496 -0.325907E-07  0.138E-03    8.15      14.2  T
   6    -50.7304497 -0.255535E-08  0.770E-04    8.15      25.5  T
speedup  0.91
cpu  time for SCC    0.00 s
wall time for SCC    0.01 s
speedup  0.99
cpu  time for grad    0.01 s
wall time for grad    0.01 s
 E :    -50.43619179  G :  0.009723    pred/act E change: -0.120D-03 -0.739D-04
Maxdispl :   0.0280   ||displ|| :   0.0855   Lambda : -0.165D-03
Largest |displ|/coords:  0.0280 (  12)  0.0262 (  15)  0.0252 (  11)
................................................................................
.............................. CYCLE   64 ......................................
................................................................................
   1    -50.7300594 -0.507301E+02  0.729E-02    8.07       0.0  T
   2    -50.7300620 -0.255756E-05  0.545E-02    8.07       1.0  T
   3    -50.7300632 -0.124328E-05  0.101E-02    8.06       1.9  T
   4    -50.7300636 -0.384973E-06  0.366E-03    8.06       5.4  T
   5    -50.7300637 -0.237133E-07  0.760E-04    8.06      25.8  T
   6    -50.7300637 -0.668123E-09  0.488E-04    8.06      40.1  T
[...]
   5    -50.7346407 -0.226628E-09  0.157E-04    8.02     124.8  T
speedup  1.00
cpu  time for SCC    0.00 s
wall time for SCC    0.01 s
speedup  0.97
cpu  time for grad    0.01 s
wall time for grad    0.01 s
 E :    -50.43782016  G :  0.000596    pred/act E change: -0.617D-06 -0.982D-06
Maxdispl :   0.0379   ||displ|| :   0.0560   Lambda : -0.164D-05
Largest |displ|/coords:  0.0379 (   1)  0.0211 (   7)  0.0168 (   3)
................................................................................
.............................. CYCLE  110 ......................................
................................................................................
   1    -50.7348153 -0.507348E+02  0.248E-02    8.02       0.0  T
   2    -50.7348154 -0.684151E-07  0.183E-02    8.02       1.1  T
   3    -50.7348154 -0.692341E-07  0.201E-03    8.02       9.8  T
   4    -50.7348154 -0.474552E-08  0.594E-04    8.02      33.0  T
   5    -50.7348154 -0.490687E-09  0.198E-04    8.02      98.9  T
speedup  1.06
cpu  time for SCC    0.00 s
wall time for SCC    0.00 s
speedup  1.00
cpu  time for grad    0.01 s
wall time for grad    0.01 s
 E :    -50.43782127  G :  0.000593    pred/act E change: -0.652D-06 -0.110D-05
Maxdispl :   0.0380   ||displ|| :   0.0555   Lambda : -0.102D-05
Largest |displ|/coords:  0.0380 (   1)  0.0205 (   7)  0.0164 (   3)
................................................................................
.............................. CYCLE  111 ......................................
................................................................................
   1    -50.7347742 -0.507348E+02  0.249E-02    8.02       0.0  T
   2    -50.7347743 -0.581601E-07  0.184E-02    8.02       1.1  T
   3    -50.7347743 -0.647613E-07  0.186E-03    8.02      10.5  T
   4    -50.7347743 -0.290626E-08  0.522E-04    8.02      37.6  T
   5    -50.7347743 -0.422382E-09  0.197E-04    8.02      99.3  T
speedup  1.04
cpu  time for SCC    0.00 s
wall time for SCC    0.00 s
speedup  0.98
cpu  time for grad    0.01 s
wall time for grad    0.01 s
 E :    -50.43782193  G :  0.000628    pred/act E change: -0.820D-06 -0.670D-06
Maxdispl :   0.0121   ||displ|| :   0.0289   Lambda : -0.129D-05
Largest |displ|/coords:  0.0121 (   1)  0.0109 (  10)  0.0109 (   4)
................................................................................
.............................. CYCLE  112 ......................................
................................................................................
   1    -50.7350766 -0.507351E+02  0.160E-02    8.02       0.0  T
   2    -50.7350766 -0.601726E-07  0.117E-02    8.01       1.7  T
   3    -50.7350767 -0.510104E-07  0.202E-03    8.01       9.7  T
   4    -50.7350767 -0.671209E-08  0.493E-04    8.01      39.8  T
   5    -50.7350767 -0.557520E-09  0.186E-04    8.01     105.3  T
speedup  1.00
cpu  time for SCC    0.01 s
wall time for SCC    0.00 s
speedup  1.04
cpu  time for grad    0.01 s
wall time for grad    0.01 s
 E :    -50.43782223  G :  0.000601    pred/act E change: -0.513D-06 -0.298D-06
Maxdispl :   0.0248   ||displ|| :   0.0389   Lambda : -0.128D-05
Largest |displ|/coords:  0.0248 (   1)  0.0164 (   7)  0.0137 (   3)

generating ANC from model Hessian ...
 Shifting diagonal of input Hessian by   4.995814077705244E-003
 Lowest  eigenvalues of input Hessian
   -0.000000   -0.000000   -0.000000   -0.000000    0.000000    0.000000
    0.005000    0.005112    0.005257    0.005727    0.005942    0.006158
    0.006392    0.006771    0.007358    0.007731    0.007902    0.009365
 Highest eigenvalues
    1.384638    1.406470    1.408082    2.488451    3.184145    3.939055
 
cpu  time for ANC gen    0.02 s
wall time for ANC gen    0.02 s
................................................................................
.............................. CYCLE  113 ......................................
................................................................................
   1    -50.7349867 -0.507350E+02  0.177E-02    8.01       0.0  T
   2    -50.7349867 -0.371314E-07  0.131E-02    8.01       1.5  T
   3    -50.7349868 -0.335598E-07  0.104E-03    8.01      18.9  T
   4    -50.7349868 -0.284688E-08  0.350E-04    8.01      56.0  T
   5    -50.7349868 -0.121346E-09  0.114E-04    8.01     172.1  T
speedup  1.00
cpu  time for SCC    0.00 s
wall time for SCC    0.00 s
speedup  1.05
cpu  time for grad    0.01 s
wall time for grad    0.01 s
 E :    -50.43782271  G :  0.000631    pred/act E change:  0.000D+00 -0.474D-06
Maxdispl :   0.0028   ||displ|| :   0.0056   Lambda : -0.731D-06
Largest |displ|/coords:  0.0028 (   9)  0.0024 (   6)  0.0018 (  14)
................................................................................
.............................. CYCLE  114 ......................................
................................................................................
   1    -50.7349906 -0.507350E+02  0.357E-03    8.01       0.0  T
   2    -50.7349906 -0.241227E-08  0.265E-03    8.01       7.4  T
   3    -50.7349906 -0.195083E-08  0.323E-04    8.01      60.8  T
   4    -50.7349906 -0.254282E-09  0.901E-05    8.01     217.6  T
speedup  0.77
cpu  time for SCC    0.00 s
wall time for SCC    0.00 s
speedup  0.99
cpu  time for grad    0.01 s
wall time for grad    0.01 s
 E :    -50.43782319  G :  0.000239    pred/act E change:  0.000D+00 -0.487D-06
Maxdispl :   0.0043   ||displ|| :   0.0086   Lambda : -0.530D-06
Largest |displ|/coords:  0.0043 (   6)  0.0036 (  14)  0.0025 (   2)
................................................................................
.............................. CYCLE  115 ......................................
................................................................................
   1    -50.7349692 -0.507350E+02  0.583E-03    8.01       0.0  T
   2    -50.7349692 -0.542174E-08  0.437E-03    8.01       4.5  T
   3    -50.7349693 -0.539859E-08  0.534E-04    8.02      36.7  T
   4    -50.7349693 -0.471474E-09  0.152E-04    8.02     128.8  T
speedup  1.00
cpu  time for SCC    0.00 s
wall time for SCC    0.00 s
speedup  0.97
cpu  time for grad    0.01 s
wall time for grad    0.01 s
 E :    -50.43782344  G :  0.000287    pred/act E change: -0.366D-06 -0.246D-06
Maxdispl :   0.0033   ||displ|| :   0.0071   Lambda : -0.273D-06
Largest |displ|/coords:  0.0033 (   9)  0.0033 (   6)  0.0030 (   2)
................................................................................
.............................. CYCLE  116 ......................................
................................................................................
   1    -50.7349400 -0.507349E+02  0.445E-03    8.02       0.0  T
   2    -50.7349400 -0.171887E-08  0.330E-03    8.02       5.9  T
   3    -50.7349400 -0.176705E-08  0.316E-04    8.02      62.0  T
   4    -50.7349400 -0.116287E-09  0.901E-05    8.02     217.7  T
speedup  1.03
cpu  time for SCC    0.00 s
wall time for SCC    0.00 s
speedup  0.98
cpu  time for grad    0.01 s
wall time for grad    0.01 s
 E :    -50.43782363  G :  0.000258    pred/act E change: -0.265D-06 -0.189D-06
Maxdispl :   0.0053   ||displ|| :   0.0096   Lambda : -0.253D-06
Largest |displ|/coords:  0.0053 (   6)  0.0041 (   2)  0.0036 (  14)
................................................................................
.............................. CYCLE  117 ......................................
................................................................................
   1    -50.7349100 -0.507349E+02  0.606E-03    8.02       0.0  T
   2    -50.7349100 -0.399472E-08  0.451E-03    8.02       4.3  T
   3    -50.7349100 -0.459912E-08  0.457E-04    8.02      43.0  T
   4    -50.7349100 -0.239616E-09  0.136E-04    8.02     143.8  T
speedup  1.00
cpu  time for SCC    0.00 s
wall time for SCC    0.00 s
speedup  0.97
cpu  time for grad    0.01 s
wall time for grad    0.01 s
 E :    -50.43782380  G :  0.000143    pred/act E change: -0.136D-06 -0.172D-06
Maxdispl :   0.0040   ||displ|| :   0.0081   Lambda : -0.137D-06
Largest |displ|/coords:  0.0040 (   6)  0.0038 (   2)  0.0032 (  14)
................................................................................
.............................. CYCLE  118 ......................................
................................................................................
   1    -50.7349055 -0.507349E+02  0.510E-03    8.02       0.0  T
   2    -50.7349055 -0.268243E-08  0.381E-03    8.02       5.1  T
   3    -50.7349055 -0.289393E-08  0.362E-04    8.02      54.1  T
   4    -50.7349055 -0.185892E-09  0.117E-04    8.02     167.1  T
speedup  1.00
cpu  time for SCC    0.00 s
wall time for SCC    0.00 s
speedup  1.05
cpu  time for grad    0.01 s
wall time for grad    0.01 s
 E :    -50.43782389  G :  0.000132    pred/act E change: -0.127D-06 -0.884D-07
Maxdispl :   0.0033   ||displ|| :   0.0065   Lambda : -0.861D-07
Largest |displ|/coords:  0.0033 (   6)  0.0029 (   2)  0.0020 (  14)

   *** GEOMETRY OPTIMIZATION CONVERGED AFTER 118 ITERATIONS ***

------------------------------------------------------------------------
 total energy gain (kcal):     -0.0007
------------------------------------------------------------------------
================
 final structure:
================
$coord
       -5.12100687244823        0.42640946123239       -2.79298752553163      S 
       -3.68621343910481        2.13647025828954       -1.26099884423895      O 
       -7.63140850375277       -0.11833384555956       -2.08318484610940      O 
       -5.05770544064723        1.43006379181247       -5.58399977441753      O 
       -3.59182290753826       -2.10299803571705       -3.01023275509419      O 
       -2.03180677362535       -1.54034009570412       -3.89458494348690      H 
       -3.29891671610199        1.77607068845531       -5.93159460063298      H 
       -0.19420391554899       -2.93504860143012        1.31992324805653      O 
       -1.54139235707746       -3.44804273259147        0.21385128280394      H 
       -0.02077092429203        0.25215812149115       -5.33668879902053      O 
        0.95776691196826       -0.53291413533342       -6.64724480023571      H 
        3.26209864845506        2.96285822740329        2.86682996221836      O 
        4.18458589693085        4.26119818932194        3.72443650998187      H 
        2.85593442907090        0.04138916466343       -1.46063984861781      O 
        3.03569161120583        1.46792228113018       -0.32579046124913      H 
        1.91378697811210       -1.21967335773569       -0.46945560351873      H 
        1.16636120762192        0.41586625641933       -3.84312183684042      H 
       -1.73694424361263        1.33013249417124        3.38722938408357      O 
       -2.67926537585617        1.86429721209244        1.90406940953451      H 
       -0.87810077023166       -1.48223151714094        2.29572890573893      H 
       -0.15808428889319        2.26363355095155        3.31924302996656      H 
        4.15094536545134       -1.64578734418626        4.83871476938116      N 
        3.72524798846266        1.32641006753223        3.67053420819222      H 
        5.86393304510062       -2.47440591691981        4.64201820856093      H 
        3.61724249137882       -1.80801910891586        6.66895390244076      H 
        2.89404795495852       -2.64708509259697        3.78899185581739      H 
$end
 
 Bond Distances (Angstroems)
 ---------------------------
S1-O2=1.4327         S1-O3=1.4103         S1-O4=1.5699         S1-O5=1.5683         O2-S1=1.4327         O3-S1=1.4103         
O4-S1=1.5699         O4-H7=0.9662         O5-S1=1.5683         O5-H6=0.9946         H6-O5=0.9946         H7-O4=0.9662         
O8-H9=0.9615         O8-H20=0.9943        H9-O8=0.9615         O10-H11=0.9600       O10-H17=1.0133       H11-O10=0.9600       
O12-H13=0.9572       O12-H23=0.9954       H13-O12=0.9572       O14-H15=0.9693       O14-H16=0.9844       H15-O14=0.9693       
H16-O14=0.9844       H17-O10=1.0133       O18-H19=0.9719       O18-H21=0.9713       H19-O18=0.9719       H20-O8=0.9943        
H21-O18=0.9713       N22-H24=1.0123       N22-H25=1.0125       N22-H26=1.0157       H23-O12=0.9954       H24-N22=1.0123       
H25-N22=1.0125       H26-N22=1.0157       
 N  H  Rav=1.0135 sigma=0.0016  Rmin=1.0123  Rmax=1.0157     3
 O  H  Rav=0.9783 sigma=0.0170  Rmin=0.9572  Rmax=1.0133    12
 S  O  Rav=1.4953 sigma=0.0742  Rmin=1.4103  Rmax=1.5699     4
 
 selected bond angles (degree)
 --------------------
O3-S1-O2=118.53                O4-S1-O2=107.90                O4-S1-O3=109.87                O5-S1-O2=107.89                
O5-S1-O3=109.34                O5-S1-O4=102.05                H7-O4-S1=105.29                H6-O5-S1=101.96                
H20-O8-H9=105.34               H17-O10-H11=105.43             
 
 selected dihedral angles (degree)
 ---------------------------------
H7-O4-S1-O2= 48.89            H7-O4-S1-O3=179.46            H7-O4-S1-O5=295.38            H6-O5-S1-O2=297.26            
H6-O5-S1-O3=167.08            H6-O5-S1-O4= 50.78            
 
 CMA Distance (Angstroems)
 ---------------------------
R(CMA):  3.9488

========================================================================
 FINAL SINGLEPOINT CALCULATION ON OPTIMIZED GEOMETRY
========================================================================

 Ncao       : 65
 Nao        : 64
 Nshell     : 38
 Nel        : 80
 T(el)      :   300.0
 intcut     :    25.0
 scfconv/Eh :  0.100E-05
   qconv/e  :  0.100E-03
 intneglect :  0.100E-07
 broydamp   :      0.250
 iter      E             dE          RMSdq      gap      omega  full diag
   1    -50.7349055 -0.507349E+02  0.411E-05    8.02       0.0  T
   2    -50.7349055 -0.959233E-12  0.269E-05    8.02     729.4  T
   3    -50.7349055 -0.774492E-12  0.508E-06    8.02    3861.7  T
speedup  0.97
cpu  time for SCC    0.00 s
wall time for SCC    0.00 s

   *** convergence criteria satisfied after 3 iterations ***

          eigenvalues
 #    :          28         29         30         31         32         33         34         35
 occ. :        2.000      2.000      2.000      2.000      2.000      2.000      2.000      2.000
 eps  :       -13.579    -13.522    -13.291    -12.961    -12.795    -12.704    -12.494    -12.315
 #    :          36         37         38         39         40         41         42         43
 occ. :        2.000      2.000      2.000      2.000      2.000      0.000      0.000      0.000
 eps  :       -12.123    -12.016    -11.893    -11.519    -11.285     -3.270     -1.121     -0.534
 #    :          44         45         46         47         48         49         50         51
 occ. :        0.000      0.000      0.000      0.000      0.000      0.000      0.000      0.000
 eps  :        -0.007      0.420      1.191      2.205      2.494      3.857      4.230      4.993


   #   Z            q   n(s)   n(p)   n(d)      C6AA      α(0)
   1  16 S      1.684  1.584  1.783  0.949    89.130    15.890
   2   8 O     -0.690  1.755  4.935  0.000    28.428     7.149
   3   8 O     -0.615  1.744  4.871  0.000    26.477     6.899
   4   8 O     -0.583  1.751  4.832  0.000    24.752     6.716
   5   8 O     -0.616  1.760  4.856  0.000    25.543     6.823
   6   1 H      0.384  0.616  0.000  0.000     0.508     1.116
   7   1 H      0.377  0.623  0.000  0.000     0.523     1.133
   8   8 O     -0.639  1.754  4.885  0.000    26.153     6.902
   9   1 H      0.291  0.709  0.000  0.000     0.749     1.359
  10   8 O     -0.650  1.765  4.885  0.000    26.423     6.937
  11   1 H      0.297  0.703  0.000  0.000     0.730     1.342
  12   8 O     -0.623  1.745  4.878  0.000    25.741     6.847
  13   1 H      0.277  0.723  0.000  0.000     0.795     1.401
  14   8 O     -0.633  1.760  4.872  0.000    25.978     6.879
  15   1 H      0.324  0.676  0.000  0.000     0.654     1.271
  16   1 H      0.329  0.671  0.000  0.000     0.641     1.258
  17   1 H      0.357  0.643  0.000  0.000     0.573     1.189
  18   8 O     -0.623  1.754  4.868  0.000    25.733     6.847
  19   1 H      0.316  0.684  0.000  0.000     0.674     1.290
  20   1 H      0.333  0.667  0.000  0.000     0.630     1.247
  21   1 H      0.319  0.681  0.000  0.000     0.668     1.284
  22   7 N     -0.444  1.369  4.076  0.000    31.655     8.356
  23   1 H      0.323  0.677  0.000  0.000     0.656     1.272
  24   1 H      0.153  0.847  0.000  0.000     1.380     1.840
  25   1 H      0.156  0.844  0.000  0.000     1.360     1.827
  26   1 H      0.196  0.804  0.000  0.000     1.125     1.661

 Mol. C6AA /au·bohr⁶  :       5444.728745
 Mol. C8AA /au·bohr⁸  :     117530.181973
 Mol. α(0) /au        :        106.734927

 
 Wiberg/Mayer (AO) data. WBOs > 0.1 written file <wbo>
 largest (>0.05) Wiberg bond orders for each atom
           total WBO             WBO to atom ...
     1  S   4.851    O    3 1.543    O    2 1.394    O    5 0.947    O    4 0.941
     2  O   1.759    S    1 1.394    O    3 0.132    O    5 0.092    O    4 0.087
     3  O   1.846    S    1 1.543    O    2 0.132    O    5 0.080    O    4 0.075
     4  O   1.994    S    1 0.941    H    7 0.813    O    2 0.087    O    3 0.075    O    5 0.062
     5  O   1.970    S    1 0.947    H    6 0.731    O    2 0.092    O    3 0.080    O    4 0.062
     6  H   0.853    O    5 0.731    O   10 0.104
     7  H   0.858    O    4 0.813
     8  O   1.861    H    9 0.898    H   20 0.801    H   16 0.066
     9  H   0.915    O    8 0.898
    10  O   1.887    H   11 0.906    H   17 0.747    H    6 0.104
    11  H   0.912    O   10 0.906
    12  O   1.855    H   13 0.915    H   23 0.802
    13  H   0.923    O   12 0.915
    14  O   1.907    H   15 0.860    H   16 0.823    H   17 0.121
    15  H   0.895    O   14 0.860
    16  H   0.892    O   14 0.823    O    8 0.066
    17  H   0.873    O   10 0.747    O   14 0.121
    18  O   1.890    H   21 0.862    H   19 0.860    H   20 0.085
    19  H   0.900    O   18 0.860
    20  H   0.889    O    8 0.801    O   18 0.085
    21  H   0.899    O   18 0.862
    22  N   3.039    H   24 0.974    H   25 0.973    H   26 0.947    H   23 0.091
    23  H   0.896    O   12 0.802    N   22 0.091
    24  H   0.977    N   22 0.974
    25  H   0.976    N   22 0.973
    26  H   0.961    N   22 0.947
 MOs/occ written to file <molden.input>
 
molecular dipole:
                 x           y           z       tot (Debye)
 q only:        2.346      -0.094      -0.078
   full:        2.728      -0.257      -0.116       6.971
molecular quadrupole (traceless):
                xx          xy          yy          xz          yz          zz
 q only:      -16.023       0.811       1.599       3.313       0.987      14.423
  q+dip:      -19.671       0.709       2.261       6.255       0.504      17.410
   full:      -19.568       0.711       1.958       6.209       0.625      17.611

SCC energy    :     -50.7349055
rep           :       0.2968571
ES            :       0.2339802
AES           :      -0.0480043
AXC           :      -0.0060628
disp          :      -0.0175669
XB            :       0.0000000
fix           :       0.0000000
total E       :     -50.4378239
atomizationE  :       4.9681281     3117.55
(atE without considering molecular charge,
 total energy contains solvation terms)
H-L gap (eV)  :          8.0156
optimized geometry written to: xtbopt.xyz


------------------------------------------------------------------------
 * finished run on 2019/09/16 at 11:35:07.594     
------------------------------------------------------------------------
 total:
 * wall-time:     0 d,  0 h,  0 min,  2.943 sec
 *  cpu-time:     0 d,  0 h,  0 min,  2.627 sec
 * ratio c/w:     0.893 speedup
 SCF:
 * wall-time:     0 d,  0 h,  0 min,  0.138 sec
 *  cpu-time:     0 d,  0 h,  0 min,  0.135 sec
 * ratio c/w:     0.976 speedup
 ANC optimizer:
 * wall-time:     0 d,  0 h,  0 min,  2.779 sec
 *  cpu-time:     0 d,  0 h,  0 min,  2.467 sec
 * ratio c/w:     0.888 speedup

