      -----------------------------------------------------------      
     |                   =====================                   |     
     |                           x T B                           |     
     |                   =====================                   |     
     |                         S. Grimme                         |     
     |          Mulliken Center for Theoretical Chemistry        |     
     |                    University of Bonn                     |     
     |                 Version 6.0.1 (SAW181210)                 |     
      -----------------------------------------------------------      

   This program is distributed in the hope that it will be useful,
   but WITHOUT ANY WARRANTY; without even the implied warranty of
   MERCHANTABILITY or FITNESS FOR A PARTICULAR PURPOSE.
   
   FOR NON-COMMERCIAL, ACADEMIA USE ONLY.
   
   Cite this work as:
   S. Grimme, C. Bannwarth, P. Shushkov, J. Comput. Theory Chem., 2017,
   13, 1989-2009.
   C. Bannwarth, S. Ehlert and S. Grimme., ChemRxiv, 2018, preprint.
   http://doi.org/10.26434/chemrxiv.7246238.v1
   
   for sTDA-xTB:
   S. Grimme and C. Bannwarth, J. Chem. Phys., 2016, 145, 054103.
   
   in the mass-spec context:
   V. Asgeirsson, C. Bauer and S. Grimme, Chem. Sci., 2017, 8, 4879.
   
   if GBSA is used:
   P. Shushkov, F. März and S. Grimme, unpublished.
   
   for ANC optimizer:
   S. Grimme, unpublished.
   Rational Function algorithm used in ANCopt:
   F. Eckert, P. Pulay, H.-J. Werner, J. Comput. Chem., 1997, 18, 1473.
   
   with help from (in alphabetical order)
   C. Bannwarth, F. Bohle, G. Brandenburg, E. Caldeweyher, M. Checinski,
   S. Dohm, S. Ehlert, S. Ehrlich, F. März, H. Neugebauer, J. Pisarek,
   P. Pracht, P. Shushkov, and S. Spicher.
   
 * started run on 2019/09/16 at 12:27:29.654     
========================================================================
 # omp threads = 1
========================================================================
number of atoms            : 26
number of electrons        : 80
charge                     : 0
spin                       : .0
first test random number   : .6092

########################################################################
# WARNING! Please study the warnings concerning your input carefully
#  - XTBPATH is not set, using XTBHOME instead
#  - the use of '-opt' is discouraged, please use '--opt' next time
#  - the use of '-chrg' is discouraged, please use '--chrg' next time
#  - the use of '-uhf' is discouraged, please use '--uhf' next time
########################################################################

           ------------------------------------------------- 
          |                 G F N 2 - x T B                 |
          | Geometry, Frequencies, Noncovalent interactions |
          |            JCTC 2018 parametrisation            |
           ------------------------------------------------- 
      method parameters     
 k(s)        :  1.8500
 k(p)        :  2.2300
 k(d)        :  2.2300
 k(f)        :  2.0000
 kEN (H0ij)  : -2.0000
 D4 a1       :  0.5200
 D4 a2       :  5.0000
 D4 s6       :  1.0000
 D4 s8       :  2.7000
 D4 s9       :  5.0000
 alphaj      :  2.0000


            Z     q(EN)     CN     RAES       Cart. coordinates
     1  S   6.0    0.58    4.27    4.18    -5.07319    -2.28569     0.09763
     2  O   6.0   -0.31    1.13    1.80    -3.56176    -0.52816     1.58360
     3  O   6.0   -0.27    1.09    1.80    -7.79301    -2.40674     0.25755
     4  O   6.0   -0.23    2.05    1.83    -4.19419    -1.96673    -2.84703
     5  O   6.0   -0.22    2.04    1.83    -4.09918    -5.14139     0.50254
     6  H   1.0    0.15    1.12    1.45    -2.25995    -5.15395     0.56121
     7  H   1.0    0.17    1.24    1.48    -3.71376    -0.20616    -3.08351
     8  O   6.0   -0.37    1.45    1.80     1.93942    -3.46125     0.09606
     9  H   1.0    0.17    0.94    1.42     2.40577    -5.17323    -0.48308
    10  O   6.0   -0.39    1.49    1.80    -2.39151     2.44911    -3.27594
    11  H   1.0    0.18    0.95    1.42    -3.38890     2.97442    -4.76356
    12  O   6.0   -0.39    1.63    1.81     3.22708     3.38062     1.01028
    13  H   1.0    0.17    0.95    1.42     4.15844     4.88050     0.40473
    14  O   6.0   -0.23    2.95    2.67     1.68286     0.44231    -2.20604
    15  H   1.0    0.16    1.19    1.46     1.57265    -1.27959    -1.48997
    16  H   1.0    0.16    1.13    1.45     0.03348     1.04110    -2.84715
    17  H   1.0    0.15    1.17    1.46     2.44619     1.65204    -1.00380
    18  O   6.0   -0.22    2.93    2.60    -1.28137     4.03788     0.91157
    19  H   1.0    0.15    1.00    1.43    -2.09728     2.67445     1.89402
    20  H   1.0    0.16    1.19    1.46     0.57823     4.01204     1.08832
    21  H   1.0    0.16    1.10    1.44    -1.81331     4.02359    -0.87962
    22  N   5.0   -0.15    3.96    2.75     4.72466    -0.79303     2.89444
    23  H   1.0    0.08    0.99    1.43     6.57919    -1.07293     2.37790
    24  H   1.0    0.13    1.17    1.46     3.57305    -1.93630     1.82150
    25  H   1.0    0.08    0.99    1.43     4.50240    -1.23206     4.77654
    26  H   1.0    0.12    1.11    1.45     4.24399     1.06916     2.60180

  Z AO/shell   Hii/eV     exponent
  1     Wed Apr 25 08:07:45 CEST 2018   EN: 2.200 GM2: 0.406  GM3: 0.0800  RAES: 1.40
     1s    -10.707211    1.230000
  7     Wed Apr 25 08:07:45 CEST 2018   EN: 3.040 GM2: 0.461  GM3:-0.0640  RAES: 1.90
     2s    -16.686243    2.339881
     2p    -12.523956    2.014332
  8     Wed Apr 25 08:07:45 CEST 2018   EN: 3.440 GM2: 0.452  GM3:-0.0517  RAES: 1.80
     2s    -20.229985    2.439742
     2p    -15.503117    2.137023
 16     Tue Apr 24 11:44:34 CEST 2018   EN: 2.580 GM2: 0.340  GM3:-0.0502  RAES: 3.10
     3s    -20.029654    1.981333
     3p    -11.377694    2.025643
     3d     -0.420282    1.702555
 no old-style atom pair restraining (fixing) potential

molecular fragmentation (1/2 indicates fragments):
11111112222222222222222222
# atoms in fragment 1/2:     7    19
 fragment masses (1/2) :       98.07      107.11
CMA distance (Bohr)    :   7.133
constraining FC (au)   :  0.0500
           ------------------------------------------------- 
          |        Self-Consistent Charge Iterations        |
           ------------------------------------------------- 

 Ncao       : 65
 Nao        : 64
 Nshell     : 38
 Nel        : 80
 T(el)      :   300.0
 intcut     :    25.0
 scfconv/Eh :  0.100E-05
   qconv/e  :  0.100E-03
 intneglect :  0.100E-07
 broydamp   :      0.250
 iter      E             dE          RMSdq      gap      omega  full diag
   1    -50.4805346 -0.504805E+02  0.715E+00    8.23       0.0  T
   2    -50.5328285 -0.522939E-01  0.505E+00    7.25       1.0  T
   3    -50.5770811 -0.442526E-01  0.120E+00    4.50       1.0  T
   4    -50.5806248 -0.354370E-02  0.716E-01    4.75       1.0  T
   5    -50.5822413 -0.161650E-02  0.271E-01    4.86       1.0  T
   6    -50.5825811 -0.339823E-03  0.152E-01    4.90       1.0  T
   7    -50.5827284 -0.147278E-03  0.441E-02    4.91       1.0  T
   8    -50.5827384 -0.100438E-04  0.255E-02    4.90       1.0  T
   9    -50.5827419 -0.348826E-05  0.963E-03    4.91       2.0  T
  10    -50.5827423 -0.421655E-06  0.278E-03    4.92       7.1  T
  11    -50.5827424 -0.228658E-07  0.133E-03    4.92      14.7  T
  12    -50.5827424 -0.891176E-08  0.424E-04    4.92      46.2  T
  13    -50.5827424 -0.699224E-09  0.175E-04    4.92     112.1  T
speedup  1.03
cpu  time for SCC    0.02 s
wall time for SCC    0.02 s

   *** convergence criteria satisfied after 13 iterations ***

          eigenvalues
 #    :          28         29         30         31         32         33         34         35
 occ. :        2.000      2.000      2.000      2.000      2.000      2.000      2.000      2.000
 eps  :       -12.650    -12.444    -12.318    -12.259    -12.097    -12.067    -11.903    -10.979
 #    :          36         37         38         39         40         41         42         43
 occ. :        2.000      2.000      2.000      2.000      2.000      0.000      0.000      0.000
 eps  :       -10.811     -9.876     -9.686     -9.538     -9.328     -4.411     -1.744     -1.367
 #    :          44         45         46         47         48         49         50         51
 occ. :        0.000      0.000      0.000      0.000      0.000      0.000      0.000      0.000
 eps  :        -0.461      0.123      0.948      2.336      2.643      3.095      3.287      4.113


   #   Z            q   n(s)   n(p)   n(d)      C6AA      α(0)
   1  16 S      1.631  1.629  1.810  0.930    90.352    15.998
   2   8 O     -0.674  1.757  4.917  0.000    28.018     7.097
   3   8 O     -0.622  1.773  4.849  0.000    26.655     6.922
   4   8 O     -0.609  1.771  4.838  0.000    25.382     6.801
   5   8 O     -0.562  1.755  4.807  0.000    24.267     6.650
   6   1 H      0.371  0.629  0.000  0.000     0.540     1.153
   7   1 H      0.376  0.624  0.000  0.000     0.528     1.140
   8   8 O     -0.891  1.828  5.064  0.000    34.473     7.873
   9   1 H      0.175  0.825  0.000  0.000     1.255     1.760
  10   8 O     -0.883  1.827  5.056  0.000    34.240     7.845
  11   1 H      0.194  0.806  0.000  0.000     1.150     1.685
  12   8 O     -0.851  1.825  5.026  0.000    33.133     7.719
  13   1 H      0.208  0.792  0.000  0.000     1.078     1.631
  14   8 O     -0.513  1.682  4.830  0.000    23.104     6.492
  15   1 H      0.387  0.613  0.000  0.000     0.504     1.112
  16   1 H      0.387  0.613  0.000  0.000     0.508     1.118
  17   1 H      0.380  0.620  0.000  0.000     0.519     1.129
  18   8 O     -0.457  1.660  4.797  0.000    21.922     6.324
  19   1 H      0.386  0.614  0.000  0.000     0.512     1.124
  20   1 H      0.397  0.603  0.000  0.000     0.485     1.091
  21   1 H      0.403  0.597  0.000  0.000     0.479     1.086
  22   7 N     -0.303  1.267  4.036  0.000    27.782     7.828
  23   1 H      0.226  0.774  0.000  0.000     0.982     1.552
  24   1 H      0.320  0.680  0.000  0.000     0.656     1.268
  25   1 H      0.221  0.779  0.000  0.000     1.004     1.570
  26   1 H      0.304  0.696  0.000  0.000     0.702     1.313

 Mol. C6AA /au·bohr⁶  :       5535.162802
 Mol. C8AA /au·bohr⁸  :     119806.357738
 Mol. α(0) /au        :        107.280688

 
 Wiberg/Mayer (AO) data. WBOs > 0.1 written file <wbo>
 largest (>0.05) Wiberg bond orders for each atom
           total WBO             WBO to atom ...
     1  S   4.786    O    3 1.486    O    2 1.383    O    4 0.946    O    5 0.943
     2  O   1.758    S    1 1.383    O    3 0.140    O    4 0.103    O    5 0.088
     3  O   1.821    S    1 1.486    O    2 0.140    O    4 0.102    O    5 0.079
     4  O   1.961    S    1 0.946    H    7 0.701    O    2 0.103    O    3 0.102    O    5 0.057
     5  O   2.012    S    1 0.943    H    6 0.833    O    2 0.088    O    3 0.079    O    4 0.057
     6  H   0.863    O    5 0.833
     7  H   0.858    O    4 0.701    O   10 0.140
     8  O   1.481    H    9 0.955    H   15 0.183    H   24 0.181    N   22 0.077    O   14 0.060
     9  H   0.969    O    8 0.955
    10  O   1.523    H   11 0.943    H   21 0.142    H    7 0.140    H   16 0.139
    11  H   0.962    O   10 0.943
    12  O   1.612    H   13 0.946    H   20 0.195    H   17 0.167    H   26 0.116    O   18 0.064    O   14 0.059    N   22 0.051
    13  H   0.957    O   12 0.946
    14  O   2.234    H   16 0.702    H   17 0.683    H   15 0.662    O    8 0.060    O   12 0.059
    15  H   0.851    O   14 0.662    O    8 0.183
    16  H   0.851    O   14 0.702    O   10 0.139
    17  H   0.855    O   14 0.683    O   12 0.167
    18  O   2.283    H   19 0.811    H   21 0.688    H   20 0.643    O   12 0.064
    19  H   0.851    O   18 0.811
    20  H   0.843    O   18 0.643    O   12 0.195
    21  H   0.838    O   18 0.688    O   10 0.142
    22  N   3.529    H   25 0.945    H   23 0.944    H   26 0.786    H   24 0.711    O    8 0.077    O   12 0.051
    23  H   0.949    N   22 0.944
    24  H   0.898    N   22 0.711    O    8 0.181
    25  H   0.951    N   22 0.945
    26  H   0.908    N   22 0.786    O   12 0.116
 MOs/occ written to file <molden.input>
 
molecular dipole:
                 x           y           z       tot (Debye)
 q only:        3.310       1.096       2.007
   full:        3.536       0.930       1.775      10.330
molecular quadrupole (traceless):
                xx          xy          yy          xz          yz          zz
 q only:       -4.991     -12.415      -2.291       7.338      -1.588       7.282
  q+dip:       -6.096     -13.259      -1.005      10.221      -3.731       7.101
   full:       -6.379     -13.411      -0.572      10.414      -4.107       6.951

SCC energy    :     -50.5827424
rep           :       0.2635988
ES            :       0.3402682
AES           :      -0.0562679
AXC           :      -0.0051437
disp          :      -0.0181963
XB            :       0.0000000
fix           :       0.0000000
total E       :     -50.3188236
atomizationE  :       4.8491278     3042.87
(atE without considering molecular charge,
 total energy contains solvation terms)
H-L gap (eV)  :          4.9172
           ------------------------------------------------- 
          |                 ===============                 |
          |                   A N C O P T                   |
          |                 ===============                 |
          |          Approximate Normal Coordinate          |
          |           Rational Function Optimizer           |
           ------------------------------------------------- 
dumping coords to <xtbopt.coord> and <xtbopt.log>
 optlevel               2
 Maxcycle             520
 Maxmicro              25
 Econv         1.000000000000000E-007
 Gconv         2.000000000000000E-004
 Maxdispl       1.00000000000000     
 Hlow          5.000000000000000E-003
 S6             20.0000000000000     
 Nvar               72

generating ANC from model Hessian ...
 Shifting diagonal of input Hessian by   5.048026368247124E-003
 Lowest  eigenvalues of input Hessian
    0.005000   -0.000000   -0.000000   -0.000000    0.000000    0.000000
    0.000000    0.005367    0.005527    0.006018    0.006116    0.006623
    0.007322    0.007677    0.008033    0.009171    0.010326    0.011796
 Highest eigenvalues
    1.585951    1.595920    1.607180    1.948957    2.765562    3.589074
 
cpu  time for ANC gen    0.02 s
wall time for ANC gen    0.02 s
................................................................................
.............................. CYCLE    1 ......................................
................................................................................
   1    -50.5827424 -0.505827E+02  0.498E-05    4.92       0.0  T
   2    -50.5827424 -0.601830E-11  0.380E-05    4.92     515.9  T
   3    -50.5827424 -0.308376E-11  0.176E-05    4.92    1111.4  T
speedup  0.97
cpu  time for SCC    0.00 s
wall time for SCC    0.00 s
speedup  1.03
cpu  time for grad    0.01 s
wall time for grad    0.01 s
 E :    -50.31882357  G :  0.209756    pred/act E change:  0.000D+00  0.177D-07
Maxdispl :   0.1083   ||displ|| :   0.3547   Lambda : -0.485D-01
Largest |displ|/coords:  0.1083 (  24)  0.1022 (  55)  0.0959 (  21)
................................................................................
.............................. CYCLE    2 ......................................
................................................................................
   1    -50.6041634 -0.506042E+02  0.435E-01    5.79       0.0  T
   2    -50.6047687 -0.605287E-03  0.313E-01    5.93       1.0  T
   3    -50.6050113 -0.242631E-03  0.104E-01    6.18       1.0  T
   4    -50.6050427 -0.314219E-04  0.257E-02    6.17       1.0  T
   5    -50.6050447 -0.194361E-05  0.704E-03    6.16       2.8  T
   6    -50.6050448 -0.998951E-07  0.406E-03    6.16       4.8  T
   7    -50.6050448 -0.430786E-07  0.151E-03    6.16      13.0  T
speedup  1.08
cpu  time for SCC    0.01 s
wall time for SCC    0.01 s
speedup  1.05
cpu  time for grad    0.01 s
wall time for grad    0.01 s
 E :    -50.35705019  G :  0.121724    pred/act E change:  0.000D+00 -0.382D-01
Maxdispl :   0.1251   ||displ|| :   0.4099   Lambda : -0.244D-01
Largest |displ|/coords:  0.1251 (  24)  0.1230 (  13)  0.1149 (  21)
................................................................................
.............................. CYCLE    3 ......................................
................................................................................
   1    -50.6157310 -0.506157E+02  0.398E-01    6.87       0.0  T
   2    -50.6164038 -0.672730E-03  0.279E-01    7.02       1.0  T
   3    -50.6166674 -0.263662E-03  0.107E-01    7.25       1.0  T
   4    -50.6166885 -0.210492E-04  0.229E-02    7.26       1.0  T
   5    -50.6166903 -0.184876E-05  0.641E-03    7.25       3.1  T
   6    -50.6166904 -0.933262E-07  0.376E-03    7.25       5.2  T
   7    -50.6166904 -0.387541E-07  0.124E-03    7.25      15.8  T
speedup  1.04
cpu  time for SCC    0.01 s
wall time for SCC    0.01 s
speedup  1.03
cpu  time for grad    0.01 s
wall time for grad    0.01 s
 E :    -50.37711964  G :  0.078350    pred/act E change: -0.273D-01 -0.201D-01
Maxdispl :   0.1790   ||displ|| :   0.4603   Lambda : -0.139D-01
Largest |displ|/coords:  0.1790 (   6)  0.1782 (  13)  0.1400 (   1)
................................................................................
.............................. CYCLE    4 ......................................
................................................................................
   1    -50.6223574 -0.506224E+02  0.315E-01    7.77       0.0  T
   2    -50.6228727 -0.515323E-03  0.218E-01    7.89       1.0  T
   3    -50.6230732 -0.200526E-03  0.916E-02    8.07       1.0  T
   4    -50.6230859 -0.126834E-04  0.198E-02    8.09       1.0  T
   5    -50.6230873 -0.134915E-05  0.554E-03    8.08       3.5  T
   6    -50.6230873 -0.515859E-07  0.344E-03    8.08       5.7  T
speedup  0.89
cpu  time for SCC    0.01 s
wall time for SCC    0.01 s
speedup  0.96
cpu  time for grad    0.01 s
wall time for grad    0.01 s
 E :    -50.38855834  G :  0.050475    pred/act E change: -0.142D-01 -0.114D-01
Maxdispl :   0.2587   ||displ|| :   0.5202   Lambda : -0.811D-02
Largest |displ|/coords:  0.2587 (   6)  0.2141 (   1)  0.2117 (   5)
................................................................................
.............................. CYCLE    5 ......................................
................................................................................
   1    -50.6271948 -0.506272E+02  0.242E-01    8.39       0.0  T
   2    -50.6274515 -0.256624E-03  0.171E-01    8.46       1.0  T
   3    -50.6275511 -0.996792E-04  0.699E-02    8.57       1.0  T
   4    -50.6275600 -0.884256E-05  0.154E-02    8.58       1.3  T
   5    -50.6275608 -0.799953E-06  0.460E-03    8.57       4.3  T
   6    -50.6275608 -0.279029E-07  0.291E-03    8.57       6.7  T
speedup  1.05
cpu  time for SCC    0.01 s
wall time for SCC    0.01 s
speedup  1.01
cpu  time for grad    0.01 s
wall time for grad    0.01 s
 E :    -50.39534446  G :  0.031137    pred/act E change: -0.844D-02 -0.679D-02
Maxdispl :   0.3638   ||displ|| :   0.6916   Lambda : -0.783D-02
Largest |displ|/coords:  0.3638 (   1)  0.3255 (   5)  0.1990 (   8)
................................................................................
.............................. CYCLE    6 ......................................
................................................................................
   1    -50.6257695 -0.506258E+02  0.361E-01    8.77       0.0  T
   2    -50.6262939 -0.524442E-03  0.257E-01    8.81       1.0  T
   3    -50.6265014 -0.207461E-03  0.105E-01    8.85       1.0  T
   4    -50.6265230 -0.216822E-04  0.231E-02    8.84       1.0  T
   5    -50.6265249 -0.185024E-05  0.756E-03    8.84       2.6  T
   6    -50.6265250 -0.932766E-07  0.496E-03    8.84       4.0  T
   7    -50.6265250 -0.423000E-07  0.129E-03    8.84      15.2  T
speedup  1.01
cpu  time for SCC    0.01 s
wall time for SCC    0.01 s
speedup  0.98
cpu  time for grad    0.01 s
wall time for grad    0.02 s
 E :    -50.40000797  G :  0.021894    pred/act E change: -0.515D-02 -0.466D-02
Maxdispl :   0.3241   ||displ|| :   0.5689   Lambda : -0.358D-02
Largest |displ|/coords:  0.3241 (   6)  0.2707 (   1)  0.2382 (   3)
................................................................................
.............................. CYCLE    7 ......................................
................................................................................
   1    -50.6330661 -0.506331E+02  0.245E-01    8.90       0.0  T
   2    -50.6331271 -0.610205E-04  0.185E-01    8.89       1.0  T
   3    -50.6331734 -0.462362E-04  0.404E-02    8.86       1.0  T
   4    -50.6331817 -0.836493E-05  0.132E-02    8.86       1.5  T
   5    -50.6331820 -0.240735E-06  0.472E-03    8.87       4.2  T
   6    -50.6331820 -0.282841E-07  0.246E-03    8.87       8.0  T
speedup  1.02
cpu  time for SCC    0.01 s
wall time for SCC    0.01 s
speedup  0.99
cpu  time for grad    0.01 s
wall time for grad    0.01 s
 E :    -50.40048663  G :  0.042987    pred/act E change: -0.579D-02 -0.479D-03
Maxdispl :   0.2752   ||displ|| :   0.3807   Lambda : -0.347D-02
Largest |displ|/coords:  0.2752 (   1)  0.1604 (   5)  0.1516 (   2)
................................................................................
.............................. CYCLE    8 ......................................
................................................................................
   1    -50.6312901 -0.506313E+02  0.191E-01    8.92       0.0  T
   2    -50.6313228 -0.327361E-04  0.144E-01    8.91       1.0  T
   3    -50.6313430 -0.201985E-04  0.398E-02    8.90       1.0  T
   4    -50.6313471 -0.411905E-05  0.110E-02    8.90       1.8  T
   5    -50.6313474 -0.242533E-06  0.338E-03    8.90       5.8  T
   6    -50.6313474 -0.111772E-07  0.173E-03    8.90      11.3  T
speedup  1.07
cpu  time for SCC    0.01 s
wall time for SCC    0.01 s
speedup  1.01
cpu  time for grad    0.01 s
wall time for grad    0.01 s
 E :    -50.40231613  G :  0.022274    pred/act E change: -0.237D-02 -0.183D-02
Maxdispl :   0.1971   ||displ|| :   0.4117   Lambda : -0.284D-02
Largest |displ|/coords:  0.1971 (   1)  0.1932 (  10)  0.1281 (   3)
................................................................................
.............................. CYCLE    9 ......................................
................................................................................
   1    -50.6339243 -0.506339E+02  0.230E-01    8.93       0.0  T
   2    -50.6339601 -0.358145E-04  0.172E-01    8.92       1.0  T
   3    -50.6339739 -0.138049E-04  0.344E-02    8.92       1.0  T
   4    -50.6339796 -0.569038E-05  0.117E-02    8.92       1.7  T
   5    -50.6339799 -0.248314E-06  0.276E-03    8.92       7.1  T
   6    -50.6339799 -0.468121E-08  0.152E-03    8.92      12.9  T
speedup  1.03
cpu  time for SCC    0.01 s
wall time for SCC    0.01 s
speedup  1.00
cpu  time for grad    0.01 s
wall time for grad    0.01 s
 E :    -50.40300239  G :  0.021549    pred/act E change: -0.199D-02 -0.686D-03
Maxdispl :   0.2538   ||displ|| :   0.3591   Lambda : -0.214D-02
Largest |displ|/coords:  0.2538 (   1)  0.1123 (   3)  0.0984 (   7)
................................................................................
.............................. CYCLE   10 ......................................
................................................................................
   1    -50.6344418 -0.506344E+02  0.160E-01    8.88       0.0  T
   2    -50.6344676 -0.257675E-04  0.119E-01    8.88       1.0  T
   3    -50.6344814 -0.138130E-04  0.298E-02    8.87       1.0  T
   4    -50.6344843 -0.290561E-05  0.855E-03    8.87       2.3  T
   5    -50.6344845 -0.177064E-06  0.283E-03    8.87       6.9  T
   6    -50.6344845 -0.101001E-07  0.172E-03    8.87      11.4  T
speedup  0.86
cpu  time for SCC    0.00 s
wall time for SCC    0.01 s
speedup  0.99
cpu  time for grad    0.01 s
wall time for grad    0.01 s
 E :    -50.40445039  G :  0.019408    pred/act E change: -0.166D-02 -0.145D-02
Maxdispl :   0.3679   ||displ|| :   0.5487   Lambda : -0.232D-02
Largest |displ|/coords:  0.3679 (   1)  0.1907 (   3)  0.1763 (   6)
................................................................................
.............................. CYCLE   11 ......................................
................................................................................
   1    -50.6359224 -0.506359E+02  0.211E-01    8.91       0.0  T
   2    -50.6359601 -0.377130E-04  0.157E-01    8.91       1.0  T
   3    -50.6359834 -0.232589E-04  0.373E-02    8.91       1.0  T
   4    -50.6359882 -0.481806E-05  0.126E-02    8.91       1.6  T
   5    -50.6359885 -0.329847E-06  0.399E-03    8.91       4.9  T
   6    -50.6359885 -0.187555E-07  0.197E-03    8.91      10.0  T
   7    -50.6359885 -0.709790E-08  0.573E-04    8.91      34.2  T
speedup  0.90
cpu  time for SCC    0.01 s
wall time for SCC    0.01 s
speedup  1.00
cpu  time for grad    0.01 s
wall time for grad    0.01 s
 E :    -50.40570695  G :  0.019303    pred/act E change: -0.121D-02 -0.126D-02
Maxdispl :   0.3373   ||displ|| :   0.5388   Lambda : -0.203D-02
Largest |displ|/coords:  0.3373 (   1)  0.2957 (   3)  0.1476 (   2)
................................................................................
.............................. CYCLE   12 ......................................
................................................................................
   1    -50.6378398 -0.506378E+02  0.242E-01    8.91       0.0  T
   2    -50.6378741 -0.343468E-04  0.181E-01    8.91       1.0  T
   3    -50.6378959 -0.218075E-04  0.332E-02    8.89       1.0  T
   4    -50.6379008 -0.481338E-05  0.111E-02    8.89       1.8  T
   5    -50.6379010 -0.235689E-06  0.345E-03    8.89       5.7  T
   6    -50.6379010 -0.109104E-07  0.199E-03    8.89       9.8  T
   7    -50.6379010 -0.723695E-08  0.436E-04    8.89      45.0  T
speedup  1.03
cpu  time for SCC    0.01 s
wall time for SCC    0.01 s
speedup  0.98
cpu  time for grad    0.01 s
wall time for grad    0.02 s
 E :    -50.40746981  G :  0.023664    pred/act E change: -0.151D-02 -0.176D-02
Maxdispl :   0.4060   ||displ|| :   0.6545   Lambda : -0.341D-02
Largest |displ|/coords:  0.4060 (   1)  0.3165 (   3)  0.1394 (  15)
................................................................................
.............................. CYCLE   13 ......................................
................................................................................
   1    -50.6466584 -0.506467E+02  0.341E-01    9.00       0.0  T
   2    -50.6468041 -0.145678E-03  0.255E-01    9.00       1.0  T
   3    -50.6468749 -0.708520E-04  0.680E-02    9.00       1.0  T
   4    -50.6468950 -0.200291E-04  0.192E-02    8.99       1.0  T
   5    -50.6468956 -0.643886E-06  0.654E-03    8.99       3.0  T
   6    -50.6468956 -0.400360E-07  0.346E-03    8.99       5.7  T
   7    -50.6468957 -0.201809E-07  0.961E-04    8.99      20.4  T
speedup  1.03
cpu  time for SCC    0.01 s
wall time for SCC    0.01 s
speedup  1.01
cpu  time for grad    0.01 s
wall time for grad    0.01 s
 E :    -50.41017870  G :  0.027555    pred/act E change: -0.131D-02 -0.271D-02
Maxdispl :   0.4327   ||displ|| :   0.7141   Lambda : -0.390D-02
Largest |displ|/coords:  0.4327 (   1)  0.2832 (   3)  0.2032 (  10)
................................................................................
.............................. CYCLE   14 ......................................
................................................................................
   1    -50.6491870 -0.506492E+02  0.363E-01    9.00       0.0  T
   2    -50.6494244 -0.237388E-03  0.270E-01    9.00       1.0  T
   3    -50.6495391 -0.114777E-03  0.810E-02    8.99       1.0  T
   4    -50.6495657 -0.265284E-04  0.208E-02    8.99       1.0  T
   5    -50.6495665 -0.839584E-06  0.764E-03    8.99       2.6  T
   6    -50.6495666 -0.589219E-07  0.429E-03    8.99       4.6  T
   7    -50.6495666 -0.288307E-07  0.885E-04    8.99      22.2  T
speedup  1.06
cpu  time for SCC    0.01 s
wall time for SCC    0.01 s
speedup  1.01
cpu  time for grad    0.01 s
wall time for grad    0.01 s
 E :    -50.41344387  G :  0.038363    pred/act E change: -0.244D-02 -0.327D-02
Maxdispl :   0.2462   ||displ|| :   0.6278   Lambda : -0.740D-02
Largest |displ|/coords:  0.2462 (  24)  0.1807 (   1)  0.1764 (  23)
................................................................................
.............................. CYCLE   15 ......................................
................................................................................
   1    -50.6762440 -0.506762E+02  0.504E-01    9.01       0.0  T
   2    -50.6769658 -0.721854E-03  0.365E-01    8.99       1.0  T
   3    -50.6773040 -0.338180E-03  0.135E-01    8.97       1.0  T
   4    -50.6773580 -0.540281E-04  0.298E-02    8.97       1.0  T
   5    -50.6773595 -0.149585E-05  0.128E-02    8.97       1.5  T
   6    -50.6773597 -0.162348E-06  0.659E-03    8.97       3.0  T
   7    -50.6773597 -0.523218E-07  0.162E-03    8.97      12.1  T
   8    -50.6773597 -0.478750E-08  0.507E-04    8.97      38.7  T
speedup  0.97
cpu  time for SCC    0.01 s
wall time for SCC    0.01 s
speedup  0.97
cpu  time for grad    0.01 s
wall time for grad    0.02 s
 E :    -50.41535791  G :  0.062209    pred/act E change: -0.295D-02 -0.191D-02
Maxdispl :   0.1974   ||displ|| :   0.4361   Lambda : -0.144D-01
Largest |displ|/coords:  0.1974 (   1)  0.1122 (  18)  0.1069 (   3)
................................................................................
.............................. CYCLE   16 ......................................
................................................................................
   1    -50.6470490 -0.506470E+02  0.376E-01    8.80       0.0  T
   2    -50.6476113 -0.562316E-03  0.260E-01    8.81       1.0  T
   3    -50.6478340 -0.222669E-03  0.112E-01    8.83       1.0  T
   4    -50.6478628 -0.287689E-04  0.264E-02    8.83       1.0  T
   5    -50.6478638 -0.105801E-05  0.954E-03    8.83       2.1  T
   6    -50.6478641 -0.297002E-06  0.415E-03    8.82       4.7  T
   7    -50.6478642 -0.436047E-07  0.150E-03    8.82      13.1  T
speedup  1.06
cpu  time for SCC    0.01 s
wall time for SCC    0.01 s
speedup  1.02
cpu  time for grad    0.01 s
wall time for grad    0.01 s
 E :    -50.41562671  G :  0.050500    pred/act E change: -0.516D-02 -0.269D-03
Maxdispl :   0.1213   ||displ|| :   0.3905   Lambda : -0.102D-01
Largest |displ|/coords:  0.1213 (  20)  0.1013 (  24)  0.1003 (  46)
................................................................................
.............................. CYCLE   17 ......................................
................................................................................
   1    -50.6724968 -0.506725E+02  0.358E-01    8.95       0.0  T
   2    -50.6729927 -0.495813E-03  0.254E-01    8.94       1.0  T
   3    -50.6732226 -0.229903E-03  0.109E-01    8.92       1.0  T
   4    -50.6732520 -0.294135E-04  0.236E-02    8.91       1.0  T
   5    -50.6732530 -0.102465E-05  0.106E-02    8.92       1.9  T
   6    -50.6732531 -0.938868E-07  0.474E-03    8.92       4.1  T
   7    -50.6732531 -0.464110E-07  0.116E-03    8.92      16.8  T
speedup  1.06
cpu  time for SCC    0.01 s
wall time for SCC    0.01 s
speedup  1.01
cpu  time for grad    0.01 s
wall time for grad    0.01 s
 E :    -50.42039717  G :  0.037842    pred/act E change: -0.854D-02 -0.477D-02
Maxdispl :   0.2132   ||displ|| :   0.3959   Lambda : -0.299D-02
Largest |displ|/coords:  0.2132 (   1)  0.1530 (   3)  0.1300 (   5)
................................................................................
.............................. CYCLE   18 ......................................
................................................................................
   1    -50.6727803 -0.506728E+02  0.212E-01    8.90       0.0  T
   2    -50.6728487 -0.684103E-04  0.160E-01    8.89       1.0  T
   3    -50.6728818 -0.330612E-04  0.497E-02    8.89       1.0  T
   4    -50.6728898 -0.799872E-05  0.163E-02    8.89       1.2  T
   5    -50.6728904 -0.612339E-06  0.462E-03    8.89       4.2  T
   6    -50.6728904 -0.290891E-07  0.259E-03    8.89       7.6  T
speedup  1.03
cpu  time for SCC    0.01 s
wall time for SCC    0.01 s
speedup  1.06
cpu  time for grad    0.01 s
wall time for grad    0.01 s
 E :    -50.42273802  G :  0.040064    pred/act E change: -0.587D-02 -0.234D-02
Maxdispl :   0.2362   ||displ|| :   0.4516   Lambda : -0.508D-02
Largest |displ|/coords:  0.2362 (   1)  0.1442 (   5)  0.1328 (   3)
................................................................................
.............................. CYCLE   19 ......................................
................................................................................
   1    -50.6756531 -0.506757E+02  0.247E-01    8.93       0.0  T
   2    -50.6757603 -0.107211E-03  0.184E-01    8.92       1.0  T
   3    -50.6758236 -0.632844E-04  0.573E-02    8.91       1.0  T
   4    -50.6758344 -0.107904E-04  0.217E-02    8.90       1.0  T
   5    -50.6758352 -0.815537E-06  0.636E-03    8.91       3.1  T
   6    -50.6758353 -0.669797E-07  0.348E-03    8.91       5.6  T
   7    -50.6758353 -0.181512E-07  0.976E-04    8.91      20.1  T
speedup  1.03
cpu  time for SCC    0.01 s
wall time for SCC    0.01 s
speedup  1.01
cpu  time for grad    0.01 s
wall time for grad    0.01 s
 E :    -50.42593788  G :  0.040250    pred/act E change: -0.173D-02 -0.320D-02
Maxdispl :   0.1915   ||displ|| :   0.5935   Lambda : -0.576D-02
Largest |displ|/coords:  0.1915 (   1)  0.1657 (   5)  0.1610 (   3)
................................................................................
.............................. CYCLE   20 ......................................
................................................................................
   1    -50.6830261 -0.506830E+02  0.383E-01    8.84       0.0  T
   2    -50.6832737 -0.247581E-03  0.293E-01    8.83       1.0  T
   3    -50.6834134 -0.139773E-03  0.963E-02    8.80       1.0  T
   4    -50.6834413 -0.278404E-04  0.362E-02    8.81       1.0  T
   5    -50.6834437 -0.242085E-05  0.103E-02    8.81       1.9  T
   6    -50.6834438 -0.149285E-06  0.554E-03    8.81       3.5  T
   7    -50.6834439 -0.556371E-07  0.135E-03    8.81      14.5  T
speedup  1.09
cpu  time for SCC    0.01 s
wall time for SCC    0.01 s
speedup  1.03
cpu  time for grad    0.01 s
wall time for grad    0.01 s
 E :    -50.42976172  G :  0.048543    pred/act E change: -0.306D-02 -0.382D-02
Maxdispl :   0.1558   ||displ|| :   0.4504   Lambda : -0.693D-02
Largest |displ|/coords:  0.1558 (   4)  0.1286 (  25)  0.1185 (  28)
................................................................................
.............................. CYCLE   21 ......................................
................................................................................
   1    -50.7034078 -0.507034E+02  0.255E-01    8.83       0.0  T
   2    -50.7034923 -0.844457E-04  0.191E-01    8.84       1.0  T
   3    -50.7035532 -0.609121E-04  0.560E-02    8.86       1.0  T
   4    -50.7035628 -0.959122E-05  0.202E-02    8.86       1.0  T
   5    -50.7035634 -0.615910E-06  0.685E-03    8.86       2.9  T
   6    -50.7035634 -0.632265E-07  0.333E-03    8.86       5.9  T
   7    -50.7035635 -0.148642E-07  0.933E-04    8.86      21.0  T
speedup  0.88
cpu  time for SCC    0.01 s
wall time for SCC    0.01 s
speedup  0.93
cpu  time for grad    0.01 s
wall time for grad    0.01 s
 E :    -50.43314372  G :  0.051200    pred/act E change: -0.389D-02 -0.338D-02
Maxdispl :   0.1255   ||displ|| :   0.2845   Lambda : -0.521D-02
Largest |displ|/coords:  0.1255 (   9)  0.1005 (   3)  0.0858 (  11)
................................................................................
.............................. CYCLE   22 ......................................
................................................................................
   1    -50.7014113 -0.507014E+02  0.232E-01    8.77       0.0  T
   2    -50.7014945 -0.832290E-04  0.168E-01    8.76       1.0  T
   3    -50.7015391 -0.445553E-04  0.535E-02    8.74       1.0  T
   4    -50.7015450 -0.597938E-05  0.130E-02    8.75       1.5  T
   5    -50.7015456 -0.504515E-06  0.490E-03    8.75       4.0  T
   6    -50.7015456 -0.219359E-07  0.242E-03    8.75       8.1  T
speedup  0.89
cpu  time for SCC    0.00 s
wall time for SCC    0.01 s
speedup  0.95
cpu  time for grad    0.01 s
wall time for grad    0.01 s
 E :    -50.43439437  G :  0.048228    pred/act E change: -0.417D-02 -0.125D-02
Maxdispl :   0.1347   ||displ|| :   0.2997   Lambda : -0.454D-02
Largest |displ|/coords:  0.1347 (  10)  0.1065 (  11)  0.0788 (   3)
................................................................................
.............................. CYCLE   23 ......................................
................................................................................
   1    -50.7076679 -0.507077E+02  0.196E-01    8.95       0.0  T
   2    -50.7077140 -0.461371E-04  0.142E-01    8.96       1.0  T
   3    -50.7077433 -0.292652E-04  0.399E-02    8.99       1.0  T
   4    -50.7077477 -0.444484E-05  0.116E-02    8.99       1.7  T
   5    -50.7077479 -0.251997E-06  0.435E-03    8.99       4.5  T
   6    -50.7077480 -0.233551E-07  0.226E-03    8.99       8.7  T
speedup  1.05
cpu  time for SCC    0.01 s
wall time for SCC    0.01 s
speedup  1.01
cpu  time for grad    0.01 s
wall time for grad    0.01 s
 E :    -50.43661660  G :  0.034450    pred/act E change: -0.281D-02 -0.222D-02
Maxdispl :   0.1441   ||displ|| :   0.3979   Lambda : -0.547D-02
Largest |displ|/coords:  0.1441 (  25)  0.1347 (   8)  0.1115 (  26)
................................................................................
.............................. CYCLE   24 ......................................
................................................................................
   1    -50.7098836 -0.507099E+02  0.312E-01    8.77       0.0  T
   2    -50.7100541 -0.170518E-03  0.227E-01    8.78       1.0  T
   3    -50.7101457 -0.916455E-04  0.832E-02    8.80       1.0  T
   4    -50.7101581 -0.124218E-04  0.260E-02    8.81       1.0  T
   5    -50.7101598 -0.164020E-05  0.818E-03    8.80       2.4  T
   6    -50.7101599 -0.982422E-07  0.434E-03    8.80       4.5  T
   7    -50.7101599 -0.388291E-07  0.125E-03    8.80      15.7  T
speedup  1.04
cpu  time for SCC    0.01 s
wall time for SCC    0.01 s
speedup  1.01
cpu  time for grad    0.01 s
wall time for grad    0.01 s
 E :    -50.43743997  G :  0.047259    pred/act E change: -0.248D-02 -0.823D-03
Maxdispl :   0.1083   ||displ|| :   0.2617   Lambda : -0.469D-02
Largest |displ|/coords:  0.1083 (   3)  0.0943 (  14)  0.0630 (   7)
................................................................................
.............................. CYCLE   25 ......................................
................................................................................
   1    -50.7288973 -0.507289E+02  0.186E-01    9.11       0.0  T
   2    -50.7289426 -0.452913E-04  0.141E-01    9.10       1.0  T
   3    -50.7289868 -0.442618E-04  0.418E-02    9.10       1.0  T
   4    -50.7289918 -0.493243E-05  0.162E-02    9.10       1.2  T
   5    -50.7289921 -0.359968E-06  0.415E-03    9.10       4.7  T
   6    -50.7289921 -0.285723E-07  0.232E-03    9.10       8.5  T
speedup  1.03
cpu  time for SCC    0.01 s
wall time for SCC    0.01 s
speedup  1.01
cpu  time for grad    0.01 s
wall time for grad    0.01 s
 E :    -50.43952252  G :  0.035952    pred/act E change: -0.317D-02 -0.208D-02
Maxdispl :   0.1387   ||displ|| :   0.3264   Lambda : -0.364D-02
Largest |displ|/coords:  0.1387 (   3)  0.1351 (  14)  0.1166 (   2)

generating ANC from model Hessian ...
 Shifting diagonal of input Hessian by   4.888042876677321E-003
 Lowest  eigenvalues of input Hessian
   -0.000000   -0.000000   -0.000000   -0.000000    0.000000    0.000000
    0.005000    0.005027    0.005227    0.005496    0.005652    0.006203
    0.006562    0.007030    0.007574    0.008739    0.009430    0.011500
 Highest eigenvalues
    1.394194    1.399152    1.451394    2.609604    3.263254    3.746371
 
cpu  time for ANC gen    0.02 s
wall time for ANC gen    0.02 s
................................................................................
.............................. CYCLE   26 ......................................
................................................................................
   1    -50.7177418 -0.507177E+02  0.252E-01    9.02       0.0  T
   2    -50.7178503 -0.108545E-03  0.183E-01    9.01       1.0  T
   3    -50.7178953 -0.449558E-04  0.629E-02    9.00       1.0  T
   4    -50.7179028 -0.748851E-05  0.173E-02    9.01       1.1  T
   5    -50.7179038 -0.990572E-06  0.543E-03    9.01       3.6  T
   6    -50.7179038 -0.325191E-07  0.314E-03    9.01       6.2  T
   7    -50.7179038 -0.136235E-07  0.927E-04    9.01      21.2  T
   8    -50.7179038 -0.193653E-08  0.255E-04    9.01      77.0  T
speedup  0.96
cpu  time for SCC    0.01 s
wall time for SCC    0.01 s
speedup  0.99
cpu  time for grad    0.02 s
wall time for grad    0.02 s
 E :    -50.44092504  G :  0.036326    pred/act E change:  0.000D+00 -0.140D-02
Maxdispl :   0.0944   ||displ|| :   0.3226   Lambda : -0.339D-02
Largest |displ|/coords:  0.0944 (   2)  0.0902 (  18)  0.0880 (  25)
................................................................................
.............................. CYCLE   27 ......................................
................................................................................
   1    -50.7210418 -0.507210E+02  0.177E-01    9.00       0.0  T
   2    -50.7210657 -0.239646E-04  0.132E-01    9.00       1.0  T
   3    -50.7210787 -0.130069E-04  0.255E-02    9.00       1.0  T
   4    -50.7210820 -0.327535E-05  0.784E-03    9.00       2.5  T
   5    -50.7210821 -0.126857E-06  0.286E-03    9.00       6.9  T
   6    -50.7210821 -0.849133E-08  0.160E-03    9.00      12.3  T
speedup  1.03
cpu  time for SCC    0.01 s
wall time for SCC    0.01 s
speedup  1.01
cpu  time for grad    0.01 s
wall time for grad    0.01 s
 E :    -50.44328718  G :  0.023766    pred/act E change:  0.000D+00 -0.236D-02
Maxdispl :   0.1525   ||displ|| :   0.3670   Lambda : -0.209D-02
Largest |displ|/coords:  0.1525 (   3)  0.1393 (   6)  0.1154 (   2)
................................................................................
.............................. CYCLE   28 ......................................
................................................................................
   1    -50.7230357 -0.507230E+02  0.201E-01    9.00       0.0  T
   2    -50.7230682 -0.324546E-04  0.150E-01    9.00       1.0  T
   3    -50.7230844 -0.162550E-04  0.295E-02    9.01       1.0  T
   4    -50.7230888 -0.441218E-05  0.101E-02    9.01       1.9  T
   5    -50.7230890 -0.206937E-06  0.321E-03    9.01       6.1  T
   6    -50.7230891 -0.117410E-07  0.184E-03    9.01      10.6  T
speedup  0.85
cpu  time for SCC    0.00 s
wall time for SCC    0.01 s
speedup  0.99
cpu  time for grad    0.01 s
wall time for grad    0.01 s
 E :    -50.44475612  G :  0.023166    pred/act E change: -0.187D-02 -0.147D-02
Maxdispl :   0.2226   ||displ|| :   0.4358   Lambda : -0.172D-02
Largest |displ|/coords:  0.2226 (   3)  0.2069 (   6)  0.1382 (   4)
................................................................................
.............................. CYCLE   29 ......................................
................................................................................
   1    -50.7240935 -0.507241E+02  0.212E-01    8.98       0.0  T
   2    -50.7241378 -0.443414E-04  0.159E-01    8.97       1.0  T
   3    -50.7241586 -0.207920E-04  0.359E-02    8.95       1.0  T
   4    -50.7241648 -0.622048E-05  0.123E-02    8.95       1.6  T
   5    -50.7241652 -0.325541E-06  0.424E-03    8.95       4.6  T
   6    -50.7241652 -0.237052E-07  0.236E-03    8.95       8.3  T
speedup  0.86
cpu  time for SCC    0.00 s
wall time for SCC    0.01 s
speedup  1.00
cpu  time for grad    0.01 s
wall time for grad    0.01 s
 E :    -50.44611508  G :  0.025918    pred/act E change: -0.119D-02 -0.136D-02
Maxdispl :   0.2769   ||displ|| :   0.4947   Lambda : -0.227D-02
Largest |displ|/coords:  0.2769 (   3)  0.1800 (   6)  0.1580 (  13)
................................................................................
.............................. CYCLE   30 ......................................
................................................................................
   1    -50.7291583 -0.507292E+02  0.251E-01    8.94       0.0  T
   2    -50.7292534 -0.950972E-04  0.188E-01    8.92       1.0  T
   3    -50.7293042 -0.507852E-04  0.557E-02    8.87       1.0  T
   4    -50.7293153 -0.111571E-04  0.180E-02    8.87       1.1  T
   5    -50.7293160 -0.689178E-06  0.671E-03    8.88       2.9  T
   6    -50.7293161 -0.547704E-07  0.350E-03    8.88       5.6  T
   7    -50.7293161 -0.224582E-07  0.772E-04    8.88      25.4  T
speedup  0.92
cpu  time for SCC    0.01 s
wall time for SCC    0.01 s
speedup  0.88
cpu  time for grad    0.01 s
wall time for grad    0.01 s
 E :    -50.44782300  G :  0.022065    pred/act E change: -0.102D-02 -0.171D-02
Maxdispl :   0.2114   ||displ|| :   0.3848   Lambda : -0.166D-02
Largest |displ|/coords:  0.2114 (   3)  0.1653 (   6)  0.1019 (  13)
................................................................................
.............................. CYCLE   31 ......................................
................................................................................
   1    -50.7348970 -0.507349E+02  0.194E-01    8.83       0.0  T
   2    -50.7349571 -0.601873E-04  0.145E-01    8.81       1.0  T
   3    -50.7349956 -0.384675E-04  0.469E-02    8.77       1.0  T
   4    -50.7350021 -0.646403E-05  0.141E-02    8.76       1.4  T
   5    -50.7350025 -0.439192E-06  0.608E-03    8.76       3.2  T
   6    -50.7350026 -0.476053E-07  0.297E-03    8.77       6.6  T
   7    -50.7350026 -0.144332E-07  0.706E-04    8.77      27.8  T
speedup  1.09
cpu  time for SCC    0.01 s
wall time for SCC    0.01 s
speedup  1.04
cpu  time for grad    0.01 s
wall time for grad    0.01 s
 E :    -50.44882135  G :  0.016374    pred/act E change: -0.142D-02 -0.998D-03
Maxdispl :   0.0733   ||displ|| :   0.1856   Lambda : -0.771D-03
Largest |displ|/coords:  0.0733 (   1)  0.0598 (   5)  0.0590 (   4)
................................................................................
.............................. CYCLE   32 ......................................
................................................................................
   1    -50.7399263 -0.507399E+02  0.905E-02    8.77       0.0  T
   2    -50.7399355 -0.917249E-05  0.663E-02    8.76       1.0  T
   3    -50.7399403 -0.474849E-05  0.178E-02    8.73       1.1  T
   4    -50.7399413 -0.101906E-05  0.457E-03    8.74       4.3  T
   5    -50.7399413 -0.531571E-07  0.199E-03    8.74       9.8  T
   6    -50.7399413 -0.555355E-08  0.108E-03    8.74      18.1  T
speedup  1.02
cpu  time for SCC    0.01 s
wall time for SCC    0.01 s
speedup  0.99
cpu  time for grad    0.01 s
wall time for grad    0.01 s
 E :    -50.44917324  G :  0.014238    pred/act E change: -0.953D-03 -0.352D-03
Maxdispl :   0.2202   ||displ|| :   0.3623   Lambda : -0.120D-02
Largest |displ|/coords:  0.2202 (   6)  0.1401 (   1)  0.0931 (   4)
................................................................................
.............................. CYCLE   33 ......................................
................................................................................
   1    -50.7315434 -0.507315E+02  0.187E-01    8.57       0.0  T
   2    -50.7315606 -0.172165E-04  0.138E-01    8.58       1.0  T
   3    -50.7315688 -0.816848E-05  0.231E-02    8.58       1.0  T
   4    -50.7315710 -0.220875E-05  0.647E-03    8.57       3.0  T
   5    -50.7315711 -0.111872E-06  0.252E-03    8.57       7.8  T
   6    -50.7315711 -0.709875E-08  0.145E-03    8.57      13.6  T
speedup  1.03
cpu  time for SCC    0.01 s
wall time for SCC    0.01 s
speedup  0.99
cpu  time for grad    0.01 s
wall time for grad    0.01 s
 E :    -50.44926870  G :  0.019932    pred/act E change: -0.399D-03 -0.955D-04
Maxdispl :   0.1088   ||displ|| :   0.1642   Lambda : -0.801D-03
Largest |displ|/coords:  0.1088 (   6)  0.0694 (   8)  0.0454 (  11)
................................................................................
.............................. CYCLE   34 ......................................
................................................................................
   1    -50.7380805 -0.507381E+02  0.104E-01    8.66       0.0  T
   2    -50.7380880 -0.743395E-05  0.771E-02    8.65       1.0  T
   3    -50.7380913 -0.336309E-05  0.154E-02    8.64       1.3  T
   4    -50.7380923 -0.102312E-05  0.350E-03    8.65       5.6  T
   5    -50.7380924 -0.328308E-07  0.152E-03    8.65      12.9  T
   6    -50.7380924 -0.235648E-08  0.830E-04    8.65      23.6  T
speedup  1.02
cpu  time for SCC    0.01 s
wall time for SCC    0.01 s
speedup  0.99
cpu  time for grad    0.01 s
wall time for grad    0.01 s
 E :    -50.44964194  G :  0.006965    pred/act E change: -0.680D-03 -0.373D-03
Maxdispl :   0.0598   ||displ|| :   0.1161   Lambda : -0.157D-03
Largest |displ|/coords:  0.0598 (   2)  0.0517 (   3)  0.0495 (   8)
................................................................................
.............................. CYCLE   35 ......................................
................................................................................
   1    -50.7378104 -0.507378E+02  0.600E-02    8.64       0.0  T
   2    -50.7378124 -0.193315E-05  0.452E-02    8.64       1.0  T
   3    -50.7378138 -0.147020E-05  0.796E-03    8.63       2.5  T
   4    -50.7378141 -0.281908E-06  0.250E-03    8.63       7.9  T
   5    -50.7378141 -0.967419E-08  0.101E-03    8.63      19.5  T
speedup  1.00
cpu  time for SCC    0.00 s
wall time for SCC    0.01 s
speedup  0.99
cpu  time for grad    0.01 s
wall time for grad    0.01 s
 E :    -50.44970007  G :  0.004643    pred/act E change: -0.411D-03 -0.581D-04
Maxdispl :   0.0650   ||displ|| :   0.0980   Lambda : -0.966D-04
Largest |displ|/coords:  0.0650 (   1)  0.0301 (   2)  0.0287 (   6)
................................................................................
.............................. CYCLE   36 ......................................
................................................................................
   1    -50.7385233 -0.507385E+02  0.514E-02    8.61       0.0  T
   2    -50.7385240 -0.682520E-06  0.384E-02    8.61       1.0  T
   3    -50.7385247 -0.717828E-06  0.487E-03    8.60       4.0  T
   4    -50.7385248 -0.584262E-07  0.184E-03    8.60      10.7  T
   5    -50.7385248 -0.452095E-08  0.647E-04    8.60      30.3  T
speedup  1.00
cpu  time for SCC    0.00 s
wall time for SCC    0.01 s
speedup  0.99
cpu  time for grad    0.01 s
wall time for grad    0.01 s
 E :    -50.44976866  G :  0.003641    pred/act E change: -0.797D-04 -0.686D-04
Maxdispl :   0.1005   ||displ|| :   0.1379   Lambda : -0.784D-04
Largest |displ|/coords:  0.1005 (   1)  0.0397 (   2)  0.0352 (   6)
................................................................................
.............................. CYCLE   37 ......................................
................................................................................
   1    -50.7386333 -0.507386E+02  0.691E-02    8.59       0.0  T
   2    -50.7386345 -0.118738E-05  0.516E-02    8.58       1.0  T
   3    -50.7386356 -0.111995E-05  0.664E-03    8.57       3.0  T
   4    -50.7386357 -0.117277E-06  0.275E-03    8.57       7.1  T
   5    -50.7386357 -0.790001E-08  0.757E-04    8.57      25.9  T
   6    -50.7386357 -0.813380E-09  0.443E-04    8.57      44.2  T
speedup  1.05
cpu  time for SCC    0.01 s
wall time for SCC    0.01 s
speedup  0.98
cpu  time for grad    0.01 s
wall time for grad    0.01 s
 E :    -50.44981837  G :  0.003856    pred/act E change: -0.488D-04 -0.497D-04
Maxdispl :   0.0707   ||displ|| :   0.1103   Lambda : -0.466D-04
Largest |displ|/coords:  0.0707 (   1)  0.0443 (   3)  0.0319 (   2)
................................................................................
.............................. CYCLE   38 ......................................
................................................................................
   1    -50.7396631 -0.507397E+02  0.590E-02    8.57       0.0  T
   2    -50.7396639 -0.777348E-06  0.437E-02    8.56       1.0  T
   3    -50.7396646 -0.695323E-06  0.604E-03    8.55       3.2  T
   4    -50.7396647 -0.771687E-07  0.211E-03    8.56       9.3  T
   5    -50.7396647 -0.602540E-08  0.626E-04    8.56      31.3  T
   6    -50.7396647 -0.714344E-09  0.371E-04    8.56      52.9  T
speedup  0.88
cpu  time for SCC    0.01 s
wall time for SCC    0.01 s
speedup  0.97
cpu  time for grad    0.01 s
wall time for grad    0.01 s
 E :    -50.44985140  G :  0.004176    pred/act E change: -0.400D-04 -0.330D-04
Maxdispl :   0.0932   ||displ|| :   0.1391   Lambda : -0.603D-04
Largest |displ|/coords:  0.0932 (   1)  0.0526 (   3)  0.0395 (   6)
................................................................................
.............................. CYCLE   39 ......................................
................................................................................
   1    -50.7402643 -0.507403E+02  0.759E-02    8.56       0.0  T
   2    -50.7402655 -0.120058E-05  0.563E-02    8.55       1.0  T
   3    -50.7402667 -0.115005E-05  0.813E-03    8.54       2.4  T
   4    -50.7402668 -0.114379E-06  0.267E-03    8.54       7.3  T
   5    -50.7402668 -0.985144E-08  0.744E-04    8.54      26.4  T
speedup  1.02
cpu  time for SCC    0.01 s
wall time for SCC    0.00 s
speedup  0.99
cpu  time for grad    0.01 s
wall time for grad    0.01 s
 E :    -50.44989361  G :  0.003491    pred/act E change: -0.236D-04 -0.422D-04
Maxdispl :   0.0633   ||displ|| :   0.1250   Lambda : -0.570D-04
Largest |displ|/coords:  0.0633 (   1)  0.0630 (   3)  0.0304 (   6)
................................................................................
.............................. CYCLE   40 ......................................
................................................................................
   1    -50.7404589 -0.507405E+02  0.731E-02    8.56       0.0  T
   2    -50.7404600 -0.115736E-05  0.544E-02    8.55       1.0  T
   3    -50.7404611 -0.103737E-05  0.699E-03    8.55       2.8  T
   4    -50.7404612 -0.116447E-06  0.233E-03    8.55       8.4  T
   5    -50.7404612 -0.605446E-08  0.703E-04    8.55      27.9  T
   6    -50.7404612 -0.666553E-09  0.382E-04    8.55      51.4  T
speedup  1.02
cpu  time for SCC    0.01 s
wall time for SCC    0.01 s
speedup  1.02
cpu  time for grad    0.01 s
wall time for grad    0.01 s
 E :    -50.44993091  G :  0.003483    pred/act E change: -0.308D-04 -0.373D-04
Maxdispl :   0.0504   ||displ|| :   0.1104   Lambda : -0.448D-04
Largest |displ|/coords:  0.0504 (   6)  0.0495 (   1)  0.0462 (   3)
................................................................................
.............................. CYCLE   41 ......................................
................................................................................
   1    -50.7401779 -0.507402E+02  0.600E-02    8.56       0.0  T
   2    -50.7401786 -0.699463E-06  0.450E-02    8.56       1.0  T
   3    -50.7401793 -0.722057E-06  0.571E-03    8.56       3.4  T
   4    -50.7401793 -0.602401E-07  0.197E-03    8.56       9.9  T
   5    -50.7401793 -0.460874E-08  0.534E-04    8.56      36.7  T
   6    -50.7401793 -0.344187E-09  0.325E-04    8.56      60.4  T
speedup  1.03
cpu  time for SCC    0.01 s
wall time for SCC    0.01 s
speedup  1.03
cpu  time for grad    0.01 s
wall time for grad    0.01 s
 E :    -50.44995542  G :  0.003378    pred/act E change: -0.289D-04 -0.245D-04
Maxdispl :   0.0350   ||displ|| :   0.0748   Lambda : -0.350D-04
Largest |displ|/coords:  0.0350 (   3)  0.0225 (  11)  0.0219 (  13)
................................................................................
.............................. CYCLE   42 ......................................
................................................................................
   1    -50.7396487 -0.507396E+02  0.467E-02    8.57       0.0  T
   2    -50.7396491 -0.406507E-06  0.349E-02    8.57       1.0  T
   3    -50.7396495 -0.454867E-06  0.368E-03    8.58       5.3  T
   4    -50.7396495 -0.218314E-07  0.127E-03    8.58      15.4  T
   5    -50.7396495 -0.202171E-08  0.429E-04    8.58      45.7  T
   6    -50.7396495 -0.255149E-09  0.240E-04    8.58      81.6  T
speedup  1.02
cpu  time for SCC    0.01 s
wall time for SCC    0.01 s
speedup  1.03
cpu  time for grad    0.01 s
wall time for grad    0.01 s
 E :    -50.44997350  G :  0.003049    pred/act E change: -0.227D-04 -0.181D-04
Maxdispl :   0.0125   ||displ|| :   0.0344   Lambda : -0.232D-04
Largest |displ|/coords:  0.0125 (  15)  0.0121 (   6)  0.0115 (  16)
................................................................................
.............................. CYCLE   43 ......................................
................................................................................
   1    -50.7396758 -0.507397E+02  0.248E-02    8.59       0.0  T
   2    -50.7396759 -0.172221E-06  0.184E-02    8.59       1.1  T
   3    -50.7396761 -0.154973E-06  0.317E-03    8.60       6.2  T
   4    -50.7396761 -0.175116E-07  0.746E-04    8.60      26.3  T
   5    -50.7396761 -0.951715E-09  0.300E-04    8.60      65.3  T
speedup  1.00
cpu  time for SCC    0.01 s
wall time for SCC    0.00 s
speedup  1.01
cpu  time for grad    0.01 s
wall time for grad    0.01 s
 E :    -50.44998892  G :  0.002201    pred/act E change: -0.176D-04 -0.154D-04
Maxdispl :   0.0325   ||displ|| :   0.0563   Lambda : -0.197D-04
Largest |displ|/coords:  0.0325 (   6)  0.0198 (   3)  0.0152 (  16)
................................................................................
.............................. CYCLE   44 ......................................
................................................................................
   1    -50.7392944 -0.507393E+02  0.338E-02    8.60       0.0  T
   2    -50.7392946 -0.225485E-06  0.252E-02    8.60       1.0  T
   3    -50.7392948 -0.164875E-06  0.363E-03    8.60       5.4  T
   4    -50.7392948 -0.318582E-07  0.977E-04    8.60      20.1  T
   5    -50.7392948 -0.111032E-08  0.319E-04    8.60      61.4  T
speedup  1.04
cpu  time for SCC    0.00 s
wall time for SCC    0.00 s
speedup  0.96
cpu  time for grad    0.01 s
wall time for grad    0.01 s
 E :    -50.45000005  G :  0.001984    pred/act E change: -0.116D-04 -0.111D-04
Maxdispl :   0.0183   ||displ|| :   0.0350   Lambda : -0.901D-05
Largest |displ|/coords:  0.0183 (   1)  0.0118 (   2)  0.0117 (   4)
................................................................................
.............................. CYCLE   45 ......................................
................................................................................
   1    -50.7396867 -0.507397E+02  0.201E-02    8.61       0.0  T
   2    -50.7396868 -0.939768E-07  0.150E-02    8.61       1.3  T
   3    -50.7396869 -0.776557E-07  0.230E-03    8.61       8.5  T
   4    -50.7396869 -0.114533E-07  0.696E-04    8.61      28.2  T
   5    -50.7396869 -0.661132E-09  0.192E-04    8.61     102.2  T
speedup  1.00
cpu  time for SCC    0.00 s
wall time for SCC    0.01 s
speedup  1.01
cpu  time for grad    0.01 s
wall time for grad    0.01 s
 E :    -50.45000572  G :  0.001414    pred/act E change: -0.989D-05 -0.567D-05
Maxdispl :   0.0274   ||displ|| :   0.0492   Lambda : -0.889D-05
Largest |displ|/coords:  0.0274 (   3)  0.0213 (   6)  0.0119 (  11)
................................................................................
.............................. CYCLE   46 ......................................
................................................................................
   1    -50.7396386 -0.507396E+02  0.267E-02    8.60       0.0  T
   2    -50.7396387 -0.128733E-06  0.200E-02    8.60       1.0  T
   3    -50.7396388 -0.112748E-06  0.223E-03    8.60       8.8  T
   4    -50.7396388 -0.150469E-07  0.802E-04    8.60      24.5  T
   5    -50.7396388 -0.599016E-09  0.237E-04    8.60      82.9  T
speedup  1.02
cpu  time for SCC    0.00 s
wall time for SCC    0.00 s
speedup  0.95
cpu  time for grad    0.01 s
wall time for grad    0.01 s
 E :    -50.45001169  G :  0.001276    pred/act E change: -0.451D-05 -0.598D-05
Maxdispl :   0.0237   ||displ|| :   0.0484   Lambda : -0.763D-05
Largest |displ|/coords:  0.0237 (   3)  0.0215 (   1)  0.0177 (   6)
................................................................................
.............................. CYCLE   47 ......................................
................................................................................
   1    -50.7397374 -0.507397E+02  0.214E-02    8.59       0.0  T
   2    -50.7397375 -0.132249E-06  0.161E-02    8.59       1.2  T
   3    -50.7397376 -0.102300E-06  0.211E-03    8.59       9.3  T
   4    -50.7397377 -0.193470E-07  0.663E-04    8.59      29.6  T
   5    -50.7397377 -0.633200E-09  0.257E-04    8.59      76.3  T
speedup  1.00
cpu  time for SCC    0.00 s
wall time for SCC    0.01 s
speedup  0.94
cpu  time for grad    0.01 s
wall time for grad    0.01 s
 E :    -50.45001598  G :  0.001042    pred/act E change: -0.445D-05 -0.429D-05
Maxdispl :   0.0136   ||displ|| :   0.0274   Lambda : -0.356D-05
Largest |displ|/coords:  0.0136 (   1)  0.0112 (   3)  0.0107 (   6)
................................................................................
.............................. CYCLE   48 ......................................
................................................................................
   1    -50.7396777 -0.507397E+02  0.137E-02    8.59       0.0  T
   2    -50.7396777 -0.293788E-07  0.103E-02    8.59       1.9  T
   3    -50.7396778 -0.283735E-07  0.904E-04    8.58      21.7  T
   4    -50.7396778 -0.288325E-08  0.413E-04    8.58      47.5  T
speedup  1.00
cpu  time for SCC    0.00 s
wall time for SCC    0.00 s
speedup  1.01
cpu  time for grad    0.01 s
wall time for grad    0.01 s
 E :    -50.45001835  G :  0.000972    pred/act E change: -0.382D-05 -0.237D-05
Maxdispl :   0.0209   ||displ|| :   0.0298   Lambda : -0.351D-05
Largest |displ|/coords:  0.0209 (   1)  0.0088 (  19)  0.0074 (   4)
................................................................................
.............................. CYCLE   49 ......................................
................................................................................
   1    -50.7396770 -0.507397E+02  0.161E-02    8.58       0.0  T
   2    -50.7396770 -0.524731E-07  0.121E-02    8.58       1.6  T
   3    -50.7396771 -0.506477E-07  0.149E-03    8.58      13.1  T
   4    -50.7396771 -0.561358E-08  0.628E-04    8.58      31.2  T
   5    -50.7396771 -0.394373E-09  0.147E-04    8.58     133.0  T
speedup  0.83
cpu  time for SCC    0.00 s
wall time for SCC    0.00 s
speedup  0.97
cpu  time for grad    0.01 s
wall time for grad    0.01 s
 E :    -50.45002075  G :  0.000851    pred/act E change: -0.178D-05 -0.240D-05
Maxdispl :   0.0178   ||displ|| :   0.0284   Lambda : -0.291D-05
Largest |displ|/coords:  0.0178 (   1)  0.0094 (   4)  0.0079 (   6)
................................................................................
.............................. CYCLE   50 ......................................
................................................................................
   1    -50.7396550 -0.507397E+02  0.155E-02    8.58       0.0  T
   2    -50.7396550 -0.463965E-07  0.116E-02    8.58       1.7  T
   3    -50.7396551 -0.502635E-07  0.151E-03    8.57      13.0  T
   4    -50.7396551 -0.361193E-08  0.457E-04    8.58      42.9  T
   5    -50.7396551 -0.455366E-09  0.151E-04    8.58     130.0  T
speedup  1.00
cpu  time for SCC    0.00 s
wall time for SCC    0.01 s
speedup  1.01
cpu  time for grad    0.01 s
wall time for grad    0.01 s
 E :    -50.45002259  G :  0.000670    pred/act E change: -0.176D-05 -0.183D-05
Maxdispl :   0.0093   ||displ|| :   0.0192   Lambda : -0.167D-05
Largest |displ|/coords:  0.0093 (   1)  0.0071 (   4)  0.0060 (  19)
................................................................................
.............................. CYCLE   51 ......................................
................................................................................
   1    -50.7396941 -0.507397E+02  0.119E-02    8.57       0.0  T
   2    -50.7396942 -0.264673E-07  0.893E-03    8.57       2.2  T
   3    -50.7396942 -0.326099E-07  0.108E-03    8.57      18.2  T
   4    -50.7396942 -0.158724E-08  0.228E-04    8.57      86.1  T
   5    -50.7396942 -0.140716E-09  0.929E-05    8.57     211.0  T
speedup  1.04
cpu  time for SCC    0.00 s
wall time for SCC    0.00 s
speedup  1.04
cpu  time for grad    0.01 s
wall time for grad    0.01 s
 E :    -50.45002380  G :  0.000624    pred/act E change: -0.146D-05 -0.122D-05
Maxdispl :   0.0081   ||displ|| :   0.0187   Lambda : -0.161D-05
Largest |displ|/coords:  0.0081 (   4)  0.0059 (   6)  0.0057 (   9)
................................................................................
.............................. CYCLE   52 ......................................
................................................................................
   1    -50.7397289 -0.507397E+02  0.112E-02    8.57       0.0  T
   2    -50.7397289 -0.225616E-07  0.843E-03    8.57       2.3  T
   3    -50.7397289 -0.270814E-07  0.879E-04    8.57      22.3  T
   4    -50.7397289 -0.147508E-08  0.313E-04    8.57      62.6  T
speedup  1.00
cpu  time for SCC    0.00 s
wall time for SCC    0.00 s
speedup  1.02
cpu  time for grad    0.01 s
wall time for grad    0.01 s
 E :    -50.45002488  G :  0.000570    pred/act E change: -0.835D-06 -0.108D-05
Maxdispl :   0.0043   ||displ|| :   0.0105   Lambda : -0.717D-06
Largest |displ|/coords:  0.0043 (   5)  0.0043 (   6)  0.0040 (   4)

generating ANC from model Hessian ...
 Shifting diagonal of input Hessian by   4.749138555650113E-003
 Lowest  eigenvalues of input Hessian
   -0.000000   -0.000000   -0.000000    0.000000    0.000000    0.000000
    0.005000    0.005284    0.005605    0.005867    0.006295    0.006974
    0.007076    0.007877    0.007937    0.008980    0.009698    0.010367
 Highest eigenvalues
    1.392641    1.393400    1.412835    2.574239    3.252710    3.862390
 
cpu  time for ANC gen    0.03 s
wall time for ANC gen    0.03 s
................................................................................
.............................. CYCLE   53 ......................................
................................................................................
   1    -50.7397215 -0.507397E+02  0.640E-03    8.57       0.0  T
   2    -50.7397215 -0.528023E-08  0.481E-03    8.57       4.1  T
   3    -50.7397215 -0.625517E-08  0.367E-04    8.57      53.5  T
   4    -50.7397215 -0.304020E-09  0.179E-04    8.57     109.6  T
speedup  1.00
cpu  time for SCC    0.00 s
wall time for SCC    0.00 s
speedup  0.94
cpu  time for grad    0.01 s
wall time for grad    0.01 s
 E :    -50.45002540  G :  0.000448    pred/act E change:  0.000D+00 -0.522D-06
Maxdispl :   0.0028   ||displ|| :   0.0053   Lambda : -0.463D-06
Largest |displ|/coords:  0.0028 (   5)  0.0025 (   7)  0.0025 (   6)
................................................................................
.............................. CYCLE   54 ......................................
................................................................................
   1    -50.7397056 -0.507397E+02  0.353E-03    8.57       0.0  T
   2    -50.7397056 -0.283152E-08  0.264E-03    8.57       7.4  T
   3    -50.7397056 -0.200095E-08  0.314E-04    8.57      62.4  T
   4    -50.7397056 -0.395687E-09  0.119E-04    8.57     164.6  T
speedup  0.77
cpu  time for SCC    0.00 s
wall time for SCC    0.00 s
speedup  0.95
cpu  time for grad    0.01 s
wall time for grad    0.01 s
 E :    -50.45002575  G :  0.000278    pred/act E change:  0.000D+00 -0.344D-06
Maxdispl :   0.0070   ||displ|| :   0.0106   Lambda : -0.587D-06
Largest |displ|/coords:  0.0070 (   5)  0.0040 (   6)  0.0036 (   7)
................................................................................
.............................. CYCLE   55 ......................................
................................................................................
   1    -50.7396691 -0.507397E+02  0.717E-03    8.57       0.0  T
   2    -50.7396691 -0.115791E-07  0.536E-03    8.57       3.7  T
   3    -50.7396691 -0.836778E-08  0.671E-04    8.57      29.2  T
   4    -50.7396691 -0.164295E-08  0.249E-04    8.57      78.9  T
speedup  0.95
cpu  time for SCC    0.00 s
wall time for SCC    0.00 s
speedup  0.92
cpu  time for grad    0.01 s
wall time for grad    0.01 s
 E :    -50.45002608  G :  0.000241    pred/act E change: -0.231D-06 -0.330D-06
Maxdispl :   0.0024   ||displ|| :   0.0055   Lambda : -0.218D-06
Largest |displ|/coords:  0.0024 (   5)  0.0024 (   6)  0.0018 (   2)
................................................................................
.............................. CYCLE   56 ......................................
................................................................................
   1    -50.7396485 -0.507396E+02  0.390E-03    8.57       0.0  T
   2    -50.7396485 -0.251791E-08  0.291E-03    8.57       6.7  T
   3    -50.7396485 -0.175108E-08  0.321E-04    8.57      61.1  T
   4    -50.7396485 -0.369596E-09  0.111E-04    8.57     175.9  T
speedup  0.77
cpu  time for SCC    0.00 s
wall time for SCC    0.00 s
speedup  0.95
cpu  time for grad    0.01 s
wall time for grad    0.01 s
 E :    -50.45002622  G :  0.000203    pred/act E change: -0.293D-06 -0.141D-06
Maxdispl :   0.0030   ||displ|| :   0.0061   Lambda : -0.205D-06
Largest |displ|/coords:  0.0030 (   5)  0.0023 (   1)  0.0019 (  18)
................................................................................
.............................. CYCLE   57 ......................................
................................................................................
   1    -50.7396352 -0.507396E+02  0.453E-03    8.57       0.0  T
   2    -50.7396352 -0.359415E-08  0.340E-03    8.57       5.8  T
   3    -50.7396352 -0.383544E-08  0.352E-04    8.57      55.7  T
   4    -50.7396352 -0.265970E-09  0.139E-04    8.57     141.0  T
speedup  1.03
cpu  time for SCC    0.00 s
wall time for SCC    0.00 s
speedup  1.02
cpu  time for grad    0.01 s
wall time for grad    0.01 s
 E :    -50.45002635  G :  0.000140    pred/act E change: -0.109D-06 -0.137D-06
Maxdispl :   0.0017   ||displ|| :   0.0040   Lambda : -0.107D-06
Largest |displ|/coords:  0.0017 (  15)  0.0013 (   1)  0.0012 (   9)
................................................................................
.............................. CYCLE   58 ......................................
................................................................................
   1    -50.7396345 -0.507396E+02  0.309E-03    8.57       0.0  T
   2    -50.7396345 -0.182836E-08  0.233E-03    8.57       8.4  T
   3    -50.7396345 -0.204061E-08  0.245E-04    8.57      80.0  T
   4    -50.7396345 -0.141625E-09  0.836E-05    8.57     234.6  T
speedup  0.98
cpu  time for SCC    0.00 s
wall time for SCC    0.00 s
speedup  1.01
cpu  time for grad    0.01 s
wall time for grad    0.01 s
 E :    -50.45002643  G :  0.000128    pred/act E change: -0.103D-06 -0.760D-07
Maxdispl :   0.0014   ||displ|| :   0.0036   Lambda : -0.777D-07
Largest |displ|/coords:  0.0014 (  15)  0.0013 (   6)  0.0011 (   1)

   *** GEOMETRY OPTIMIZATION CONVERGED AFTER 58 ITERATIONS ***

------------------------------------------------------------------------
 total energy gain (kcal):     -0.0006
------------------------------------------------------------------------
================
 final structure:
================
$coord
       -4.10404171018419       -2.35011891660994        1.11147461912325      S 
       -2.42948144515781       -0.62190532289911        2.79874804379724      O 
       -6.52866069570158       -2.69516358318062        2.18769794766237      O 
       -4.00496562955506       -1.39143268328255       -1.44180871626285      O 
       -2.61585958802033       -4.86714742487335        1.21514117616185      O 
       -0.98669358300655       -4.49012979832424        0.35709400756151      H 
       -3.16379090242478        0.99680284480328       -3.14022048472969      H 
        1.75075313293836       -3.65895546988644       -0.67878802033334      O 
        2.81849116664707       -5.10522668303888       -0.90729101290781      H 
       -2.52148915000587        2.55862825452281       -3.93097615612430      O 
       -3.76614758475715        3.06105791463952       -5.14586372630652      H 
        3.51509977165528        3.53318363093143        0.34274639732807      O 
        4.37032758945493        5.03007352946961       -0.20933672993947      H 
        2.36321025875146        0.70886080866859       -3.58185886204527      O 
        2.03203870046246       -0.94319683763290       -2.85597132517245      H 
        0.72374208770320        1.38693552280182       -4.04837032215995      H 
        3.26616500146916        2.47121665078435       -1.19053535617989      H 
       -1.55819345464320        3.72814927418639        1.01171783517235      O 
       -2.20529006695323        1.17118120110342        2.08350981817656      H 
        0.29482805549589        3.79955881720942        1.01916306159201      H 
       -2.03292829415295        3.65856591792049       -0.76653153458484      H 
        3.08806991308962       -1.14743715394403        3.33744292913200      N 
        4.31095941361766       -1.74520511451341        4.67908914345832      H 
        2.39359170276159       -2.72423302700867        0.88243513869960      H 
        1.35149433833479       -0.95688975066954        4.12949220561922      H 
        3.63877101014001        0.59282741762048        2.74179988548027      H 
$end
 
 Bond Distances (Angstroems)
 ---------------------------
S1-O2=1.5553         S1-O3=1.4156         S1-O4=1.4442         S1-O5=1.5483         O2-S1=1.5553         O2-H19=1.0284        
O3-S1=1.4156         O4-S1=1.4442         O5-S1=1.5483         O5-H6=0.9946         H6-O5=0.9946         H7-O10=0.9868        
O8-H9=0.9590         O8-H24=1.0212        H9-O8=0.9590         O10-H7=0.9868        O10-H11=0.9580       H11-O10=0.9580       
O12-H13=0.9579       O12-H17=0.9957       H13-O12=0.9579       O14-H15=0.9708       O14-H16=0.9708       H15-O14=0.9708       
H16-O14=0.9708       H17-O12=0.9957       O18-H20=0.9813       O18-H21=0.9747       H19-O2=1.0284        H20-O18=0.9813       
H21-O18=0.9747       N22-H23=1.0114       N22-H25=1.0150       N22-H26=1.0160       H23-N22=1.0114       H24-O8=1.0212        
H25-N22=1.0150       H26-N22=1.0160       
 N  H  Rav=1.0142 sigma=0.0020  Rmin=1.0114  Rmax=1.0160     3
 O  H  Rav=0.9833 sigma=0.0224  Rmin=0.9579  Rmax=1.0284    12
 S  O  Rav=1.4908 sigma=0.0618  Rmin=1.4156  Rmax=1.5553     4
 
 selected bond angles (degree)
 --------------------
O3-S1-O2=111.18                O4-S1-O2=108.05                O4-S1-O3=117.04                O5-S1-O2=101.29                
O5-S1-O3=109.62                O5-S1-O4=108.47                H19-O2-S1=113.39               H6-O5-S1=104.60                
H24-O8-H9=107.00               H11-O10-H7=106.27              
 
 selected dihedral angles (degree)
 ---------------------------------
H19-O2-S1-O3=254.54           H19-O2-S1-O4= 24.26           H19-O2-S1-O5=138.14           H6-O5-S1-O2=294.87            
H6-O5-S1-O3=177.33            H6-O5-S1-O4= 48.44            
 
 CMA Distance (Angstroems)
 ---------------------------
R(CMA):  3.3129

========================================================================
 FINAL SINGLEPOINT CALCULATION ON OPTIMIZED GEOMETRY
========================================================================

 Ncao       : 65
 Nao        : 64
 Nshell     : 38
 Nel        : 80
 T(el)      :   300.0
 intcut     :    25.0
 scfconv/Eh :  0.100E-05
   qconv/e  :  0.100E-03
 intneglect :  0.100E-07
 broydamp   :      0.250
 iter      E             dE          RMSdq      gap      omega  full diag
   1    -50.7396345 -0.507396E+02  0.282E-05    8.57       0.0  T
   2    -50.7396345 -0.881073E-12  0.185E-05    8.57    1057.8  T
   3    -50.7396345 -0.412115E-12  0.447E-06    8.57    4390.7  T
speedup  1.00
cpu  time for SCC    0.00 s
wall time for SCC    0.00 s

   *** convergence criteria satisfied after 3 iterations ***

          eigenvalues
 #    :          28         29         30         31         32         33         34         35
 occ. :        2.000      2.000      2.000      2.000      2.000      2.000      2.000      2.000
 eps  :       -13.622    -13.527    -12.894    -12.646    -12.435    -12.412    -12.344    -12.301
 #    :          36         37         38         39         40         41         42         43
 occ. :        2.000      2.000      2.000      2.000      2.000      0.000      0.000      0.000
 eps  :       -12.272    -12.123    -11.974    -11.871    -11.422     -2.854     -0.763     -0.562
 #    :          44         45         46         47         48         49         50         51
 occ. :        0.000      0.000      0.000      0.000      0.000      0.000      0.000      0.000
 eps  :         0.039      0.695      1.326      1.793      2.505      3.673      4.702      5.305


   #   Z            q   n(s)   n(p)   n(d)      C6AA      α(0)
   1  16 S      1.667  1.580  1.796  0.957    89.527    15.925
   2   8 O     -0.636  1.757  4.880  0.000    26.043     6.889
   3   8 O     -0.637  1.751  4.886  0.000    27.050     6.973
   4   8 O     -0.718  1.756  4.961  0.000    29.200     7.245
   5   8 O     -0.595  1.753  4.842  0.000    25.030     6.754
   6   1 H      0.383  0.617  0.000  0.000     0.511     1.119
   7   1 H      0.343  0.657  0.000  0.000     0.606     1.223
   8   8 O     -0.631  1.760  4.871  0.000    25.945     6.874
   9   1 H      0.292  0.708  0.000  0.000     0.744     1.355
  10   8 O     -0.624  1.743  4.881  0.000    25.768     6.851
  11   1 H      0.290  0.710  0.000  0.000     0.752     1.362
  12   8 O     -0.631  1.754  4.877  0.000    25.944     6.874
  13   1 H      0.281  0.719  0.000  0.000     0.780     1.387
  14   8 O     -0.622  1.755  4.867  0.000    25.728     6.846
  15   1 H      0.317  0.683  0.000  0.000     0.671     1.287
  16   1 H      0.321  0.679  0.000  0.000     0.662     1.278
  17   1 H      0.338  0.662  0.000  0.000     0.618     1.235
  18   8 O     -0.619  1.765  4.854  0.000    25.643     6.835
  19   1 H      0.394  0.606  0.000  0.000     0.493     1.102
  20   1 H      0.335  0.665  0.000  0.000     0.624     1.241
  21   1 H      0.330  0.670  0.000  0.000     0.637     1.253
  22   7 N     -0.453  1.362  4.092  0.000    31.908     8.389
  23   1 H      0.157  0.843  0.000  0.000     1.354     1.823
  24   1 H      0.333  0.667  0.000  0.000     0.625     1.240
  25   1 H      0.185  0.815  0.000  0.000     1.184     1.704
  26   1 H      0.199  0.801  0.000  0.000     1.112     1.652

 Mol. C6AA /au·bohr⁶  :       5445.256873
 Mol. C8AA /au·bohr⁸  :     117681.252968
 Mol. α(0) /au        :        106.716461

 
 Wiberg/Mayer (AO) data. WBOs > 0.1 written file <wbo>
 largest (>0.05) Wiberg bond orders for each atom
           total WBO             WBO to atom ...
     1  S   4.882    O    3 1.511    O    4 1.350    O    5 0.998    O    2 0.983
     2  O   1.952    S    1 0.983    H   19 0.660    O    4 0.091    O    3 0.090    O    5 0.056    O   18 0.051
     3  O   1.820    S    1 1.511    O    4 0.122    O    2 0.090    O    5 0.079
     4  O   1.736    S    1 1.350    O    3 0.122    O    2 0.091    O    5 0.084    H    7 0.065
     5  O   1.997    S    1 0.998    H    6 0.728    O    4 0.084    O    3 0.079    O    2 0.056
     6  H   0.853    O    5 0.728    O    8 0.108
     7  H   0.883    O   10 0.811    O    4 0.065
     8  O   1.918    H    9 0.910    H   24 0.743    H    6 0.108    N   22 0.060
     9  H   0.914    O    8 0.910
    10  O   1.867    H   11 0.906    H    7 0.811
    11  H   0.916    O   10 0.906
    12  O   1.862    H   13 0.914    H   17 0.795    H   20 0.058
    13  H   0.921    O   12 0.914
    14  O   1.892    H   15 0.862    H   16 0.860    H   17 0.089
    15  H   0.899    O   14 0.862
    16  H   0.897    O   14 0.860
    17  H   0.886    O   12 0.795    O   14 0.089
    18  O   1.953    H   21 0.844    H   20 0.828    H   19 0.166    O    2 0.051
    19  H   0.844    O    2 0.660    O   18 0.166
    20  H   0.888    O   18 0.828    O   12 0.058
    21  H   0.891    O   18 0.844
    22  N   3.093    H   23 0.970    H   25 0.953    H   26 0.941    H   24 0.144    O    8 0.060
    23  H   0.975    N   22 0.970
    24  H   0.889    O    8 0.743    N   22 0.144
    25  H   0.966    N   22 0.953
    26  H   0.960    N   22 0.941
 MOs/occ written to file <molden.input>
 
molecular dipole:
                 x           y           z       tot (Debye)
 q only:        2.126       0.459      -0.370
   full:        2.305       0.447      -0.394       6.052
molecular quadrupole (traceless):
                xx          xy          yy          xz          yz          zz
 q only:       -8.962     -11.772       6.081      12.642      -1.177       2.881
  q+dip:      -10.376     -12.274       6.221      16.901      -2.459       4.155
   full:      -10.332     -12.258       6.579      17.162      -2.662       3.752

SCC energy    :     -50.7396345
rep           :       0.2892107
ES            :       0.2346070
AES           :      -0.0514591
AXC           :      -0.0068487
disp          :      -0.0187372
XB            :       0.0000000
fix           :       0.0000000
total E       :     -50.4500264
atomizationE  :       4.9803306     3125.20
(atE without considering molecular charge,
 total energy contains solvation terms)
H-L gap (eV)  :          8.5679
optimized geometry written to: xtbopt.xyz


------------------------------------------------------------------------
 * finished run on 2019/09/16 at 12:27:31.217     
------------------------------------------------------------------------
 total:
 * wall-time:     0 d,  0 h,  0 min,  1.561 sec
 *  cpu-time:     0 d,  0 h,  0 min,  1.516 sec
 * ratio c/w:     0.971 speedup
 SCF:
 * wall-time:     0 d,  0 h,  0 min,  0.141 sec
 *  cpu-time:     0 d,  0 h,  0 min,  0.138 sec
 * ratio c/w:     0.980 speedup
 ANC optimizer:
 * wall-time:     0 d,  0 h,  0 min,  1.394 sec
 *  cpu-time:     0 d,  0 h,  0 min,  1.354 sec
 * ratio c/w:     0.971 speedup

