      -----------------------------------------------------------      
     |                   =====================                   |     
     |                           x T B                           |     
     |                   =====================                   |     
     |                         S. Grimme                         |     
     |          Mulliken Center for Theoretical Chemistry        |     
     |                    University of Bonn                     |     
     |                 Version 6.0.1 (SAW181210)                 |     
      -----------------------------------------------------------      

   This program is distributed in the hope that it will be useful,
   but WITHOUT ANY WARRANTY; without even the implied warranty of
   MERCHANTABILITY or FITNESS FOR A PARTICULAR PURPOSE.
   
   FOR NON-COMMERCIAL, ACADEMIA USE ONLY.
   
   Cite this work as:
   S. Grimme, C. Bannwarth, P. Shushkov, J. Comput. Theory Chem., 2017,
   13, 1989-2009.
   C. Bannwarth, S. Ehlert and S. Grimme., ChemRxiv, 2018, preprint.
   http://doi.org/10.26434/chemrxiv.7246238.v1
   
   for sTDA-xTB:
   S. Grimme and C. Bannwarth, J. Chem. Phys., 2016, 145, 054103.
   
   in the mass-spec context:
   V. Asgeirsson, C. Bauer and S. Grimme, Chem. Sci., 2017, 8, 4879.
   
   if GBSA is used:
   P. Shushkov, F. März and S. Grimme, unpublished.
   
   for ANC optimizer:
   S. Grimme, unpublished.
   Rational Function algorithm used in ANCopt:
   F. Eckert, P. Pulay, H.-J. Werner, J. Comput. Chem., 1997, 18, 1473.
   
   with help from (in alphabetical order)
   C. Bannwarth, F. Bohle, G. Brandenburg, E. Caldeweyher, M. Checinski,
   S. Dohm, S. Ehlert, S. Ehrlich, F. März, H. Neugebauer, J. Pisarek,
   P. Pracht, P. Shushkov, and S. Spicher.
   
 * started run on 2019/09/16 at 12:43:06.323     
========================================================================
 # omp threads = 1
========================================================================
number of atoms            : 26
number of electrons        : 80
charge                     : 0
spin                       : .0
first test random number   : .1390

########################################################################
# WARNING! Please study the warnings concerning your input carefully
#  - XTBPATH is not set, using XTBHOME instead
#  - the use of '-opt' is discouraged, please use '--opt' next time
#  - the use of '-chrg' is discouraged, please use '--chrg' next time
#  - the use of '-uhf' is discouraged, please use '--uhf' next time
########################################################################

           ------------------------------------------------- 
          |                 G F N 2 - x T B                 |
          | Geometry, Frequencies, Noncovalent interactions |
          |            JCTC 2018 parametrisation            |
           ------------------------------------------------- 
      method parameters     
 k(s)        :  1.8500
 k(p)        :  2.2300
 k(d)        :  2.2300
 k(f)        :  2.0000
 kEN (H0ij)  : -2.0000
 D4 a1       :  0.5200
 D4 a2       :  5.0000
 D4 s6       :  1.0000
 D4 s8       :  2.7000
 D4 s9       :  5.0000
 alphaj      :  2.0000


            Z     q(EN)     CN     RAES       Cart. coordinates
     1  S   6.0    0.58    4.27    4.18    -0.51248     3.42081     3.52252
     2  O   6.0   -0.32    1.14    1.80     1.47508     4.14405     1.75959
     3  O   6.0   -0.29    1.09    1.80    -3.10151     3.02866     2.76042
     4  O   6.0   -0.23    2.05    1.83     0.51879     0.96510     5.08822
     5  O   6.0   -0.22    2.04    1.83    -0.63061     5.36872     5.85906
     6  H   1.0    0.14    1.11    1.45     1.08114     5.82105     6.36072
     7  H   1.0    0.18    1.27    1.48     1.60095     0.00840     3.94804
     8  O   6.0   -0.36    1.52    1.80    -3.82007    -3.89948    -0.36950
     9  H   1.0    0.18    0.94    1.42    -5.08030    -5.17203     0.15605
    10  O   6.0   -0.40    1.63    1.81     1.01662    -0.52996    -4.29506
    11  H   1.0    0.17    0.95    1.42     1.31586    -0.47459    -6.13656
    12  O   6.0   -0.39    1.60    1.81     3.18305    -1.50044     2.04351
    13  H   1.0    0.18    0.95    1.42     4.38494    -2.35303     3.18907
    14  O   6.0   -0.22    2.94    2.63     4.05428     1.28022    -1.44542
    15  H   1.0    0.15    1.00    1.43     3.52955     2.96922    -0.84394
    16  H   1.0    0.16    1.16    1.46     4.14047     0.03679    -0.05385
    17  H   1.0    0.16    1.19    1.46     2.98710     0.67758    -2.85590
    18  O   6.0   -0.23    2.96    2.68     0.62332    -3.80053    -1.05588
    19  H   1.0    0.16    1.16    1.45     0.81754    -2.70196    -2.55430
    20  H   1.0    0.16    1.14    1.45     1.60639    -3.17412     0.40398
    21  H   1.0    0.17    1.23    1.47    -1.17248    -4.07922    -0.62120
    22  N   5.0   -0.15    3.96    2.77    -3.60353    -0.00705    -2.97192
    23  H   1.0    0.10    0.99    1.43    -3.73139     1.63265    -1.93293
    24  H   1.0    0.13    1.20    1.46    -3.85194    -1.53900    -1.79895
    25  H   1.0    0.08    0.99    1.43    -4.98017    -0.01279    -4.34642
    26  H   1.0    0.12    1.12    1.45    -1.85061    -0.10905    -3.80936

  Z AO/shell   Hii/eV     exponent
  1     Wed Apr 25 08:07:45 CEST 2018   EN: 2.200 GM2: 0.406  GM3: 0.0800  RAES: 1.40
     1s    -10.707211    1.230000
  7     Wed Apr 25 08:07:45 CEST 2018   EN: 3.040 GM2: 0.461  GM3:-0.0640  RAES: 1.90
     2s    -16.686243    2.339881
     2p    -12.523956    2.014332
  8     Wed Apr 25 08:07:45 CEST 2018   EN: 3.440 GM2: 0.452  GM3:-0.0517  RAES: 1.80
     2s    -20.229985    2.439742
     2p    -15.503117    2.137023
 16     Tue Apr 24 11:44:34 CEST 2018   EN: 2.580 GM2: 0.340  GM3:-0.0502  RAES: 3.10
     3s    -20.029654    1.981333
     3p    -11.377694    2.025643
     3d     -0.420282    1.702555
 no old-style atom pair restraining (fixing) potential

molecular fragmentation (1/2 indicates fragments):
11111112222222222222222222
# atoms in fragment 1/2:     7    19
 fragment masses (1/2) :       98.07      107.11
CMA distance (Bohr)    :   7.048
constraining FC (au)   :  0.0500
           ------------------------------------------------- 
          |        Self-Consistent Charge Iterations        |
           ------------------------------------------------- 

 Ncao       : 65
 Nao        : 64
 Nshell     : 38
 Nel        : 80
 T(el)      :   300.0
 intcut     :    25.0
 scfconv/Eh :  0.100E-05
   qconv/e  :  0.100E-03
 intneglect :  0.100E-07
 broydamp   :      0.250
 iter      E             dE          RMSdq      gap      omega  full diag
   1    -50.4785352 -0.504785E+02  0.717E+00    8.13       0.0  T
   2    -50.5320510 -0.535159E-01  0.505E+00    6.81       1.0  T
   3    -50.5765880 -0.445370E-01  0.121E+00    2.89       1.0  T
   4    -50.5802369 -0.364889E-02  0.703E-01    3.08       1.0  T
   5    -50.5817130 -0.147608E-02  0.290E-01    3.09       1.0  T
   6    -50.5820949 -0.381882E-03  0.162E-01    3.17       1.0  T
   7    -50.5822597 -0.164808E-03  0.488E-02    3.21       1.0  T
   8    -50.5822726 -0.129503E-04  0.264E-02    3.21       1.0  T
   9    -50.5822761 -0.349556E-05  0.108E-02    3.22       1.8  T
  10    -50.5822767 -0.624138E-06  0.298E-03    3.22       6.6  T
  11    -50.5822768 -0.227975E-07  0.138E-03    3.22      14.2  T
  12    -50.5822768 -0.884853E-08  0.459E-04    3.22      42.7  T
  13    -50.5822768 -0.842476E-09  0.179E-04    3.22     109.4  T
speedup  0.99
cpu  time for SCC    0.01 s
wall time for SCC    0.02 s

   *** convergence criteria satisfied after 13 iterations ***

          eigenvalues
 #    :          28         29         30         31         32         33         34         35
 occ. :        2.000      2.000      2.000      2.000      2.000      2.000      2.000      2.000
 eps  :       -13.085    -12.886    -12.788    -12.727    -12.606    -12.468    -11.148    -10.736
 #    :          36         37         38         39         40         41         42         43
 occ. :        2.000      2.000      2.000      2.000      2.000      0.000      0.000      0.000
 eps  :       -10.527    -10.306    -10.200     -8.599     -8.217     -4.998     -2.373     -1.025
 #    :          44         45         46         47         48         49         50         51
 occ. :        0.000      0.000      0.000      0.000      0.000      0.000      0.000      0.000
 eps  :        -0.714      0.227      0.625      2.550      2.627      3.008      3.920      3.952


   #   Z            q   n(s)   n(p)   n(d)      C6AA      α(0)
   1  16 S      1.637  1.628  1.807  0.929    90.212    15.986
   2   8 O     -0.679  1.763  4.916  0.000    28.147     7.113
   3   8 O     -0.615  1.767  4.848  0.000    26.485     6.900
   4   8 O     -0.609  1.774  4.834  0.000    25.361     6.798
   5   8 O     -0.556  1.754  4.802  0.000    24.130     6.631
   6   1 H      0.350  0.650  0.000  0.000     0.586     1.202
   7   1 H      0.384  0.616  0.000  0.000     0.512     1.122
   8   8 O     -0.894  1.813  5.081  0.000    34.512     7.879
   9   1 H      0.177  0.823  0.000  0.000     1.246     1.754
  10   8 O     -0.847  1.824  5.023  0.000    33.017     7.705
  11   1 H      0.200  0.800  0.000  0.000     1.121     1.664
  12   8 O     -0.855  1.835  5.020  0.000    33.284     7.735
  13   1 H      0.207  0.793  0.000  0.000     1.084     1.636
  14   8 O     -0.465  1.663  4.802  0.000    22.089     6.348
  15   1 H      0.371  0.629  0.000  0.000     0.541     1.156
  16   1 H      0.401  0.599  0.000  0.000     0.478     1.084
  17   1 H      0.397  0.603  0.000  0.000     0.485     1.090
  18   8 O     -0.511  1.681  4.830  0.000    23.069     6.487
  19   1 H      0.384  0.616  0.000  0.000     0.512     1.122
  20   1 H      0.379  0.621  0.000  0.000     0.523     1.134
  21   1 H      0.391  0.609  0.000  0.000     0.494     1.100
  22   7 N     -0.314  1.271  4.044  0.000    28.070     7.869
  23   1 H      0.231  0.769  0.000  0.000     0.962     1.537
  24   1 H      0.326  0.674  0.000  0.000     0.639     1.250
  25   1 H      0.215  0.785  0.000  0.000     1.032     1.591
  26   1 H      0.296  0.704  0.000  0.000     0.726     1.334

 Mol. C6AA /au·bohr⁶  :       5528.483693
 Mol. C8AA /au·bohr⁸  :     119636.822484
 Mol. α(0) /au        :        107.227694

 
 Wiberg/Mayer (AO) data. WBOs > 0.1 written file <wbo>
 largest (>0.05) Wiberg bond orders for each atom
           total WBO             WBO to atom ...
     1  S   4.780    O    3 1.484    O    2 1.383    O    4 0.956    O    5 0.928
     2  O   1.756    S    1 1.383    O    3 0.142    O    4 0.104    O    5 0.085
     3  O   1.824    S    1 1.484    O    2 0.142    O    4 0.105    O    5 0.075
     4  O   1.960    S    1 0.956    H    7 0.686    O    3 0.105    O    2 0.104    O    5 0.056
     5  O   2.012    S    1 0.928    H    6 0.859    O    2 0.085    O    3 0.075    O    4 0.056
     6  H   0.878    O    5 0.859
     7  H   0.853    O    4 0.686    O   12 0.150
     8  O   1.458    H    9 0.943    H   21 0.198    H   24 0.176    N   22 0.070    O   18 0.061
     9  H   0.969    O    8 0.943
    10  O   1.606    H   11 0.948    H   17 0.193    H   19 0.142    H   26 0.135    N   22 0.063    O   14 0.062
    11  H   0.960    O   10 0.948
    12  O   1.608    H   13 0.949    H   16 0.179    H    7 0.150    H   20 0.150    O   14 0.058    O   18 0.053
    13  H   0.957    O   12 0.949
    14  O   2.270    H   15 0.824    H   16 0.655    H   17 0.644    O   10 0.062    O   12 0.058
    15  H   0.862    O   14 0.824
    16  H   0.839    O   14 0.655    O   12 0.179
    17  H   0.842    O   14 0.644    O   10 0.193
    18  O   2.235    H   19 0.704    H   20 0.701    H   21 0.643    O    8 0.061    O   12 0.053
    19  H   0.853    O   18 0.704    O   10 0.142
    20  H   0.856    O   18 0.701    O   12 0.150
    21  H   0.847    O   18 0.643    O    8 0.198
    22  N   3.520    H   25 0.949    H   23 0.939    H   26 0.772    H   24 0.709    O    8 0.070    O   10 0.063
    23  H   0.947    N   22 0.939
    24  H   0.894    N   22 0.709    O    8 0.176
    25  H   0.954    N   22 0.949
    26  H   0.913    N   22 0.772    O   10 0.135
 MOs/occ written to file <molden.input>
 
molecular dipole:
                 x           y           z       tot (Debye)
 q only:        1.016       1.852      -1.543
   full:        0.992       1.936      -1.347       6.505
molecular quadrupole (traceless):
                xx          xy          yy          xz          yz          zz
 q only:        0.447      -0.926      -3.367      14.020       1.460       2.920
  q+dip:       -0.967       1.099      -4.276      17.391       1.301       5.243
   full:       -1.120       1.024      -4.228      17.579       1.301       5.348

SCC energy    :     -50.5822768
rep           :       0.2636423
ES            :       0.3298580
AES           :      -0.0522286
AXC           :      -0.0047955
disp          :      -0.0177273
XB            :       0.0000000
fix           :       0.0000000
total E       :     -50.3182537
atomizationE  :       4.8485579     3042.52
(atE without considering molecular charge,
 total energy contains solvation terms)
H-L gap (eV)  :          3.2192
           ------------------------------------------------- 
          |                 ===============                 |
          |                   A N C O P T                   |
          |                 ===============                 |
          |          Approximate Normal Coordinate          |
          |           Rational Function Optimizer           |
           ------------------------------------------------- 
dumping coords to <xtbopt.coord> and <xtbopt.log>
 optlevel               2
 Maxcycle             520
 Maxmicro              25
 Econv         1.000000000000000E-007
 Gconv         2.000000000000000E-004
 Maxdispl       1.00000000000000     
 Hlow          5.000000000000000E-003
 S6             20.0000000000000     
 Nvar               72

generating ANC from model Hessian ...
 Shifting diagonal of input Hessian by   4.948074553668681E-003
 Lowest  eigenvalues of input Hessian
   -0.000000   -0.000000    0.000000    0.000000    0.000000    0.000000
    0.005000    0.005063    0.005495    0.005758    0.006287    0.007298
    0.007499    0.008309    0.008638    0.009200    0.011144    0.013007
 Highest eigenvalues
    1.593376    1.595667    1.608489    1.951442    2.768228    3.589033
 
cpu  time for ANC gen    0.02 s
wall time for ANC gen    0.02 s
................................................................................
.............................. CYCLE    1 ......................................
................................................................................
   1    -50.5822768 -0.505823E+02  0.452E-05    3.22       0.0  T
   2    -50.5822768 -0.326139E-11  0.342E-05    3.22     574.0  T
   3    -50.5822768 -0.201794E-11  0.141E-05    3.22    1395.6  T
speedup  1.00
cpu  time for SCC    0.00 s
wall time for SCC    0.00 s
speedup  0.96
cpu  time for grad    0.01 s
wall time for grad    0.01 s
 E :    -50.31825368  G :  0.226798    pred/act E change:  0.000D+00  0.127D-07
Maxdispl :   0.1095   ||displ|| :   0.2905   Lambda : -0.494D-01
Largest |displ|/coords:  0.1095 (  55)  0.1044 (  14)  0.0888 (  56)
................................................................................
.............................. CYCLE    2 ......................................
................................................................................
   1    -50.6057008 -0.506057E+02  0.374E-01    4.02       0.0  T
   2    -50.6061785 -0.477712E-03  0.270E-01    4.18       1.0  T
   3    -50.6063808 -0.202285E-03  0.899E-02    4.46       1.0  T
   4    -50.6064054 -0.246238E-04  0.270E-02    4.47       1.0  T
   5    -50.6064067 -0.135279E-05  0.701E-03    4.46       2.8  T
   6    -50.6064068 -0.826569E-07  0.397E-03    4.46       4.9  T
   7    -50.6064069 -0.352490E-07  0.149E-03    4.46      13.1  T
speedup  1.08
cpu  time for SCC    0.01 s
wall time for SCC    0.01 s
speedup  1.04
cpu  time for grad    0.01 s
wall time for grad    0.01 s
 E :    -50.35682110  G :  0.132336    pred/act E change:  0.000D+00 -0.386D-01
Maxdispl :   0.1807   ||displ|| :   0.3265   Lambda : -0.231D-01
Largest |displ|/coords:  0.1807 (  14)  0.0842 (  25)  0.0822 (  55)
................................................................................
.............................. CYCLE    3 ......................................
................................................................................
   1    -50.6175616 -0.506176E+02  0.374E-01    5.15       0.0  T
   2    -50.6181242 -0.562612E-03  0.264E-01    5.34       1.0  T
   3    -50.6183549 -0.230621E-03  0.952E-02    5.66       1.0  T
   4    -50.6183741 -0.192069E-04  0.250E-02    5.67       1.0  T
   5    -50.6183756 -0.153136E-05  0.585E-03    5.66       3.4  T
   6    -50.6183757 -0.689759E-07  0.350E-03    5.66       5.6  T
speedup  0.89
cpu  time for SCC    0.01 s
wall time for SCC    0.01 s
speedup  0.96
cpu  time for grad    0.01 s
wall time for grad    0.01 s
 E :    -50.37586023  G :  0.088009    pred/act E change: -0.268D-01 -0.190D-01
Maxdispl :   0.2140   ||displ|| :   0.3857   Lambda : -0.134D-01
Largest |displ|/coords:  0.2140 (  14)  0.1298 (   3)  0.1047 (   5)
................................................................................
.............................. CYCLE    4 ......................................
................................................................................
   1    -50.6211737 -0.506212E+02  0.433E-01    6.15       0.0  T
   2    -50.6218491 -0.675386E-03  0.302E-01    6.36       1.0  T
   3    -50.6221231 -0.274049E-03  0.108E-01    6.71       1.0  T
   4    -50.6221490 -0.258311E-04  0.258E-02    6.72       1.0  T
   5    -50.6221511 -0.212616E-05  0.725E-03    6.70       2.7  T
   6    -50.6221512 -0.137993E-06  0.417E-03    6.70       4.7  T
   7    -50.6221513 -0.378759E-07  0.135E-03    6.70      14.5  T
speedup  1.09
cpu  time for SCC    0.01 s
wall time for SCC    0.01 s
speedup  0.97
cpu  time for grad    0.01 s
wall time for grad    0.01 s
 E :    -50.38692625  G :  0.068110    pred/act E change: -0.128D-01 -0.111D-01
Maxdispl :   0.1582   ||displ|| :   0.3627   Lambda : -0.878D-02
Largest |displ|/coords:  0.1582 (   3)  0.1263 (   8)  0.1143 (   5)
................................................................................
.............................. CYCLE    5 ......................................
................................................................................
   1    -50.6309622 -0.506310E+02  0.265E-01    7.06       0.0  T
   2    -50.6312187 -0.256504E-03  0.189E-01    7.16       1.0  T
   3    -50.6313237 -0.105020E-03  0.687E-02    7.33       1.0  T
   4    -50.6313361 -0.124264E-04  0.175E-02    7.35       1.1  T
   5    -50.6313367 -0.631025E-06  0.519E-03    7.35       3.8  T
   6    -50.6313368 -0.397984E-07  0.269E-03    7.35       7.3  T
speedup  1.09
cpu  time for SCC    0.01 s
wall time for SCC    0.01 s
speedup  1.03
cpu  time for grad    0.01 s
wall time for grad    0.01 s
 E :    -50.39325966  G :  0.049410    pred/act E change: -0.773D-02 -0.633D-02
Maxdispl :   0.3487   ||displ|| :   0.6599   Lambda : -0.153D-01
Largest |displ|/coords:  0.3487 (  14)  0.2484 (   3)  0.1813 (  18)
................................................................................
.............................. CYCLE    6 ......................................
................................................................................
   1    -50.6224542 -0.506225E+02  0.846E-01    7.94       0.0  T
   2    -50.6257875 -0.333335E-02  0.564E-01    8.28       1.0  T
   3    -50.6269892 -0.120164E-02  0.223E-01    8.55       1.0  T
   4    -50.6270743 -0.851398E-04  0.501E-02    8.60       1.0  T
   5    -50.6270821 -0.777736E-05  0.218E-02    8.59       1.0  T
   6    -50.6270840 -0.192247E-05  0.918E-03    8.59       2.1  T
   7    -50.6270842 -0.177807E-06  0.274E-03    8.59       7.2  T
   8    -50.6270842 -0.156548E-07  0.961E-04    8.59      20.4  T
speedup  0.91
cpu  time for SCC    0.01 s
wall time for SCC    0.01 s
speedup  0.95
cpu  time for grad    0.01 s
wall time for grad    0.02 s
 E :    -50.39912510  G :  0.081087    pred/act E change: -0.496D-02 -0.587D-02
Maxdispl :   0.1986   ||displ|| :   0.4374   Lambda : -0.149D-01
Largest |displ|/coords:  0.1986 (   7)  0.1864 (   8)  0.1540 (  14)
................................................................................
.............................. CYCLE    7 ......................................
................................................................................
   1    -50.6449571 -0.506450E+02  0.538E-01    8.30       0.0  T
   2    -50.6454739 -0.516859E-03  0.389E-01    8.29       1.0  T
   3    -50.6457353 -0.261333E-03  0.115E-01    8.26       1.0  T
   4    -50.6457782 -0.429603E-04  0.298E-02    8.27       1.0  T
   5    -50.6457807 -0.245099E-05  0.112E-02    8.27       1.8  T
   6    -50.6457807 -0.679042E-07  0.528E-03    8.28       3.7  T
   7    -50.6457808 -0.957471E-07  0.133E-03    8.28      14.7  T
speedup  0.90
cpu  time for SCC    0.01 s
wall time for SCC    0.01 s
speedup  0.95
cpu  time for grad    0.01 s
wall time for grad    0.01 s
 E :    -50.40238311  G :  0.069976    pred/act E change: -0.109D-01 -0.326D-02
Maxdispl :   0.2794   ||displ|| :   0.4930   Lambda : -0.975D-02
Largest |displ|/coords:  0.2794 (   3)  0.2187 (   5)  0.1389 (  10)
................................................................................
.............................. CYCLE    8 ......................................
................................................................................
   1    -50.6404796 -0.506405E+02  0.467E-01    8.36       0.0  T
   2    -50.6410766 -0.597041E-03  0.329E-01    8.41       1.0  T
   3    -50.6413450 -0.268374E-03  0.113E-01    8.45       1.0  T
   4    -50.6413842 -0.392136E-04  0.229E-02    8.47       1.0  T
   5    -50.6413854 -0.120619E-05  0.100E-02    8.46       2.0  T
   6    -50.6413857 -0.327590E-06  0.516E-03    8.46       3.8  T
   7    -50.6413858 -0.528922E-07  0.122E-03    8.46      16.1  T
speedup  0.94
cpu  time for SCC    0.01 s
wall time for SCC    0.01 s
speedup  1.03
cpu  time for grad    0.01 s
wall time for grad    0.01 s
 E :    -50.40787563  G :  0.059390    pred/act E change: -0.885D-02 -0.549D-02
Maxdispl :   0.1889   ||displ|| :   0.3860   Lambda : -0.575D-02
Largest |displ|/coords:  0.1889 (   6)  0.1823 (   2)  0.1628 (   3)
................................................................................
.............................. CYCLE    9 ......................................
................................................................................
   1    -50.6494327 -0.506494E+02  0.212E-01    8.41       0.0  T
   2    -50.6494724 -0.397104E-04  0.158E-01    8.43       1.0  T
   3    -50.6495020 -0.296101E-04  0.381E-02    8.47       1.0  T
   4    -50.6495069 -0.486260E-05  0.145E-02    8.47       1.4  T
   5    -50.6495072 -0.301005E-06  0.403E-03    8.47       4.9  T
   6    -50.6495072 -0.308909E-07  0.224E-03    8.47       8.8  T
speedup  0.89
cpu  time for SCC    0.00 s
wall time for SCC    0.01 s
speedup  0.96
cpu  time for grad    0.01 s
wall time for grad    0.01 s
 E :    -50.41186528  G :  0.051339    pred/act E change: -0.606D-02 -0.399D-02
Maxdispl :   0.2211   ||displ|| :   0.3621   Lambda : -0.536D-02
Largest |displ|/coords:  0.2211 (   3)  0.1743 (   5)  0.1308 (   9)
................................................................................
.............................. CYCLE   10 ......................................
................................................................................
   1    -50.6553493 -0.506553E+02  0.221E-01    8.47       0.0  T
   2    -50.6554641 -0.114814E-03  0.163E-01    8.49       1.0  T
   3    -50.6555299 -0.658255E-04  0.577E-02    8.52       1.0  T
   4    -50.6555411 -0.111726E-04  0.166E-02    8.53       1.2  T
   5    -50.6555416 -0.501787E-06  0.602E-03    8.53       3.3  T
   6    -50.6555416 -0.459054E-07  0.305E-03    8.53       6.4  T
   7    -50.6555416 -0.958848E-08  0.781E-04    8.53      25.1  T
speedup  1.04
cpu  time for SCC    0.01 s
wall time for SCC    0.01 s
speedup  1.02
cpu  time for grad    0.01 s
wall time for grad    0.01 s
 E :    -50.41650174  G :  0.057817    pred/act E change: -0.330D-02 -0.464D-02
Maxdispl :   0.1468   ||displ|| :   0.2575   Lambda : -0.544D-02
Largest |displ|/coords:  0.1468 (   3)  0.0869 (  17)  0.0605 (  25)
................................................................................
.............................. CYCLE   11 ......................................
................................................................................
   1    -50.6663362 -0.506663E+02  0.166E-01    8.63       0.0  T
   2    -50.6664084 -0.721165E-04  0.125E-01    8.67       1.0  T
   3    -50.6664488 -0.404575E-04  0.535E-02    8.73       1.0  T
   4    -50.6664555 -0.664006E-05  0.179E-02    8.74       1.1  T
   5    -50.6664561 -0.674618E-06  0.483E-03    8.74       4.1  T
   6    -50.6664562 -0.341025E-07  0.246E-03    8.74       8.0  T
speedup  0.88
cpu  time for SCC    0.00 s
wall time for SCC    0.01 s
speedup  0.95
cpu  time for grad    0.01 s
wall time for grad    0.01 s
 E :    -50.42186897  G :  0.060082    pred/act E change: -0.303D-02 -0.537D-02
Maxdispl :   0.1250   ||displ|| :   0.2585   Lambda : -0.675D-02
Largest |displ|/coords:  0.1250 (   3)  0.0781 (  25)  0.0764 (   5)
................................................................................
.............................. CYCLE   12 ......................................
................................................................................
   1    -50.6813122 -0.506813E+02  0.174E-01    8.85       0.0  T
   2    -50.6813942 -0.820645E-04  0.134E-01    8.89       1.0  T
   3    -50.6814414 -0.471699E-04  0.573E-02    8.95       1.0  T
   4    -50.6814497 -0.833775E-05  0.202E-02    8.96       1.0  T
   5    -50.6814505 -0.748885E-06  0.521E-03    8.96       3.8  T
   6    -50.6814505 -0.392521E-07  0.259E-03    8.96       7.6  T
speedup  1.07
cpu  time for SCC    0.01 s
wall time for SCC    0.01 s
speedup  1.01
cpu  time for grad    0.01 s
wall time for grad    0.01 s
 E :    -50.42851470  G :  0.059871    pred/act E change: -0.290D-02 -0.665D-02
Maxdispl :   0.1162   ||displ|| :   0.2818   Lambda : -0.802D-02
Largest |displ|/coords:  0.1162 (   3)  0.0947 (  25)  0.0769 (   5)
................................................................................
.............................. CYCLE   13 ......................................
................................................................................
   1    -50.6973936 -0.506974E+02  0.195E-01    9.07       0.0  T
   2    -50.6974935 -0.999207E-04  0.149E-01    9.08       1.0  T
   3    -50.6975530 -0.594945E-04  0.602E-02    9.08       1.0  T
   4    -50.6975633 -0.102592E-04  0.221E-02    9.08       1.0  T
   5    -50.6975642 -0.917149E-06  0.590E-03    9.08       3.3  T
   6    -50.6975643 -0.521295E-07  0.291E-03    9.08       6.7  T
speedup  0.88
cpu  time for SCC    0.01 s
wall time for SCC    0.01 s
speedup  1.01
cpu  time for grad    0.01 s
wall time for grad    0.01 s
 E :    -50.43604043  G :  0.054005    pred/act E change: -0.360D-02 -0.753D-02
Maxdispl :   0.1252   ||displ|| :   0.2883   Lambda : -0.773D-02
Largest |displ|/coords:  0.1252 (  25)  0.0950 (   3)  0.0803 (   5)
................................................................................
.............................. CYCLE   14 ......................................
................................................................................
   1    -50.7141414 -0.507141E+02  0.180E-01    9.15       0.0  T
   2    -50.7142227 -0.813461E-04  0.137E-01    9.14       1.0  T
   3    -50.7142666 -0.438852E-04  0.521E-02    9.13       1.0  T
   4    -50.7142755 -0.882575E-05  0.179E-02    9.14       1.1  T
   5    -50.7142760 -0.574742E-06  0.527E-03    9.14       3.7  T
   6    -50.7142761 -0.402094E-07  0.248E-03    9.14       7.9  T
speedup  1.07
cpu  time for SCC    0.01 s
wall time for SCC    0.01 s
speedup  1.02
cpu  time for grad    0.01 s
wall time for grad    0.01 s
 E :    -50.44283222  G :  0.042022    pred/act E change: -0.433D-02 -0.679D-02
Maxdispl :   0.2501   ||displ|| :   0.5639   Lambda : -0.136D-01
Largest |displ|/coords:  0.2501 (  25)  0.1298 (  26)  0.1225 (   5)
................................................................................
.............................. CYCLE   15 ......................................
................................................................................
   1    -50.7472452 -0.507472E+02  0.358E-01    9.28       0.0  T
   2    -50.7475218 -0.276657E-03  0.266E-01    9.27       1.0  T
   3    -50.7476851 -0.163291E-03  0.920E-02    9.24       1.0  T
   4    -50.7477140 -0.288623E-04  0.273E-02    9.24       1.0  T
   5    -50.7477154 -0.145363E-05  0.961E-03    9.24       2.0  T
   6    -50.7477155 -0.988333E-07  0.471E-03    9.24       4.2  T
   7    -50.7477156 -0.298332E-07  0.111E-03    9.24      17.7  T
speedup  0.94
cpu  time for SCC    0.01 s
wall time for SCC    0.01 s
speedup  0.98
cpu  time for grad    0.01 s
wall time for grad    0.01 s
 E :    -50.45018207  G :  0.046587    pred/act E change: -0.419D-02 -0.735D-02
Maxdispl :   0.2484   ||displ|| :   0.4556   Lambda : -0.808D-02
Largest |displ|/coords:  0.2484 (  25)  0.1232 (  27)  0.1202 (  26)
................................................................................
.............................. CYCLE   16 ......................................
................................................................................
   1    -50.7315799 -0.507316E+02  0.239E-01    9.14       0.0  T
   2    -50.7316715 -0.916140E-04  0.175E-01    9.14       1.0  T
   3    -50.7317342 -0.626933E-04  0.487E-02    9.15       1.0  T
   4    -50.7317413 -0.705187E-05  0.151E-02    9.15       1.3  T
   5    -50.7317417 -0.422318E-06  0.477E-03    9.15       4.1  T
   6    -50.7317417 -0.379594E-07  0.234E-03    9.15       8.4  T
speedup  1.09
cpu  time for SCC    0.01 s
wall time for SCC    0.01 s
speedup  1.03
cpu  time for grad    0.01 s
wall time for grad    0.01 s
 E :    -50.44997595  G :  0.065419    pred/act E change: -0.893D-02  0.206D-03
Maxdispl :   0.1157   ||displ|| :   0.3465   Lambda : -0.135D-01
Largest |displ|/coords:  0.1157 (  25)  0.1058 (  17)  0.1025 (  13)
................................................................................
.............................. CYCLE   17 ......................................
................................................................................
   1    -50.7428297 -0.507428E+02  0.270E-01    9.11       0.0  T
   2    -50.7430342 -0.204499E-03  0.199E-01    9.11       1.0  T
   3    -50.7431586 -0.124470E-03  0.758E-02    9.13       1.0  T
   4    -50.7431776 -0.189888E-04  0.253E-02    9.12       1.0  T
   5    -50.7431786 -0.102189E-05  0.679E-03    9.12       2.9  T
   6    -50.7431787 -0.610387E-07  0.360E-03    9.12       5.5  T
   7    -50.7431787 -0.295952E-07  0.139E-03    9.12      14.1  T
speedup  1.08
cpu  time for SCC    0.01 s
wall time for SCC    0.01 s
speedup  1.04
cpu  time for grad    0.01 s
wall time for grad    0.01 s
 E :    -50.45041662  G :  0.064533    pred/act E change: -0.488D-02 -0.441D-03
Maxdispl :   0.1275   ||displ|| :   0.3718   Lambda : -0.154D-01
Largest |displ|/coords:  0.1275 (  25)  0.1128 (  17)  0.1104 (   3)
................................................................................
.............................. CYCLE   18 ......................................
................................................................................
   1    -50.7346871 -0.507347E+02  0.302E-01    9.21       0.0  T
   2    -50.7349480 -0.260892E-03  0.219E-01    9.20       1.0  T
   3    -50.7350859 -0.137941E-03  0.856E-02    9.18       1.0  T
   4    -50.7351059 -0.199120E-04  0.273E-02    9.18       1.0  T
   5    -50.7351071 -0.119994E-05  0.823E-03    9.18       2.4  T
   6    -50.7351072 -0.125405E-06  0.394E-03    9.18       5.0  T
   7    -50.7351072 -0.275885E-07  0.180E-03    9.18      10.9  T
speedup  0.94
cpu  time for SCC    0.01 s
wall time for SCC    0.01 s
speedup  0.97
cpu  time for grad    0.01 s
wall time for grad    0.01 s
 E :    -50.45148008  G :  0.055303    pred/act E change: -0.755D-02 -0.106D-02
Maxdispl :   0.1430   ||displ|| :   0.2858   Lambda : -0.861D-02
Largest |displ|/coords:  0.1430 (   6)  0.1130 (   3)  0.0719 (   7)
................................................................................
.............................. CYCLE   19 ......................................
................................................................................
   1    -50.7402057 -0.507402E+02  0.215E-01    9.11       0.0  T
   2    -50.7403194 -0.113712E-03  0.159E-01    9.12       1.0  T
   3    -50.7403833 -0.638790E-04  0.572E-02    9.14       1.0  T
   4    -50.7403941 -0.108198E-04  0.191E-02    9.14       1.0  T
   5    -50.7403947 -0.592661E-06  0.542E-03    9.14       3.6  T
   6    -50.7403947 -0.363804E-07  0.281E-03    9.14       7.0  T
speedup  1.03
cpu  time for SCC    0.01 s
wall time for SCC    0.01 s
speedup  1.01
cpu  time for grad    0.01 s
wall time for grad    0.01 s
 E :    -50.45403958  G :  0.030319    pred/act E change: -0.874D-02 -0.256D-02
Maxdispl :   0.0493   ||displ|| :   0.1418   Lambda : -0.227D-02
Largest |displ|/coords:  0.0493 (   6)  0.0491 (   7)  0.0413 (   4)
................................................................................
.............................. CYCLE   20 ......................................
................................................................................
   1    -50.7433420 -0.507433E+02  0.999E-02    9.18       0.0  T
   2    -50.7433678 -0.257819E-04  0.733E-02    9.18       1.0  T
   3    -50.7433792 -0.114419E-04  0.279E-02    9.17       1.0  T
   4    -50.7433811 -0.185901E-05  0.838E-03    9.17       2.3  T
   5    -50.7433812 -0.873204E-07  0.239E-03    9.17       8.2  T
   6    -50.7433812 -0.106639E-07  0.111E-03    9.17      17.7  T
speedup  1.07
cpu  time for SCC    0.01 s
wall time for SCC    0.01 s
speedup  1.04
cpu  time for grad    0.01 s
wall time for grad    0.01 s
 E :    -50.45493163  G :  0.017122    pred/act E change: -0.466D-02 -0.892D-03
Maxdispl :   0.0710   ||displ|| :   0.1759   Lambda : -0.126D-02
Largest |displ|/coords:  0.0710 (   1)  0.0613 (  11)  0.0594 (  25)
................................................................................
.............................. CYCLE   21 ......................................
................................................................................
   1    -50.7425505 -0.507426E+02  0.961E-02    9.17       0.0  T
   2    -50.7425596 -0.907535E-05  0.718E-02    9.17       1.0  T
   3    -50.7425666 -0.697899E-05  0.159E-02    9.17       1.2  T
   4    -50.7425675 -0.908205E-06  0.561E-03    9.17       3.5  T
   5    -50.7425675 -0.458561E-07  0.179E-03    9.17      11.0  T
   6    -50.7425675 -0.437167E-08  0.839E-04    9.17      23.4  T
speedup  0.89
cpu  time for SCC    0.00 s
wall time for SCC    0.01 s
speedup  0.95
cpu  time for grad    0.01 s
wall time for grad    0.01 s
 E :    -50.45519558  G :  0.020395    pred/act E change: -0.116D-02 -0.264D-03
Maxdispl :   0.0897   ||displ|| :   0.1360   Lambda : -0.828D-03
Largest |displ|/coords:  0.0897 (   4)  0.0576 (   6)  0.0551 (   1)
................................................................................
.............................. CYCLE   22 ......................................
................................................................................
   1    -50.7422835 -0.507423E+02  0.672E-02    9.19       0.0  T
   2    -50.7422866 -0.315058E-05  0.501E-02    9.19       1.0  T
   3    -50.7422886 -0.193454E-05  0.128E-02    9.19       1.5  T
   4    -50.7422890 -0.380564E-06  0.435E-03    9.19       4.5  T
   5    -50.7422890 -0.249707E-07  0.104E-03    9.19      18.8  T
speedup  1.06
cpu  time for SCC    0.00 s
wall time for SCC    0.00 s
speedup  1.03
cpu  time for grad    0.01 s
wall time for grad    0.01 s
 E :    -50.45572882  G :  0.011358    pred/act E change: -0.651D-03 -0.533D-03
Maxdispl :   0.1277   ||displ|| :   0.2111   Lambda : -0.947D-03
Largest |displ|/coords:  0.1277 (   1)  0.0601 (  18)  0.0589 (   3)
................................................................................
.............................. CYCLE   23 ......................................
................................................................................
   1    -50.7467789 -0.507468E+02  0.106E-01    9.14       0.0  T
   2    -50.7467868 -0.787371E-05  0.789E-02    9.14       1.0  T
   3    -50.7467918 -0.502649E-05  0.181E-02    9.15       1.1  T
   4    -50.7467929 -0.104092E-05  0.606E-03    9.15       3.2  T
   5    -50.7467929 -0.517306E-07  0.186E-03    9.15      10.6  T
   6    -50.7467929 -0.479058E-08  0.984E-04    9.15      19.9  T
speedup  0.91
cpu  time for SCC    0.00 s
wall time for SCC    0.01 s
speedup  0.96
cpu  time for grad    0.01 s
wall time for grad    0.01 s
 E :    -50.45606624  G :  0.016780    pred/act E change: -0.422D-03 -0.337D-03
Maxdispl :   0.1236   ||displ|| :   0.2145   Lambda : -0.679D-03
Largest |displ|/coords:  0.1236 (   1)  0.1069 (   4)  0.0569 (   6)
................................................................................
.............................. CYCLE   24 ......................................
................................................................................
   1    -50.7451395 -0.507451E+02  0.109E-01    9.18       0.0  T
   2    -50.7451494 -0.988755E-05  0.780E-02    9.17       1.0  T
   3    -50.7451527 -0.335541E-05  0.211E-02    9.16       1.0  T
   4    -50.7451537 -0.992172E-06  0.572E-03    9.16       3.4  T
   5    -50.7451538 -0.413382E-07  0.136E-03    9.16      14.5  T
   6    -50.7451538 -0.424092E-08  0.755E-04    9.16      26.0  T
speedup  0.89
cpu  time for SCC    0.00 s
wall time for SCC    0.01 s
speedup  0.97
cpu  time for grad    0.01 s
wall time for grad    0.01 s
 E :    -50.45652699  G :  0.010872    pred/act E change: -0.494D-03 -0.461D-03
Maxdispl :   0.1625   ||displ|| :   0.2626   Lambda : -0.568D-03
Largest |displ|/coords:  0.1625 (   1)  0.0826 (   6)  0.0657 (   4)
................................................................................
.............................. CYCLE   25 ......................................
................................................................................
   1    -50.7424096 -0.507424E+02  0.125E-01    9.14       0.0  T
   2    -50.7424150 -0.539244E-05  0.934E-02    9.14       1.0  T
   3    -50.7424178 -0.278338E-05  0.154E-02    9.14       1.3  T
   4    -50.7424186 -0.770631E-06  0.635E-03    9.14       3.1  T
   5    -50.7424186 -0.473667E-07  0.118E-03    9.14      16.6  T
   6    -50.7424186 -0.151946E-08  0.741E-04    9.14      26.5  T
speedup  0.89
cpu  time for SCC    0.00 s
wall time for SCC    0.01 s
speedup  0.96
cpu  time for grad    0.01 s
wall time for grad    0.01 s
 E :    -50.45681652  G :  0.010265    pred/act E change: -0.355D-03 -0.290D-03
Maxdispl :   0.1339   ||displ|| :   0.2058   Lambda : -0.374D-03
Largest |displ|/coords:  0.1339 (   1)  0.0654 (  16)  0.0529 (  18)

generating ANC from model Hessian ...
 Shifting diagonal of input Hessian by   5.069245367726347E-003
 Lowest  eigenvalues of input Hessian
    0.005000   -0.000000   -0.000000   -0.000000    0.000000    0.000000
    0.000000    0.005434    0.005854    0.006171    0.006649    0.007240
    0.008215    0.009608    0.010485    0.011170    0.011852    0.012856
 Highest eigenvalues
    1.406220    1.411857    1.450738    2.575604    3.505639    3.578050
 
cpu  time for ANC gen    0.02 s
wall time for ANC gen    0.02 s
................................................................................
.............................. CYCLE   26 ......................................
................................................................................
   1    -50.7457294 -0.507457E+02  0.107E-01    9.17       0.0  T
   2    -50.7457351 -0.572608E-05  0.796E-02    9.17       1.0  T
   3    -50.7457378 -0.263194E-05  0.153E-02    9.16       1.3  T
   4    -50.7457387 -0.881670E-06  0.478E-03    9.16       4.1  T
   5    -50.7457387 -0.296019E-07  0.129E-03    9.16      15.3  T
   6    -50.7457387 -0.316741E-08  0.739E-04    9.16      26.5  T
   7    -50.7457387 -0.104968E-08  0.289E-04    9.16      67.7  T
speedup  0.92
cpu  time for SCC    0.01 s
wall time for SCC    0.01 s
speedup  1.01
cpu  time for grad    0.01 s
wall time for grad    0.01 s
 E :    -50.45702120  G :  0.007450    pred/act E change:  0.000D+00 -0.205D-03
Maxdispl :   0.0934   ||displ|| :   0.2003   Lambda : -0.572D-03
Largest |displ|/coords:  0.0934 (   1)  0.0913 (   3)  0.0676 (   2)
................................................................................
.............................. CYCLE   27 ......................................
................................................................................
   1    -50.7457207 -0.507457E+02  0.103E-01    9.16       0.0  T
   2    -50.7457258 -0.510937E-05  0.776E-02    9.16       1.0  T
   3    -50.7457288 -0.302655E-05  0.123E-02    9.17       1.6  T
   4    -50.7457297 -0.859182E-06  0.297E-03    9.17       6.6  T
   5    -50.7457297 -0.209393E-07  0.134E-03    9.17      14.7  T
speedup  0.87
cpu  time for SCC    0.00 s
wall time for SCC    0.00 s
speedup  0.96
cpu  time for grad    0.01 s
wall time for grad    0.01 s
 E :    -50.45735778  G :  0.004620    pred/act E change:  0.000D+00 -0.337D-03
Maxdispl :   0.1155   ||displ|| :   0.2015   Lambda : -0.287D-03
Largest |displ|/coords:  0.1155 (   1)  0.0726 (   2)  0.0692 (   6)
................................................................................
.............................. CYCLE   28 ......................................
................................................................................
   1    -50.7455262 -0.507455E+02  0.112E-01    9.17       0.0  T
   2    -50.7455289 -0.271266E-05  0.839E-02    9.17       1.0  T
   3    -50.7455305 -0.159194E-05  0.906E-03    9.17       2.2  T
   4    -50.7455310 -0.475147E-06  0.270E-03    9.17       7.3  T
   5    -50.7455310 -0.146811E-07  0.115E-03    9.17      17.1  T
speedup  1.04
cpu  time for SCC    0.01 s
wall time for SCC    0.00 s
speedup  0.94
cpu  time for grad    0.01 s
wall time for grad    0.01 s
 E :    -50.45754120  G :  0.004752    pred/act E change: -0.298D-03 -0.183D-03
Maxdispl :   0.1543   ||displ|| :   0.2541   Lambda : -0.212D-03
Largest |displ|/coords:  0.1543 (   1)  0.1045 (   2)  0.0699 (   6)
................................................................................
.............................. CYCLE   29 ......................................
................................................................................
   1    -50.7447533 -0.507448E+02  0.136E-01    9.18       0.0  T
   2    -50.7447558 -0.249725E-05  0.102E-01    9.18       1.0  T
   3    -50.7447583 -0.244600E-05  0.869E-03    9.18       2.3  T
   4    -50.7447585 -0.265347E-06  0.319E-03    9.18       6.2  T
   5    -50.7447586 -0.117308E-07  0.119E-03    9.18      16.5  T
   6    -50.7447586 -0.206237E-08  0.506E-04    9.18      38.7  T
speedup  1.07
cpu  time for SCC    0.01 s
wall time for SCC    0.01 s
speedup  1.04
cpu  time for grad    0.01 s
wall time for grad    0.01 s
 E :    -50.45766706  G :  0.007035    pred/act E change: -0.149D-03 -0.126D-03
Maxdispl :   0.1497   ||displ|| :   0.2379   Lambda : -0.182D-03
Largest |displ|/coords:  0.1497 (   1)  0.0971 (   2)  0.0745 (   8)
................................................................................
.............................. CYCLE   30 ......................................
................................................................................
   1    -50.7446260 -0.507446E+02  0.113E-01    9.18       0.0  T
   2    -50.7446275 -0.151063E-05  0.850E-02    9.19       1.0  T
   3    -50.7446285 -0.925492E-06  0.858E-03    9.19       2.3  T
   4    -50.7446287 -0.249615E-06  0.271E-03    9.19       7.2  T
   5    -50.7446287 -0.831717E-08  0.804E-04    9.19      24.4  T
speedup  1.06
cpu  time for SCC    0.00 s
wall time for SCC    0.00 s
speedup  1.04
cpu  time for grad    0.01 s
wall time for grad    0.01 s
 E :    -50.45777997  G :  0.006997    pred/act E change: -0.113D-03 -0.113D-03
Maxdispl :   0.0900   ||displ|| :   0.1637   Lambda : -0.126D-03
Largest |displ|/coords:  0.0900 (   2)  0.0811 (   1)  0.0441 (   4)
................................................................................
.............................. CYCLE   31 ......................................
................................................................................
   1    -50.7458785 -0.507459E+02  0.662E-02    9.19       0.0  T
   2    -50.7458798 -0.124478E-05  0.499E-02    9.19       1.0  T
   3    -50.7458804 -0.658327E-06  0.709E-03    9.19       2.8  T
   4    -50.7458806 -0.214758E-06  0.225E-03    9.19       8.7  T
   5    -50.7458806 -0.911110E-08  0.637E-04    9.19      30.8  T
speedup  0.85
cpu  time for SCC    0.00 s
wall time for SCC    0.00 s
speedup  0.96
cpu  time for grad    0.01 s
wall time for grad    0.01 s
 E :    -50.45785842  G :  0.004290    pred/act E change: -0.963D-04 -0.784D-04
Maxdispl :   0.1005   ||displ|| :   0.1754   Lambda : -0.714D-04
Largest |displ|/coords:  0.1005 (   2)  0.0803 (   1)  0.0463 (   8)
................................................................................
.............................. CYCLE   32 ......................................
................................................................................
   1    -50.7456024 -0.507456E+02  0.954E-02    9.19       0.0  T
   2    -50.7456039 -0.147130E-05  0.723E-02    9.19       1.0  T
   3    -50.7456052 -0.131795E-05  0.704E-03    9.19       2.8  T
   4    -50.7456054 -0.181670E-06  0.268E-03    9.19       7.3  T
   5    -50.7456054 -0.796900E-08  0.743E-04    9.19      26.4  T
speedup  1.04
cpu  time for SCC    0.00 s
wall time for SCC    0.00 s
speedup  1.02
cpu  time for grad    0.01 s
wall time for grad    0.01 s
 E :    -50.45790555  G :  0.004423    pred/act E change: -0.648D-04 -0.471D-04
Maxdispl :   0.0789   ||displ|| :   0.1210   Lambda : -0.595D-04
Largest |displ|/coords:  0.0789 (   2)  0.0386 (   5)  0.0382 (   1)
................................................................................
.............................. CYCLE   33 ......................................
................................................................................
   1    -50.7462919 -0.507463E+02  0.685E-02    9.19       0.0  T
   2    -50.7462926 -0.763192E-06  0.517E-02    9.19       1.0  T
   3    -50.7462934 -0.762936E-06  0.553E-03    9.19       3.5  T
   4    -50.7462935 -0.727490E-07  0.218E-03    9.19       9.0  T
   5    -50.7462935 -0.410021E-08  0.508E-04    9.19      38.6  T
speedup  1.06
cpu  time for SCC    0.00 s
wall time for SCC    0.00 s
speedup  1.03
cpu  time for grad    0.01 s
wall time for grad    0.01 s
 E :    -50.45794277  G :  0.002419    pred/act E change: -0.368D-04 -0.372D-04
Maxdispl :   0.0944   ||displ|| :   0.1501   Lambda : -0.436D-04
Largest |displ|/coords:  0.0944 (   2)  0.0505 (   5)  0.0478 (   1)
................................................................................
.............................. CYCLE   34 ......................................
................................................................................
   1    -50.7455037 -0.507455E+02  0.985E-02    9.19       0.0  T
   2    -50.7455051 -0.137025E-05  0.744E-02    9.19       1.0  T
   3    -50.7455065 -0.140017E-05  0.690E-03    9.19       2.8  T
   4    -50.7455066 -0.129322E-06  0.218E-03    9.19       9.0  T
   5    -50.7455066 -0.562035E-08  0.808E-04    9.19      24.3  T
   6    -50.7455066 -0.816719E-09  0.439E-04    9.19      44.7  T
speedup  0.91
cpu  time for SCC    0.01 s
wall time for SCC    0.01 s
speedup  1.01
cpu  time for grad    0.01 s
wall time for grad    0.01 s
 E :    -50.45796402  G :  0.004996    pred/act E change: -0.302D-04 -0.212D-04
Maxdispl :   0.0470   ||displ|| :   0.0868   Lambda : -0.474D-04
Largest |displ|/coords:  0.0470 (   2)  0.0314 (   4)  0.0276 (   5)
................................................................................
.............................. CYCLE   35 ......................................
................................................................................
   1    -50.7461286 -0.507461E+02  0.497E-02    9.19       0.0  T
   2    -50.7461292 -0.615637E-06  0.370E-02    9.19       1.0  T
   3    -50.7461298 -0.590633E-06  0.563E-03    9.19       3.5  T
   4    -50.7461298 -0.612572E-07  0.146E-03    9.19      13.4  T
   5    -50.7461298 -0.605792E-08  0.510E-04    9.19      38.4  T
speedup  0.87
cpu  time for SCC    0.00 s
wall time for SCC    0.00 s
speedup  0.96
cpu  time for grad    0.01 s
wall time for grad    0.01 s
 E :    -50.45798985  G :  0.004119    pred/act E change: -0.223D-04 -0.258D-04
Maxdispl :   0.0567   ||displ|| :   0.1019   Lambda : -0.422D-04
Largest |displ|/coords:  0.0567 (   2)  0.0450 (   5)  0.0284 (  14)
................................................................................
.............................. CYCLE   36 ......................................
................................................................................
   1    -50.7458299 -0.507458E+02  0.745E-02    9.19       0.0  T
   2    -50.7458312 -0.137893E-05  0.559E-02    9.19       1.0  T
   3    -50.7458323 -0.105198E-05  0.743E-03    9.19       2.6  T
   4    -50.7458325 -0.181559E-06  0.174E-03    9.19      11.3  T
   5    -50.7458325 -0.654455E-08  0.667E-04    9.19      29.4  T
speedup  1.00
cpu  time for SCC    0.00 s
wall time for SCC    0.00 s
speedup  1.01
cpu  time for grad    0.01 s
wall time for grad    0.01 s
 E :    -50.45800834  G :  0.004619    pred/act E change: -0.239D-04 -0.185D-04
Maxdispl :   0.0539   ||displ|| :   0.0968   Lambda : -0.407D-04
Largest |displ|/coords:  0.0539 (   2)  0.0274 (   4)  0.0256 (   5)
................................................................................
.............................. CYCLE   37 ......................................
................................................................................
   1    -50.7457646 -0.507458E+02  0.659E-02    9.19       0.0  T
   2    -50.7457655 -0.860897E-06  0.495E-02    9.19       1.0  T
   3    -50.7457662 -0.738393E-06  0.596E-03    9.19       3.3  T
   4    -50.7457663 -0.103186E-06  0.156E-03    9.19      12.6  T
   5    -50.7457663 -0.509917E-08  0.529E-04    9.19      37.1  T
speedup  1.06
cpu  time for SCC    0.00 s
wall time for SCC    0.00 s
speedup  1.04
cpu  time for grad    0.01 s
wall time for grad    0.01 s
 E :    -50.45803323  G :  0.002677    pred/act E change: -0.213D-04 -0.249D-04
Maxdispl :   0.0618   ||displ|| :   0.1080   Lambda : -0.290D-04
Largest |displ|/coords:  0.0618 (   2)  0.0414 (   5)  0.0274 (   1)
................................................................................
.............................. CYCLE   38 ......................................
................................................................................
   1    -50.7451551 -0.507452E+02  0.743E-02    9.20       0.0  T
   2    -50.7451559 -0.866413E-06  0.560E-02    9.20       1.0  T
   3    -50.7451569 -0.994889E-06  0.568E-03    9.20       3.5  T
   4    -50.7451570 -0.596105E-07  0.135E-03    9.20      14.6  T
   5    -50.7451570 -0.421034E-08  0.623E-04    9.20      31.5  T
   6    -50.7451570 -0.696396E-09  0.298E-04    9.20      65.8  T
speedup  1.07
cpu  time for SCC    0.01 s
wall time for SCC    0.01 s
speedup  1.00
cpu  time for grad    0.01 s
wall time for grad    0.01 s
 E :    -50.45804832  G :  0.003557    pred/act E change: -0.205D-04 -0.151D-04
Maxdispl :   0.0651   ||displ|| :   0.0937   Lambda : -0.308D-04
Largest |displ|/coords:  0.0651 (   1)  0.0414 (   6)  0.0277 (   5)
................................................................................
.............................. CYCLE   39 ......................................
................................................................................
   1    -50.7461021 -0.507461E+02  0.485E-02    9.20       0.0  T
   2    -50.7461026 -0.521408E-06  0.364E-02    9.20       1.0  T
   3    -50.7461031 -0.494029E-06  0.444E-03    9.20       4.4  T
   4    -50.7461031 -0.525391E-07  0.120E-03    9.20      16.3  T
   5    -50.7461031 -0.266188E-08  0.432E-04    9.20      45.4  T
   6    -50.7461031 -0.311481E-09  0.241E-04    9.20      81.5  T
speedup  1.07
cpu  time for SCC    0.01 s
wall time for SCC    0.01 s
speedup  1.00
cpu  time for grad    0.01 s
wall time for grad    0.01 s
 E :    -50.45806218  G :  0.003355    pred/act E change: -0.147D-04 -0.139D-04
Maxdispl :   0.0626   ||displ|| :   0.1175   Lambda : -0.238D-04
Largest |displ|/coords:  0.0626 (   2)  0.0542 (   5)  0.0332 (   8)
................................................................................
.............................. CYCLE   40 ......................................
................................................................................
   1    -50.7454869 -0.507455E+02  0.832E-02    9.20       0.0  T
   2    -50.7454879 -0.101733E-05  0.627E-02    9.20       1.0  T
   3    -50.7454891 -0.116372E-05  0.632E-03    9.20       3.1  T
   4    -50.7454891 -0.667739E-07  0.176E-03    9.20      11.1  T
   5    -50.7454891 -0.410812E-08  0.596E-04    9.20      32.9  T
   6    -50.7454891 -0.394593E-09  0.337E-04    9.20      58.1  T
speedup  1.07
cpu  time for SCC    0.01 s
wall time for SCC    0.01 s
speedup  1.00
cpu  time for grad    0.01 s
wall time for grad    0.01 s
 E :    -50.45808004  G :  0.002368    pred/act E change: -0.155D-04 -0.179D-04
Maxdispl :   0.0796   ||displ|| :   0.1737   Lambda : -0.404D-04
Largest |displ|/coords:  0.0796 (   5)  0.0787 (   2)  0.0622 (   8)
................................................................................
.............................. CYCLE   41 ......................................
................................................................................
   1    -50.7451704 -0.507452E+02  0.118E-01    9.19       0.0  T
   2    -50.7451724 -0.204880E-05  0.891E-02    9.19       1.0  T
   3    -50.7451749 -0.249981E-05  0.909E-03    9.20       2.2  T
   4    -50.7451750 -0.109772E-06  0.307E-03    9.20       6.4  T
   5    -50.7451750 -0.103246E-07  0.820E-04    9.20      23.9  T
   6    -50.7451750 -0.513751E-09  0.497E-04    9.20      39.5  T
speedup  1.09
cpu  time for SCC    0.01 s
wall time for SCC    0.01 s
speedup  1.05
cpu  time for grad    0.01 s
wall time for grad    0.01 s
 E :    -50.45810600  G :  0.003447    pred/act E change: -0.121D-04 -0.260D-04
Maxdispl :   0.0558   ||displ|| :   0.1148   Lambda : -0.315D-04
Largest |displ|/coords:  0.0558 (   5)  0.0415 (   8)  0.0355 (   1)
................................................................................
.............................. CYCLE   42 ......................................
................................................................................
   1    -50.7455993 -0.507456E+02  0.772E-02    9.20       0.0  T
   2    -50.7456002 -0.964811E-06  0.581E-02    9.20       1.0  T
   3    -50.7456013 -0.112633E-05  0.618E-03    9.20       3.2  T
   4    -50.7456014 -0.598316E-07  0.204E-03    9.20       9.6  T
   5    -50.7456014 -0.460336E-08  0.476E-04    9.20      41.2  T
   6    -50.7456014 -0.192422E-09  0.285E-04    9.20      68.9  T
speedup  0.88
cpu  time for SCC    0.00 s
wall time for SCC    0.01 s
speedup  0.99
cpu  time for grad    0.01 s
wall time for grad    0.01 s
 E :    -50.45813143  G :  0.003935    pred/act E change: -0.208D-04 -0.254D-04
Maxdispl :   0.1218   ||displ|| :   0.2663   Lambda : -0.695D-04
Largest |displ|/coords:  0.1218 (   5)  0.1033 (   1)  0.0960 (   8)
................................................................................
.............................. CYCLE   43 ......................................
................................................................................
   1    -50.7456434 -0.507456E+02  0.182E-01    9.18       0.0  T
   2    -50.7456488 -0.545195E-05  0.137E-01    9.18       1.0  T
   3    -50.7456554 -0.654842E-05  0.155E-02    9.18       1.3  T
   4    -50.7456557 -0.302020E-06  0.461E-03    9.18       4.3  T
   5    -50.7456557 -0.257278E-07  0.123E-03    9.18      16.0  T
   6    -50.7456557 -0.157505E-08  0.678E-04    9.18      28.9  T
   7    -50.7456557 -0.516096E-09  0.156E-04    9.18     125.8  T
speedup  0.94
cpu  time for SCC    0.01 s
wall time for SCC    0.01 s
speedup  1.00
cpu  time for grad    0.01 s
wall time for grad    0.02 s
 E :    -50.45818295  G :  0.006226    pred/act E change: -0.160D-04 -0.515D-04
Maxdispl :   0.1065   ||displ|| :   0.2425   Lambda : -0.113D-03
Largest |displ|/coords:  0.1065 (   1)  0.0873 (   8)  0.0724 (   5)
................................................................................
.............................. CYCLE   44 ......................................
................................................................................
   1    -50.7484471 -0.507484E+02  0.156E-01    9.23       0.0  T
   2    -50.7484523 -0.524296E-05  0.117E-01    9.23       1.0  T
   3    -50.7484576 -0.521600E-05  0.160E-02    9.24       1.2  T
   4    -50.7484580 -0.483835E-06  0.555E-03    9.23       3.5  T
   5    -50.7484581 -0.287529E-07  0.112E-03    9.24      17.6  T
   6    -50.7484581 -0.121086E-08  0.641E-04    9.24      30.6  T
speedup  0.85
cpu  time for SCC    0.01 s
wall time for SCC    0.01 s
speedup  0.94
cpu  time for grad    0.01 s
wall time for grad    0.01 s
 E :    -50.45823313  G :  0.008991    pred/act E change: -0.372D-04 -0.502D-04
Maxdispl :   0.2005   ||displ|| :   0.4494   Lambda : -0.155D-03
Largest |displ|/coords:  0.2005 (   5)  0.1681 (   1)  0.1578 (   8)
................................................................................
.............................. CYCLE   45 ......................................
................................................................................
   1    -50.7427121 -0.507427E+02  0.321E-01    9.05       0.0  T
   2    -50.7427317 -0.195699E-04  0.240E-01    9.06       1.0  T
   3    -50.7427533 -0.215538E-04  0.332E-02    9.07       1.0  T
   4    -50.7427545 -0.126624E-05  0.752E-03    9.06       2.6  T
   5    -50.7427546 -0.863940E-07  0.243E-03    9.06       8.1  T
   6    -50.7427546 -0.765398E-08  0.129E-03    9.06      15.2  T
speedup  0.86
cpu  time for SCC    0.00 s
wall time for SCC    0.01 s
speedup  0.94
cpu  time for grad    0.01 s
wall time for grad    0.01 s
 E :    -50.45821325  G :  0.014888    pred/act E change: -0.598D-04  0.199D-04
Maxdispl :   0.1018   ||displ|| :   0.2156   Lambda : -0.383D-03
Largest |displ|/coords:  0.1018 (   5)  0.0812 (   1)  0.0753 (   8)
................................................................................
.............................. CYCLE   46 ......................................
................................................................................
   1    -50.7460256 -0.507460E+02  0.156E-01    9.27       0.0  T
   2    -50.7460310 -0.539418E-05  0.115E-01    9.27       1.0  T
   3    -50.7460358 -0.478808E-05  0.184E-02    9.26       1.1  T
   4    -50.7460362 -0.428635E-06  0.579E-03    9.26       3.4  T
   5    -50.7460363 -0.473745E-07  0.100E-03    9.26      19.5  T
   6    -50.7460363 -0.893600E-09  0.612E-04    9.26      32.0  T
speedup  1.09
cpu  time for SCC    0.01 s
wall time for SCC    0.01 s
speedup  1.04
cpu  time for grad    0.01 s
wall time for grad    0.01 s
 E :    -50.45837196  G :  0.005712    pred/act E change: -0.929D-04 -0.159D-03
Maxdispl :   0.0862   ||displ|| :   0.1338   Lambda : -0.139D-03
Largest |displ|/coords:  0.0862 (   1)  0.0430 (  37)  0.0375 (   8)
................................................................................
.............................. CYCLE   47 ......................................
................................................................................
   1    -50.7476000 -0.507476E+02  0.955E-02    9.27       0.0  T
   2    -50.7476029 -0.293840E-05  0.710E-02    9.27       1.0  T
   3    -50.7476051 -0.220427E-05  0.126E-02    9.28       1.6  T
   4    -50.7476054 -0.335309E-06  0.484E-03    9.27       4.0  T
   5    -50.7476055 -0.224904E-07  0.818E-04    9.27      24.0  T
   6    -50.7476055 -0.923031E-09  0.527E-04    9.27      37.2  T
speedup  0.91
cpu  time for SCC    0.01 s
wall time for SCC    0.01 s
speedup  0.96
cpu  time for grad    0.01 s
wall time for grad    0.01 s
 E :    -50.45845133  G :  0.005455    pred/act E change: -0.200D-03 -0.794D-04
Maxdispl :   0.1504   ||displ|| :   0.3062   Lambda : -0.166D-03
Largest |displ|/coords:  0.1504 (   1)  0.1175 (  37)  0.1015 (   8)
................................................................................
.............................. CYCLE   48 ......................................
................................................................................
   1    -50.7466919 -0.507467E+02  0.230E-01    9.23       0.0  T
   2    -50.7467037 -0.118329E-04  0.171E-01    9.23       1.0  T
   3    -50.7467152 -0.114538E-04  0.284E-02    9.24       1.0  T
   4    -50.7467161 -0.943092E-06  0.958E-03    9.23       2.0  T
   5    -50.7467162 -0.961697E-07  0.146E-03    9.23      13.5  T
   6    -50.7467162 -0.250530E-08  0.924E-04    9.23      21.2  T
speedup  1.09
cpu  time for SCC    0.01 s
wall time for SCC    0.01 s
speedup  1.04
cpu  time for grad    0.01 s
wall time for grad    0.01 s
 E :    -50.45858086  G :  0.007743    pred/act E change: -0.710D-04 -0.130D-03
Maxdispl :   0.1433   ||displ|| :   0.3347   Lambda : -0.186D-03
Largest |displ|/coords:  0.1433 (   1)  0.1352 (  37)  0.1142 (   8)
................................................................................
.............................. CYCLE   49 ......................................
................................................................................
   1    -50.7437808 -0.507438E+02  0.262E-01    9.16       0.0  T
   2    -50.7437974 -0.166005E-04  0.193E-01    9.17       1.0  T
   3    -50.7438122 -0.148645E-04  0.341E-02    9.17       1.0  T
   4    -50.7438137 -0.143806E-05  0.117E-02    9.17       1.7  T
   5    -50.7438138 -0.140175E-06  0.176E-03    9.17      11.1  T
   6    -50.7438138 -0.362964E-08  0.112E-03    9.17      17.4  T
speedup  1.09
cpu  time for SCC    0.01 s
wall time for SCC    0.01 s
speedup  1.04
cpu  time for grad    0.01 s
wall time for grad    0.01 s
 E :    -50.45865581  G :  0.012650    pred/act E change: -0.907D-04 -0.750D-04
Maxdispl :   0.0392   ||displ|| :   0.0977   Lambda : -0.256D-03
Largest |displ|/coords:  0.0392 (   3)  0.0337 (   5)  0.0321 (  20)
................................................................................
.............................. CYCLE   50 ......................................
................................................................................
   1    -50.7475440 -0.507475E+02  0.895E-02    9.31       0.0  T
   2    -50.7475471 -0.312053E-05  0.651E-02    9.31       1.0  T
   3    -50.7475489 -0.177838E-05  0.136E-02    9.31       1.4  T
   4    -50.7475491 -0.276321E-06  0.451E-03    9.31       4.3  T
   5    -50.7475492 -0.247603E-07  0.804E-04    9.31      24.4  T
   6    -50.7475492 -0.924551E-09  0.499E-04    9.31      39.3  T
speedup  0.89
cpu  time for SCC    0.00 s
wall time for SCC    0.01 s
speedup  0.95
cpu  time for grad    0.01 s
wall time for grad    0.01 s
 E :    -50.45877170  G :  0.006146    pred/act E change: -0.103D-03 -0.116D-03
Maxdispl :   0.0764   ||displ|| :   0.1346   Lambda : -0.119D-03
Largest |displ|/coords:  0.0764 (   1)  0.0426 (  37)  0.0398 (   6)
................................................................................
.............................. CYCLE   51 ......................................
................................................................................
   1    -50.7473450 -0.507473E+02  0.102E-01    9.31       0.0  T
   2    -50.7473479 -0.295599E-05  0.767E-02    9.31       1.0  T
   3    -50.7473501 -0.216491E-05  0.129E-02    9.31       1.5  T
   4    -50.7473505 -0.402001E-06  0.437E-03    9.31       4.5  T
   5    -50.7473505 -0.168625E-07  0.899E-04    9.31      21.8  T
   6    -50.7473505 -0.727432E-09  0.534E-04    9.31      36.8  T
speedup  1.09
cpu  time for SCC    0.01 s
wall time for SCC    0.01 s
speedup  1.02
cpu  time for grad    0.01 s
wall time for grad    0.01 s
 E :    -50.45885624  G :  0.004874    pred/act E change: -0.129D-03 -0.845D-04
Maxdispl :   0.2025   ||displ|| :   0.3320   Lambda : -0.184D-03
Largest |displ|/coords:  0.2025 (   1)  0.1321 (   6)  0.1011 (  37)
................................................................................
.............................. CYCLE   52 ......................................
................................................................................
   1    -50.7453049 -0.507453E+02  0.244E-01    9.19       0.0  T
   2    -50.7453196 -0.146979E-04  0.182E-01    9.19       1.0  T
   3    -50.7453307 -0.110460E-04  0.300E-02    9.20       1.0  T
   4    -50.7453325 -0.182759E-05  0.103E-02    9.20       1.9  T
   5    -50.7453326 -0.897583E-07  0.200E-03    9.20       9.8  T
   6    -50.7453326 -0.340229E-08  0.115E-03    9.20      17.0  T
speedup  0.88
cpu  time for SCC    0.00 s
wall time for SCC    0.01 s
speedup  0.95
cpu  time for grad    0.01 s
wall time for grad    0.01 s
 E :    -50.45890517  G :  0.011283    pred/act E change: -0.607D-04 -0.489D-04
Maxdispl :   0.0511   ||displ|| :   0.1123   Lambda : -0.144D-03
Largest |displ|/coords:  0.0511 (   1)  0.0421 (  37)  0.0384 (   8)

generating ANC from model Hessian ...
 Shifting diagonal of input Hessian by   4.901174618040085E-003
 Lowest  eigenvalues of input Hessian
   -0.000000   -0.000000   -0.000000   -0.000000    0.000000    0.000000
    0.005000    0.005365    0.005525    0.005874    0.006477    0.007294
    0.007809    0.009497    0.009836    0.010445    0.011442    0.012389
 Highest eigenvalues
    1.399289    1.405992    1.422500    2.534702    3.469501    3.615686
 
cpu  time for ANC gen    0.02 s
wall time for ANC gen    0.02 s
................................................................................
.............................. CYCLE   53 ......................................
................................................................................
   1    -50.7480063 -0.507480E+02  0.895E-02    9.28       0.0  T
   2    -50.7480088 -0.249051E-05  0.656E-02    9.28       1.0  T
   3    -50.7480106 -0.185093E-05  0.123E-02    9.27       1.6  T
   4    -50.7480108 -0.220184E-06  0.504E-03    9.27       3.9  T
   5    -50.7480109 -0.241450E-07  0.719E-04    9.28      27.3  T
   6    -50.7480109 -0.427384E-09  0.505E-04    9.28      38.8  T
speedup  1.05
cpu  time for SCC    0.01 s
wall time for SCC    0.01 s
speedup  1.04
cpu  time for grad    0.01 s
wall time for grad    0.01 s
 E :    -50.45896926  G :  0.005310    pred/act E change:  0.000D+00 -0.641D-04
Maxdispl :   0.0161   ||displ|| :   0.0367   Lambda : -0.445D-04
Largest |displ|/coords:  0.0161 (   2)  0.0148 (   4)  0.0119 (   9)
................................................................................
.............................. CYCLE   54 ......................................
................................................................................
   1    -50.7484239 -0.507484E+02  0.237E-02    9.29       0.0  T
   2    -50.7484241 -0.217690E-06  0.177E-02    9.29       1.1  T
   3    -50.7484242 -0.121595E-06  0.385E-03    9.29       5.1  T
   4    -50.7484242 -0.313179E-07  0.818E-04    9.29      24.0  T
   5    -50.7484242 -0.119785E-08  0.256E-04    9.29      76.5  T
speedup  1.04
cpu  time for SCC    0.00 s
wall time for SCC    0.00 s
speedup  1.02
cpu  time for grad    0.01 s
wall time for grad    0.01 s
 E :    -50.45900308  G :  0.002679    pred/act E change:  0.000D+00 -0.338D-04
Maxdispl :   0.0329   ||displ|| :   0.0753   Lambda : -0.507D-04
Largest |displ|/coords:  0.0329 (   2)  0.0213 (   4)  0.0210 (  10)
................................................................................
.............................. CYCLE   55 ......................................
................................................................................
   1    -50.7489176 -0.507489E+02  0.510E-02    9.32       0.0  T
   2    -50.7489181 -0.583671E-06  0.382E-02    9.32       1.0  T
   3    -50.7489185 -0.396943E-06  0.665E-03    9.32       2.9  T
   4    -50.7489186 -0.884505E-07  0.137E-03    9.32      14.3  T
   5    -50.7489186 -0.188848E-08  0.432E-04    9.32      45.4  T
   6    -50.7489186 -0.196671E-09  0.208E-04    9.32      94.1  T
speedup  1.05
cpu  time for SCC    0.01 s
wall time for SCC    0.01 s
speedup  0.97
cpu  time for grad    0.01 s
wall time for grad    0.01 s
 E :    -50.45903677  G :  0.002682    pred/act E change: -0.223D-04 -0.337D-04
Maxdispl :   0.0388   ||displ|| :   0.0835   Lambda : -0.323D-04
Largest |displ|/coords:  0.0388 (   2)  0.0318 (   9)  0.0275 (   4)
................................................................................
.............................. CYCLE   56 ......................................
................................................................................
   1    -50.7490528 -0.507491E+02  0.578E-02    9.34       0.0  T
   2    -50.7490534 -0.628060E-06  0.437E-02    9.34       1.0  T
   3    -50.7490541 -0.664474E-06  0.566E-03    9.34       3.5  T
   4    -50.7490542 -0.574451E-07  0.135E-03    9.34      14.5  T
   5    -50.7490542 -0.244520E-08  0.472E-04    9.34      41.6  T
   6    -50.7490542 -0.200181E-09  0.242E-04    9.34      81.1  T
speedup  0.89
cpu  time for SCC    0.00 s
wall time for SCC    0.01 s
speedup  0.99
cpu  time for grad    0.01 s
wall time for grad    0.01 s
 E :    -50.45905968  G :  0.003619    pred/act E change: -0.255D-04 -0.229D-04
Maxdispl :   0.0642   ||displ|| :   0.1352   Lambda : -0.457D-04
Largest |displ|/coords:  0.0642 (   2)  0.0483 (   9)  0.0418 (   7)
................................................................................
.............................. CYCLE   57 ......................................
................................................................................
   1    -50.7488775 -0.507489E+02  0.931E-02    9.35       0.0  T
   2    -50.7488789 -0.139712E-05  0.703E-02    9.35       1.0  T
   3    -50.7488804 -0.153006E-05  0.761E-03    9.35       2.6  T
   4    -50.7488805 -0.115173E-06  0.199E-03    9.35       9.8  T
   5    -50.7488805 -0.513129E-08  0.772E-04    9.35      25.4  T
   6    -50.7488805 -0.600252E-09  0.410E-04    9.35      47.8  T
speedup  1.02
cpu  time for SCC    0.01 s
wall time for SCC    0.01 s
speedup  0.97
cpu  time for grad    0.01 s
wall time for grad    0.01 s
 E :    -50.45908772  G :  0.004149    pred/act E change: -0.163D-04 -0.280D-04
Maxdispl :   0.0513   ||displ|| :   0.0952   Lambda : -0.334D-04
Largest |displ|/coords:  0.0513 (   2)  0.0329 (   9)  0.0241 (   7)
................................................................................
.............................. CYCLE   58 ......................................
................................................................................
   1    -50.7487785 -0.507488E+02  0.656E-02    9.33       0.0  T
   2    -50.7487794 -0.897868E-06  0.497E-02    9.34       1.0  T
   3    -50.7487804 -0.985395E-06  0.499E-03    9.34       3.9  T
   4    -50.7487805 -0.772050E-07  0.222E-03    9.34       8.8  T
   5    -50.7487805 -0.458044E-08  0.559E-04    9.34      35.1  T
speedup  1.02
cpu  time for SCC    0.00 s
wall time for SCC    0.00 s
speedup  1.00
cpu  time for grad    0.01 s
wall time for grad    0.01 s
 E :    -50.45911231  G :  0.003344    pred/act E change: -0.233D-04 -0.246D-04
Maxdispl :   0.0718   ||displ|| :   0.1190   Lambda : -0.416D-04
Largest |displ|/coords:  0.0718 (   2)  0.0356 (   9)  0.0341 (  37)
................................................................................
.............................. CYCLE   59 ......................................
................................................................................
   1    -50.7487694 -0.507488E+02  0.809E-02    9.31       0.0  T
   2    -50.7487712 -0.173591E-05  0.610E-02    9.31       1.0  T
   3    -50.7487726 -0.148793E-05  0.819E-03    9.31       2.4  T
   4    -50.7487729 -0.225849E-06  0.358E-03    9.31       5.5  T
   5    -50.7487729 -0.113114E-07  0.736E-04    9.31      26.7  T
   6    -50.7487729 -0.601830E-09  0.446E-04    9.31      44.0  T
speedup  1.00
cpu  time for SCC    0.01 s
wall time for SCC    0.01 s
speedup  1.01
cpu  time for grad    0.01 s
wall time for grad    0.01 s
 E :    -50.45914240  G :  0.002717    pred/act E change: -0.168D-04 -0.301D-04
Maxdispl :   0.0879   ||displ|| :   0.1397   Lambda : -0.432D-04
Largest |displ|/coords:  0.0879 (   2)  0.0473 (  37)  0.0359 (   7)
................................................................................
.............................. CYCLE   60 ......................................
................................................................................
   1    -50.7485186 -0.507485E+02  0.103E-01    9.27       0.0  T
   2    -50.7485216 -0.303235E-05  0.776E-02    9.28       1.0  T
   3    -50.7485238 -0.215612E-05  0.118E-02    9.28       1.7  T
   4    -50.7485242 -0.450110E-06  0.453E-03    9.28       4.3  T
   5    -50.7485242 -0.175946E-07  0.879E-04    9.28      22.3  T
   6    -50.7485242 -0.786457E-09  0.504E-04    9.28      38.9  T
speedup  1.07
cpu  time for SCC    0.01 s
wall time for SCC    0.01 s
speedup  0.99
cpu  time for grad    0.01 s
wall time for grad    0.01 s
 E :    -50.45917220  G :  0.002999    pred/act E change: -0.211D-04 -0.298D-04
Maxdispl :   0.0753   ||displ|| :   0.1348   Lambda : -0.514D-04
Largest |displ|/coords:  0.0753 (   2)  0.0544 (  37)  0.0449 (   4)
................................................................................
.............................. CYCLE   61 ......................................
................................................................................
   1    -50.7486074 -0.507486E+02  0.102E-01    9.26       0.0  T
   2    -50.7486114 -0.403506E-05  0.770E-02    9.26       1.0  T
   3    -50.7486133 -0.193161E-05  0.154E-02    9.26       1.3  T
   4    -50.7486140 -0.643683E-06  0.515E-03    9.26       3.8  T
   5    -50.7486140 -0.238742E-07  0.887E-04    9.26      22.1  T
   6    -50.7486140 -0.819938E-09  0.472E-04    9.26      41.5  T
speedup  1.09
cpu  time for SCC    0.01 s
wall time for SCC    0.01 s
speedup  1.06
cpu  time for grad    0.01 s
wall time for grad    0.01 s
 E :    -50.45920619  G :  0.003960    pred/act E change: -0.220D-04 -0.340D-04
Maxdispl :   0.0622   ||displ|| :   0.1157   Lambda : -0.591D-04
Largest |displ|/coords:  0.0622 (   4)  0.0454 (  37)  0.0330 (   8)
................................................................................
.............................. CYCLE   62 ......................................
................................................................................
   1    -50.7496215 -0.507496E+02  0.871E-02    9.28       0.0  T
   2    -50.7496253 -0.379706E-05  0.650E-02    9.29       1.0  T
   3    -50.7496265 -0.122190E-05  0.170E-02    9.29       1.2  T
   4    -50.7496271 -0.548578E-06  0.433E-03    9.29       4.5  T
   5    -50.7496271 -0.172931E-07  0.694E-04    9.29      28.2  T
   6    -50.7496271 -0.453362E-09  0.373E-04    9.29      52.5  T
speedup  0.91
cpu  time for SCC    0.00 s
wall time for SCC    0.01 s
speedup  0.99
cpu  time for grad    0.01 s
wall time for grad    0.01 s
 E :    -50.45924392  G :  0.005096    pred/act E change: -0.262D-04 -0.377D-04
Maxdispl :   0.0855   ||displ|| :   0.1716   Lambda : -0.668D-04
Largest |displ|/coords:  0.0855 (   2)  0.0829 (  37)  0.0625 (   4)
................................................................................
.............................. CYCLE   63 ......................................
................................................................................
   1    -50.7484484 -0.507484E+02  0.143E-01    9.29       0.0  T
   2    -50.7484540 -0.558252E-05  0.108E-01    9.30       1.0  T
   3    -50.7484572 -0.322963E-05  0.161E-02    9.30       1.2  T
   4    -50.7484582 -0.932316E-06  0.582E-03    9.30       3.4  T
   5    -50.7484582 -0.315636E-07  0.928E-04    9.30      21.1  T
   6    -50.7484582 -0.606292E-09  0.596E-04    9.30      32.9  T
speedup  0.91
cpu  time for SCC    0.00 s
wall time for SCC    0.01 s
speedup  0.96
cpu  time for grad    0.01 s
wall time for grad    0.01 s
 E :    -50.45926040  G :  0.009725    pred/act E change: -0.299D-04 -0.165D-04
Maxdispl :   0.0643   ||displ|| :   0.1185   Lambda : -0.116D-03
Largest |displ|/coords:  0.0643 (   2)  0.0364 (   6)  0.0359 (   9)
................................................................................
.............................. CYCLE   64 ......................................
................................................................................
   1    -50.7503915 -0.507504E+02  0.722E-02    9.38       0.0  T
   2    -50.7503930 -0.152185E-05  0.539E-02    9.38       1.0  T
   3    -50.7503941 -0.107986E-05  0.892E-03    9.37       2.2  T
   4    -50.7503943 -0.189684E-06  0.246E-03    9.37       8.0  T
   5    -50.7503943 -0.105918E-07  0.717E-04    9.37      27.4  T
speedup  1.06
cpu  time for SCC    0.00 s
wall time for SCC    0.00 s
speedup  1.02
cpu  time for grad    0.01 s
wall time for grad    0.01 s
 E :    -50.45931327  G :  0.005134    pred/act E change: -0.344D-04 -0.529D-04
Maxdispl :   0.0258   ||displ|| :   0.0510   Lambda : -0.389D-04
Largest |displ|/coords:  0.0258 (   2)  0.0226 (   7)  0.0190 (  37)
................................................................................
.............................. CYCLE   65 ......................................
................................................................................
   1    -50.7500902 -0.507501E+02  0.399E-02    9.36       0.0  T
   2    -50.7500905 -0.274847E-06  0.302E-02    9.36       1.0  T
   3    -50.7500908 -0.267550E-06  0.321E-03    9.36       6.1  T
   4    -50.7500908 -0.295339E-07  0.933E-04    9.36      21.0  T
   5    -50.7500908 -0.128512E-08  0.311E-04    9.36      63.2  T
speedup  0.87
cpu  time for SCC    0.00 s
wall time for SCC    0.00 s
speedup  1.01
cpu  time for grad    0.01 s
wall time for grad    0.01 s
 E :    -50.45934371  G :  0.003305    pred/act E change: -0.589D-04 -0.304D-04
Maxdispl :   0.0753   ||displ|| :   0.1454   Lambda : -0.687D-04
Largest |displ|/coords:  0.0753 (  37)  0.0691 (   2)  0.0472 (   7)
[...]
   1    -50.7502858 -0.507503E+02  0.196E-02    9.36       0.0  T
   2    -50.7502859 -0.953801E-07  0.147E-02    9.36       1.3  T
   3    -50.7502859 -0.449282E-07  0.231E-03    9.36       8.5  T
   4    -50.7502859 -0.169458E-07  0.724E-04    9.36      27.1  T
   5    -50.7502859 -0.509004E-09  0.150E-04    9.36     130.4  T
speedup  0.87
cpu  time for SCC    0.00 s
wall time for SCC    0.00 s
speedup  0.98
cpu  time for grad    0.01 s
wall time for grad    0.01 s
 E :    -50.45995923  G :  0.000835    pred/act E change: -0.131D-05 -0.216D-05
Maxdispl :   0.0167   ||displ|| :   0.0353   Lambda : -0.277D-05
Largest |displ|/coords:  0.0167 (   8)  0.0129 (  10)  0.0108 (   7)
................................................................................
.............................. CYCLE   97 ......................................
................................................................................
   1    -50.7502421 -0.507502E+02  0.246E-02    9.35       0.0  T
   2    -50.7502422 -0.114111E-06  0.184E-02    9.35       1.1  T
   3    -50.7502423 -0.796977E-07  0.255E-03    9.35       7.7  T
   4    -50.7502423 -0.173943E-07  0.851E-04    9.35      23.0  T
   5    -50.7502423 -0.667960E-09  0.196E-04    9.35      99.8  T
speedup  1.04
cpu  time for SCC    0.00 s
wall time for SCC    0.00 s
speedup  1.03
cpu  time for grad    0.01 s
wall time for grad    0.01 s
 E :    -50.45996129  G :  0.000998    pred/act E change: -0.149D-05 -0.206D-05
Maxdispl :   0.0197   ||displ|| :   0.0413   Lambda : -0.279D-05
Largest |displ|/coords:  0.0197 (   8)  0.0145 (  10)  0.0109 (   2)
................................................................................
.............................. CYCLE   98 ......................................
................................................................................
   1    -50.7502292 -0.507502E+02  0.278E-02    9.35       0.0  T
   2    -50.7502294 -0.137626E-06  0.208E-02    9.35       1.0  T
   3    -50.7502295 -0.113620E-06  0.289E-03    9.35       6.8  T
   4    -50.7502295 -0.176466E-07  0.101E-03    9.35      19.3  T
   5    -50.7502295 -0.104163E-08  0.232E-04    9.35      84.4  T
   6    -50.7502295 -0.446079E-10  0.158E-04    9.35     124.3  T
speedup  1.07
cpu  time for SCC    0.01 s
wall time for SCC    0.01 s
speedup  1.04
cpu  time for grad    0.01 s
wall time for grad    0.01 s
 E :    -50.45996331  G :  0.000949    pred/act E change: -0.139D-05 -0.202D-05
Maxdispl :   0.0160   ||displ|| :   0.0337   Lambda : -0.211D-05
Largest |displ|/coords:  0.0160 (   8)  0.0115 (   2)  0.0115 (  10)
................................................................................
.............................. CYCLE   99 ......................................
................................................................................
   1    -50.7502756 -0.507503E+02  0.216E-02    9.35       0.0  T
   2    -50.7502757 -0.962760E-07  0.161E-02    9.35       1.2  T
   3    -50.7502757 -0.740622E-07  0.255E-03    9.35       7.7  T
   4    -50.7502757 -0.119231E-07  0.937E-04    9.35      20.9  T
   5    -50.7502757 -0.876177E-09  0.194E-04    9.35     101.2  T
speedup  0.87
cpu  time for SCC    0.00 s
wall time for SCC    0.00 s
speedup  0.91
cpu  time for grad    0.01 s
wall time for grad    0.01 s
 E :    -50.45996479  G :  0.000604    pred/act E change: -0.140D-05 -0.147D-05
Maxdispl :   0.0084   ||displ|| :   0.0201   Lambda : -0.118D-05
Largest |displ|/coords:  0.0084 (   8)  0.0068 (  29)  0.0068 (  37)
................................................................................
.............................. CYCLE  100 ......................................
................................................................................
   1    -50.7503046 -0.507503E+02  0.149E-02    9.35       0.0  T
   2    -50.7503047 -0.638687E-07  0.109E-02    9.35       1.8  T
   3    -50.7503047 -0.325133E-07  0.217E-03    9.35       9.0  T
   4    -50.7503047 -0.838122E-08  0.773E-04    9.35      25.4  T
   5    -50.7503047 -0.476113E-09  0.131E-04    9.35     149.6  T
speedup  1.04
cpu  time for SCC    0.00 s
wall time for SCC    0.00 s
speedup  1.04
cpu  time for grad    0.01 s
wall time for grad    0.01 s
 E :    -50.45996561  G :  0.000343    pred/act E change: -0.106D-05 -0.822D-06
Maxdispl :   0.0064   ||displ|| :   0.0164   Lambda : -0.834D-06
Largest |displ|/coords:  0.0064 (  15)  0.0062 (   8)  0.0061 (   4)
................................................................................
.............................. CYCLE  101 ......................................
................................................................................
   1    -50.7503824 -0.507504E+02  0.115E-02    9.35       0.0  T
   2    -50.7503825 -0.254167E-07  0.842E-03    9.35       2.3  T
   3    -50.7503825 -0.227494E-07  0.132E-03    9.35      14.8  T
   4    -50.7503825 -0.221278E-08  0.504E-04    9.35      38.9  T
   5    -50.7503825 -0.266617E-09  0.102E-04    9.35     193.2  T
speedup  0.87
cpu  time for SCC    0.00 s
wall time for SCC    0.00 s
speedup  0.98
cpu  time for grad    0.01 s
wall time for grad    0.01 s
 E :    -50.45996606  G :  0.000513    pred/act E change: -0.591D-06 -0.450D-06
Maxdispl :   0.0087   ||displ|| :   0.0182   Lambda : -0.836D-06
Largest |displ|/coords:  0.0087 (  37)  0.0064 (  29)  0.0049 (  13)
................................................................................
.............................. CYCLE  102 ......................................
................................................................................
   1    -50.7502943 -0.507503E+02  0.161E-02    9.36       0.0  T
   2    -50.7502944 -0.939270E-07  0.118E-02    9.36       1.7  T
   3    -50.7502944 -0.394637E-07  0.271E-03    9.36       7.2  T
   4    -50.7502945 -0.124009E-07  0.838E-04    9.36      23.4  T
   5    -50.7502945 -0.514390E-09  0.125E-04    9.36     156.8  T
speedup  1.09
cpu  time for SCC    0.00 s
wall time for SCC    0.00 s
speedup  0.98
cpu  time for grad    0.01 s
wall time for grad    0.01 s
 E :    -50.45996634  G :  0.000557    pred/act E change: -0.417D-06 -0.276D-06
Maxdispl :   0.0038   ||displ|| :   0.0095   Lambda : -0.402D-06
Largest |displ|/coords:  0.0038 (  37)  0.0032 (   1)  0.0027 (  29)
................................................................................
.............................. CYCLE  103 ......................................
................................................................................
   1    -50.7503126 -0.507503E+02  0.832E-03    9.36       0.0  T
   2    -50.7503126 -0.178874E-07  0.620E-03    9.36       3.2  T
   3    -50.7503126 -0.110003E-07  0.109E-03    9.36      18.0  T
   4    -50.7503126 -0.262899E-08  0.357E-04    9.36      55.0  T
   5    -50.7503126 -0.111157E-09  0.710E-05    9.36     276.4  T
speedup  0.85
cpu  time for SCC    0.00 s
wall time for SCC    0.00 s
speedup  0.97
cpu  time for grad    0.01 s
wall time for grad    0.01 s
 E :    -50.45996661  G :  0.000233    pred/act E change: -0.418D-06 -0.275D-06
Maxdispl :   0.0037   ||displ|| :   0.0066   Lambda : -0.179D-06
Largest |displ|/coords:  0.0037 (   1)  0.0028 (  15)  0.0024 (  14)
................................................................................
.............................. CYCLE  104 ......................................
................................................................................
   1    -50.7503000 -0.507503E+02  0.512E-03    9.36       0.0  T
   2    -50.7503000 -0.487017E-08  0.387E-03    9.36       5.1  T
   3    -50.7503000 -0.490148E-08  0.421E-04    9.36      46.6  T
   4    -50.7503000 -0.542386E-09  0.156E-04    9.36     126.0  T
speedup  1.00
cpu  time for SCC    0.00 s
wall time for SCC    0.00 s
speedup  1.02
cpu  time for grad    0.01 s
wall time for grad    0.01 s
 E :    -50.45996673  G :  0.000119    pred/act E change: -0.201D-06 -0.124D-06
Maxdispl :   0.0037   ||displ|| :   0.0064   Lambda : -0.108D-06
Largest |displ|/coords:  0.0037 (   1)  0.0033 (   2)  0.0019 (  15)
................................................................................
.............................. CYCLE  105 ......................................
................................................................................
   1    -50.7502928 -0.507503E+02  0.412E-03    9.36       0.0  T
   2    -50.7502928 -0.259491E-08  0.311E-03    9.36       6.3  T
   3    -50.7502928 -0.240647E-08  0.328E-04    9.36      59.8  T
   4    -50.7502928 -0.336364E-09  0.109E-04    9.36     180.1  T
speedup  1.05
cpu  time for SCC    0.00 s
wall time for SCC    0.00 s
speedup  1.05
cpu  time for grad    0.01 s
wall time for grad    0.01 s
 E :    -50.45996682  G :  0.000120    pred/act E change: -0.894D-07 -0.852D-07
Maxdispl :   0.0064   ||displ|| :   0.0102   Lambda : -0.121D-06
Largest |displ|/coords:  0.0064 (   2)  0.0052 (   1)  0.0021 (  15)

   *** GEOMETRY OPTIMIZATION CONVERGED AFTER 105 ITERATIONS ***

------------------------------------------------------------------------
 total energy gain (kcal):     -0.0552
------------------------------------------------------------------------
================
 final structure:
================
$coord
       -0.42526909102248        3.52705357841869        2.53923732017419      S 
        1.91031613913456        4.74602488360747        1.81087666046396      O 
       -2.58981248946297        4.37300973845288        1.04343568725469      O 
       -0.28546555703123        0.79656242298147        2.60224746307538      O 
       -0.96973319961992        4.40027729269198        5.36889057628872      O 
       -0.78067629648494        6.18714750629716        5.27038347639250      H 
        2.13263452208947       -1.03755414734885        2.57796832284095      H 
       -3.74422539857855       -4.14250811967841        0.22012396585927      O 
       -4.66163544631699       -5.52381022844513       -0.50645644379607      H 
        0.91714813900444       -0.17751144366756       -4.22623432425222      O 
        1.34291246526028        0.41581626469859       -5.88253956838581      H 
        3.62301204996569       -2.15463655467381        2.38375319388413      O 
        3.99924088257921       -2.78210691445310        4.03924424122441      H 
        4.30633846139109        1.61790581529197       -1.23934252730291      O 
        3.54400628772157        2.94632817454742       -0.18678356797238      H 
        4.67625478700684        0.25370089958855       -0.07712876813122      H 
        2.24683062094186        0.55418470956559       -3.06470374792926      H 
        0.97997688419678       -4.66070513729226       -1.28430985181743      O 
        1.06923607115696       -3.37418289406315       -2.58052601909073      H 
        2.06318284188152       -4.03778685691372        0.07061709003255      H 
       -1.93217371102108       -4.47532530217054       -0.13551867285288      H 
       -3.52008880053880        0.50634957854946       -1.76806750452298      N 
       -3.24291937201470        2.07659233091105       -0.51129908389380      H 
       -3.75891648472003       -1.17246709424961       -0.73073071870359      H 
       -5.03420685011514        0.82647686308407       -2.90079516172120      H 
       -1.86596749318971        0.31116463427849       -2.83234205601280      H 
$end
 
 Bond Distances (Angstroems)
 ---------------------------
S1-O2=1.4464         S1-O3=1.4625         S1-O4=1.4472         S1-O5=1.5933         O2-S1=1.4464         O3-S1=1.4625         
O4-S1=1.4472         O5-S1=1.5933         O5-H6=0.9523         H6-O5=0.9523         H7-O12=0.9910        O8-H9=0.9580         
O8-H21=0.9929        H9-O8=0.9580         O10-H11=0.9579       O10-H17=1.0114       H11-O10=0.9579       O12-H7=0.9910        
O12-H13=0.9578       H13-O12=0.9578       O14-H15=0.9834       O14-H16=0.9684       H15-O14=0.9834       H16-O14=0.9684       
H17-O10=1.0114       O18-H19=0.9676       O18-H20=0.9754       H19-O18=0.9676       H20-O18=0.9754       H21-O8=0.9929        
N22-H23=1.0744       N22-H24=1.0519       N22-H25=1.0149       N22-H26=1.0460       H23-N22=1.0744       H24-N22=1.0519       
H25-N22=1.0149       H26-N22=1.0460       
 N  H  Rav=1.0468 sigma=0.0212  Rmin=1.0149  Rmax=1.0744     4
 O  H  Rav=0.9742 sigma=0.0177  Rmin=0.9523  Rmax=1.0114    11
 S  O  Rav=1.4874 sigma=0.0615  Rmin=1.4464  Rmax=1.5933     4
 
 selected bond angles (degree)
 --------------------
O3-S1-O2=112.86                O4-S1-O2=114.06                O4-S1-O3=110.98                O5-S1-O2=106.00                
O5-S1-O3=106.16                O5-S1-O4=106.09                H6-O5-S1=102.56                H21-O8-H9=106.14               
H17-O10-H11=105.48             
 
 selected dihedral angles (degree)
 ---------------------------------
H6-O5-S1-O2= 49.68            H6-O5-S1-O3=289.43            H6-O5-S1-O4=171.29            
 
 CMA Distance (Angstroems)
 ---------------------------
R(CMA):  3.3270

========================================================================
 FINAL SINGLEPOINT CALCULATION ON OPTIMIZED GEOMETRY
========================================================================

 Ncao       : 65
 Nao        : 64
 Nshell     : 38
 Nel        : 80
 T(el)      :   300.0
 intcut     :    25.0
 scfconv/Eh :  0.100E-05
   qconv/e  :  0.100E-03
 intneglect :  0.100E-07
 broydamp   :      0.250
 iter      E             dE          RMSdq      gap      omega  full diag
   1    -50.7502928 -0.507503E+02  0.234E-05    9.36       0.0  T
   2    -50.7502928 -0.100897E-11  0.150E-05    9.36    1303.6  T
   3    -50.7502928 -0.241585E-12  0.635E-06    9.36    3088.9  T
speedup  1.00
cpu  time for SCC    0.00 s
wall time for SCC    0.00 s

   *** convergence criteria satisfied after 3 iterations ***

          eigenvalues
 #    :          28         29         30         31         32         33         34         35
 occ. :        2.000      2.000      2.000      2.000      2.000      2.000      2.000      2.000
 eps  :       -13.324    -13.055    -12.432    -12.247    -12.148    -12.021    -11.914    -11.904
 #    :          36         37         38         39         40         41         42         43
 occ. :        2.000      2.000      2.000      2.000      2.000      0.000      0.000      0.000
 eps  :       -11.705    -11.697    -11.679    -11.630    -11.427     -2.071     -0.877     -0.205
 #    :          44         45         46         47         48         49         50         51
 occ. :        0.000      0.000      0.000      0.000      0.000      0.000      0.000      0.000
 eps  :         0.758      1.268      1.556      1.963      2.692      4.063      4.254      5.166


   #   Z            q   n(s)   n(p)   n(d)      C6AA      α(0)
   1  16 S      1.629  1.586  1.816  0.969    90.390    16.002
   2   8 O     -0.727  1.771  4.956  0.000    29.454     7.276
   3   8 O     -0.728  1.770  4.959  0.000    29.482     7.280
   4   8 O     -0.716  1.755  4.962  0.000    29.153     7.239
   5   8 O     -0.584  1.750  4.834  0.000    24.788     6.721
   6   1 H      0.340  0.660  0.000  0.000     0.604     1.216
   7   1 H      0.340  0.660  0.000  0.000     0.611     1.228
   8   8 O     -0.613  1.749  4.865  0.000    25.511     6.817
   9   1 H      0.280  0.720  0.000  0.000     0.783     1.390
  10   8 O     -0.638  1.750  4.888  0.000    26.123     6.898
  11   1 H      0.284  0.716  0.000  0.000     0.770     1.378
  12   8 O     -0.629  1.747  4.882  0.000    25.884     6.866
  13   1 H      0.284  0.716  0.000  0.000     0.771     1.379
  14   8 O     -0.623  1.752  4.871  0.000    25.753     6.849
  15   1 H      0.326  0.674  0.000  0.000     0.649     1.265
  16   1 H      0.321  0.679  0.000  0.000     0.661     1.277
  17   1 H      0.346  0.654  0.000  0.000     0.598     1.215
  18   8 O     -0.625  1.758  4.867  0.000    25.795     6.855
  19   1 H      0.312  0.688  0.000  0.000     0.687     1.302
  20   1 H      0.324  0.676  0.000  0.000     0.655     1.271
  21   1 H      0.339  0.661  0.000  0.000     0.615     1.232
  22   7 N     -0.348  1.277  4.071  0.000    28.941     7.990
  23   1 H      0.297  0.703  0.000  0.000     0.720     1.328
  24   1 H      0.299  0.701  0.000  0.000     0.716     1.326
  25   1 H      0.226  0.774  0.000  0.000     0.985     1.554
  26   1 H      0.285  0.715  0.000  0.000     0.760     1.366

 Mol. C6AA /au·bohr⁶  :       5439.884814
 Mol. C8AA /au·bohr⁸  :     117841.510695
 Mol. α(0) /au        :        106.522177

 
 Wiberg/Mayer (AO) data. WBOs > 0.1 written file <wbo>
 largest (>0.05) Wiberg bond orders for each atom
           total WBO             WBO to atom ...
     1  S   4.907    O    4 1.357    O    2 1.346    O    3 1.278    O    5 0.889
     2  O   1.737    S    1 1.346    O    4 0.114    O    3 0.109    O    5 0.078    H   15 0.063
     3  O   1.761    S    1 1.278    H   23 0.135    O    2 0.109    O    4 0.106    O    5 0.072    N   22 0.054
     4  O   1.750    S    1 1.357    O    2 0.114    O    3 0.106    H    7 0.074    O    5 0.061
     5  O   1.974    S    1 0.889    H    6 0.868    O    2 0.078    O    3 0.072    O    4 0.061
     6  H   0.884    O    5 0.868
     7  H   0.884    O   12 0.804    O    4 0.074
     8  O   1.888    H    9 0.915    H   21 0.800    H   24 0.089
     9  H   0.921    O    8 0.915
    10  O   1.882    H   11 0.910    H   17 0.758    H   26 0.083
    11  H   0.919    O   10 0.910
    12  O   1.858    H   13 0.911    H    7 0.804
    13  H   0.919    O   12 0.911
    14  O   1.916    H   16 0.869    H   15 0.826    H   17 0.120
    15  H   0.894    O   14 0.826    O    2 0.063
    16  H   0.897    O   14 0.869
    17  H   0.880    O   10 0.758    O   14 0.120
    18  O   1.885    H   19 0.874    H   20 0.846    H   21 0.084
    19  H   0.903    O   18 0.874
    20  H   0.895    O   18 0.846
    21  H   0.885    O    8 0.800    O   18 0.084
    22  N   3.522    H   25 0.946    H   26 0.831    H   24 0.816    H   23 0.768    O    3 0.054
    23  H   0.912    N   22 0.768    O    3 0.135
    24  H   0.911    N   22 0.816    O    8 0.089
    25  H   0.949    N   22 0.946
    26  H   0.919    N   22 0.831    O   10 0.083
 MOs/occ written to file <molden.input>
 
molecular dipole:
                 x           y           z       tot (Debye)
 q only:       -1.368      -0.864      -1.490
   full:       -1.263      -0.386      -1.060       4.304
molecular quadrupole (traceless):
                xx          xy          yy          xz          yz          zz
 q only:        2.286      -0.216      -8.284      10.380      -1.294       5.998
  q+dip:       -1.140      -0.081      -7.453      12.384       0.687       8.593
   full:       -1.481      -0.168      -7.507      12.570       0.902       8.988

SCC energy    :     -50.7502928
rep           :       0.2899526
ES            :       0.2670977
AES           :      -0.0687385
AXC           :      -0.0083354
disp          :      -0.0186769
XB            :       0.0000000
fix           :       0.0000000
total E       :     -50.4599668
atomizationE  :       4.9902710     3131.44
(atE without considering molecular charge,
 total energy contains solvation terms)
H-L gap (eV)  :          9.3563
optimized geometry written to: xtbopt.xyz


------------------------------------------------------------------------
 * finished run on 2019/09/16 at 12:43:08.815     
------------------------------------------------------------------------
 total:
 * wall-time:     0 d,  0 h,  0 min,  2.489 sec
 *  cpu-time:     0 d,  0 h,  0 min,  2.420 sec
 * ratio c/w:     0.972 speedup
 SCF:
 * wall-time:     0 d,  0 h,  0 min,  0.142 sec
 *  cpu-time:     0 d,  0 h,  0 min,  0.139 sec
 * ratio c/w:     0.977 speedup
 ANC optimizer:
 * wall-time:     0 d,  0 h,  0 min,  2.321 sec
 *  cpu-time:     0 d,  0 h,  0 min,  2.258 sec
 * ratio c/w:     0.973 speedup

