      -----------------------------------------------------------      
     |                   =====================                   |     
     |                           x T B                           |     
     |                   =====================                   |     
     |                         S. Grimme                         |     
     |          Mulliken Center for Theoretical Chemistry        |     
     |                    University of Bonn                     |     
     |                 Version 6.0.1 (SAW181210)                 |     
      -----------------------------------------------------------      

   This program is distributed in the hope that it will be useful,
   but WITHOUT ANY WARRANTY; without even the implied warranty of
   MERCHANTABILITY or FITNESS FOR A PARTICULAR PURPOSE.
   
   FOR NON-COMMERCIAL, ACADEMIA USE ONLY.
   
   Cite this work as:
   S. Grimme, C. Bannwarth, P. Shushkov, J. Comput. Theory Chem., 2017,
   13, 1989-2009.
   C. Bannwarth, S. Ehlert and S. Grimme., ChemRxiv, 2018, preprint.
   http://doi.org/10.26434/chemrxiv.7246238.v1
   
   for sTDA-xTB:
   S. Grimme and C. Bannwarth, J. Chem. Phys., 2016, 145, 054103.
   
   in the mass-spec context:
   V. Asgeirsson, C. Bauer and S. Grimme, Chem. Sci., 2017, 8, 4879.
   
   if GBSA is used:
   P. Shushkov, F. März and S. Grimme, unpublished.
   
   for ANC optimizer:
   S. Grimme, unpublished.
   Rational Function algorithm used in ANCopt:
   F. Eckert, P. Pulay, H.-J. Werner, J. Comput. Chem., 1997, 18, 1473.
   
   with help from (in alphabetical order)
   C. Bannwarth, F. Bohle, G. Brandenburg, E. Caldeweyher, M. Checinski,
   S. Dohm, S. Ehlert, S. Ehrlich, F. März, H. Neugebauer, J. Pisarek,
   P. Pracht, P. Shushkov, and S. Spicher.
   
 * started run on 2019/09/16 at 11:23:25.081     
========================================================================
 # omp threads = 1
========================================================================
number of atoms            : 26
number of electrons        : 80
charge                     : 0
spin                       : .0
first test random number   : .0165

########################################################################
# WARNING! Please study the warnings concerning your input carefully
#  - XTBPATH is not set, using XTBHOME instead
#  - the use of '-opt' is discouraged, please use '--opt' next time
#  - the use of '-chrg' is discouraged, please use '--chrg' next time
#  - the use of '-uhf' is discouraged, please use '--uhf' next time
########################################################################

           ------------------------------------------------- 
          |                 G F N 2 - x T B                 |
          | Geometry, Frequencies, Noncovalent interactions |
          |            JCTC 2018 parametrisation            |
           ------------------------------------------------- 
      method parameters     
 k(s)        :  1.8500
 k(p)        :  2.2300
 k(d)        :  2.2300
 k(f)        :  2.0000
 kEN (H0ij)  : -2.0000
 D4 a1       :  0.5200
 D4 a2       :  5.0000
 D4 s6       :  1.0000
 D4 s8       :  2.7000
 D4 s9       :  5.0000
 alphaj      :  2.0000


            Z     q(EN)     CN     RAES       Cart. coordinates
     1  S   6.0    0.61    4.50    4.57     1.32199    -2.50071    -0.94753
     2  O   6.0   -0.31    1.20    1.80     0.56388    -2.52557    -3.65913
     3  O   6.0   -0.31    1.21    1.80    -0.94895    -2.91102     0.66573
     4  O   6.0   -0.27    2.11    1.84     2.46609    -0.04704    -0.32864
     5  O   6.0   -0.25    2.10    1.84     3.16545    -4.52518    -0.48311
     6  H   1.0    0.15    1.29    1.49     4.71601    -3.80481     0.12347
     7  H   1.0    0.16    1.28    1.49     1.26248     1.27604    -0.63175
     8  O   6.0   -0.29    2.03    1.83    -5.42361    -1.76297     2.62573
     9  H   1.0    0.18    1.05    1.44    -3.80362    -2.23315     1.94077
    10  H   1.0    0.15    0.97    1.43    -6.32412    -3.32919     2.85075
    11  O   6.0   -0.26    1.94    1.82     0.41853     4.36963     3.13052
    12  H   1.0    0.16    1.00    1.43    -1.30993     3.89491     3.44940
    13  H   1.0    0.15    0.99    1.43     0.46732     4.86136     1.37825
    14  O   6.0   -0.30    2.06    1.83    -1.18795     3.19024    -1.69585
    15  H   1.0    0.17    1.03    1.43    -1.83398     2.67372    -3.31773
    16  H   1.0    0.16    1.02    1.43    -2.64186     3.27522    -0.60335
    17  O   6.0   -0.31    2.04    1.83    -4.59365     3.14183     2.14106
    18  H   1.0    0.17    1.05    1.44    -4.91410     1.36377     2.36565
    19  H   1.0    0.15    0.97    1.43    -6.12146     3.97727     2.67253
    20  O   6.0   -0.29    2.01    1.83    -2.58050     0.74982    -5.89446
    21  H   1.0    0.15    0.97    1.43    -3.39653     0.06386    -7.37033
    22  H   1.0    0.17    1.04    1.43    -1.48104    -0.57142    -5.29436
    23  N   5.0   -0.22    3.01    1.93     7.58108    -2.36701     1.47862
    24  H   1.0    0.11    0.99    1.43     7.33167    -0.58084     2.15571
    25  H   1.0    0.10    0.99    1.43     9.07850    -2.26434     0.27103
    26  H   1.0    0.10    0.99    1.43     8.18830    -3.41443     2.97704

  Z AO/shell   Hii/eV     exponent
  1     Wed Apr 25 08:07:45 CEST 2018   EN: 2.200 GM2: 0.406  GM3: 0.0800  RAES: 1.40
     1s    -10.707211    1.230000
  7     Wed Apr 25 08:07:45 CEST 2018   EN: 3.040 GM2: 0.461  GM3:-0.0640  RAES: 1.90
     2s    -16.686243    2.339881
     2p    -12.523956    2.014332
  8     Wed Apr 25 08:07:45 CEST 2018   EN: 3.440 GM2: 0.452  GM3:-0.0517  RAES: 1.80
     2s    -20.229985    2.439742
     2p    -15.503117    2.137023
 16     Tue Apr 24 11:44:34 CEST 2018   EN: 2.580 GM2: 0.340  GM3:-0.0502  RAES: 3.10
     3s    -20.029654    1.981333
     3p    -11.377694    2.025643
     3d     -0.420282    1.702555
 no old-style atom pair restraining (fixing) potential

molecular fragmentation (1/2 indicates fragments):
11111112222222222222222222
# atoms in fragment 1/2:     7    19
 fragment masses (1/2) :       98.07      107.11
CMA distance (Bohr)    :   4.571
constraining FC (au)   :  0.0500
           ------------------------------------------------- 
          |        Self-Consistent Charge Iterations        |
           ------------------------------------------------- 

 Ncao       : 65
 Nao        : 64
 Nshell     : 38
 Nel        : 80
 T(el)      :   300.0
 intcut     :    25.0
 scfconv/Eh :  0.100E-05
   qconv/e  :  0.100E-03
 intneglect :  0.100E-07
 broydamp   :      0.250
 iter      E             dE          RMSdq      gap      omega  full diag
   1    -50.6213260 -0.506213E+02  0.705E+00   10.19       0.0  T
   2    -50.6778524 -0.565264E-01  0.508E+00    9.83       1.0  T
   3    -50.7175955 -0.397431E-01  0.144E+00    8.01       1.0  T
   4    -50.7237657 -0.617018E-02  0.596E-01    8.32       1.0  T
   5    -50.7243651 -0.599446E-03  0.369E-01    8.26       1.0  T
   6    -50.7250443 -0.679167E-03  0.156E-01    8.36       1.0  T
   7    -50.7252016 -0.157312E-03  0.553E-02    8.34       1.0  T
   8    -50.7252167 -0.151093E-04  0.369E-02    8.33       1.0  T
   9    -50.7252258 -0.907739E-05  0.122E-02    8.35       1.6  T
  10    -50.7252268 -0.970865E-06  0.234E-03    8.36       8.4  T
  11    -50.7252268 -0.129885E-07  0.124E-03    8.36      15.8  T
  12    -50.7252268 -0.692312E-08  0.300E-04    8.36      65.3  T
  13    -50.7252268 -0.435747E-09  0.114E-04    8.36     172.0  T
speedup  0.98
cpu  time for SCC    0.01 s
wall time for SCC    0.02 s

   *** convergence criteria satisfied after 13 iterations ***

          eigenvalues
 #    :          28         29         30         31         32         33         34         35
 occ. :        2.000      2.000      2.000      2.000      2.000      2.000      2.000      2.000
 eps  :       -13.181    -12.625    -12.540    -12.306    -12.231    -11.956    -11.896    -11.874
 #    :          36         37         38         39         40         41         42         43
 occ. :        2.000      2.000      2.000      2.000      2.000      0.000      0.000      0.000
 eps  :       -11.666    -11.650    -11.577    -11.501    -10.889     -2.533     -1.201     -0.207
 #    :          44         45         46         47         48         49         50         51
 occ. :        0.000      0.000      0.000      0.000      0.000      0.000      0.000      0.000
 eps  :         0.593      0.611      0.826      2.146      3.387      4.334      4.383      4.448


   #   Z            q   n(s)   n(p)   n(d)      C6AA      α(0)
   1  16 S      1.693  1.574  1.785  0.948    88.933    15.872
   2   8 O     -0.718  1.772  4.947  0.000    29.212     7.247
   3   8 O     -0.722  1.768  4.955  0.000    29.316     7.259
   4   8 O     -0.573  1.716  4.857  0.000    24.520     6.685
   5   8 O     -0.544  1.712  4.833  0.000    23.864     6.595
   6   1 H      0.389  0.611  0.000  0.000     0.497     1.103
   7   1 H      0.423  0.577  0.000  0.000     0.437     1.034
   8   8 O     -0.614  1.733  4.881  0.000    25.535     6.820
   9   1 H      0.333  0.667  0.000  0.000     0.629     1.246
  10   1 H      0.285  0.715  0.000  0.000     0.769     1.378
  11   8 O     -0.617  1.749  4.868  0.000    25.590     6.828
  12   1 H      0.304  0.696  0.000  0.000     0.709     1.323
  13   1 H      0.292  0.708  0.000  0.000     0.744     1.355
  14   8 O     -0.651  1.749  4.902  0.000    26.441     6.940
  15   1 H      0.330  0.670  0.000  0.000     0.636     1.253
  16   1 H      0.331  0.669  0.000  0.000     0.635     1.251
  17   8 O     -0.611  1.740  4.871  0.000    25.462     6.810
  18   1 H      0.342  0.658  0.000  0.000     0.608     1.225
  19   1 H      0.284  0.716  0.000  0.000     0.770     1.378
  20   8 O     -0.616  1.737  4.878  0.000    25.566     6.824
  21   1 H      0.282  0.718  0.000  0.000     0.777     1.385
  22   1 H      0.325  0.675  0.000  0.000     0.651     1.268
  23   7 N     -0.450  1.393  4.057  0.000    31.814     8.377
  24   1 H      0.175  0.825  0.000  0.000     1.244     1.747
  25   1 H      0.164  0.836  0.000  0.000     1.310     1.793
  26   1 H      0.164  0.836  0.000  0.000     1.307     1.791

 Mol. C6AA /au·bohr⁶  :       5450.384743
 Mol. C8AA /au·bohr⁸  :     117614.365397
 Mol. α(0) /au        :        106.786135

 
 Wiberg/Mayer (AO) data. WBOs > 0.1 written file <wbo>
 largest (>0.05) Wiberg bond orders for each atom
           total WBO             WBO to atom ...
     1  S   4.834    O    2 1.336    O    3 1.336    O    5 1.065    O    4 1.051
     2  O   1.705    S    1 1.336    O    3 0.132    O    4 0.090    O    5 0.077
     3  O   1.695    S    1 1.336    O    2 0.132    O    4 0.090    O    5 0.077
     4  O   2.032    S    1 1.051    H    7 0.719    O    2 0.090    O    3 0.090
     5  O   2.061    S    1 1.065    H    6 0.753    O    2 0.077    O    3 0.077
     6  H   0.848    O    5 0.753    N   23 0.075
     7  H   0.821    O    4 0.719    O   14 0.076
     8  O   1.835    H   10 0.905    H    9 0.844
     9  H   0.889    O    8 0.844
    10  H   0.919    O    8 0.905
    11  O   1.814    H   13 0.900    H   12 0.881
    12  H   0.908    O   11 0.881
    13  H   0.914    O   11 0.900
    14  O   1.859    H   15 0.848    H   16 0.845    H    7 0.076
    15  H   0.891    O   14 0.848
    16  H   0.890    O   14 0.845
    17  O   1.864    H   19 0.911    H   18 0.834
    18  H   0.883    O   17 0.834
    19  H   0.919    O   17 0.911
    20  O   1.827    H   21 0.908    H   22 0.848
    21  H   0.920    O   20 0.908
    22  H   0.895    O   20 0.848
    23  N   3.015    H   26 0.971    H   25 0.971    H   24 0.967    H    6 0.075
    24  H   0.969    N   23 0.967
    25  H   0.973    N   23 0.971
    26  H   0.973    N   23 0.971
 MOs/occ written to file <molden.input>
 
molecular dipole:
                 x           y           z       tot (Debye)
 q only:        1.039      -0.499       0.285
   full:        1.308      -0.827       0.316       4.014
molecular quadrupole (traceless):
                xx          xy          yy          xz          yz          zz
 q only:       21.274      -8.578     -10.807       1.748      -5.313     -10.467
  q+dip:       29.729      -9.734     -16.692       3.238      -6.490     -13.037
   full:       29.937     -10.006     -16.376       3.210      -6.489     -13.561

SCC energy    :     -50.7252268
rep           :       0.3158293
ES            :       0.2461902
AES           :      -0.0481358
AXC           :      -0.0068426
disp          :      -0.0163564
XB            :       0.0000000
fix           :       0.0000000
total E       :     -50.4091573
atomizationE  :       4.9394615     3099.56
(atE without considering molecular charge,
 total energy contains solvation terms)
H-L gap (eV)  :          8.3564
           ------------------------------------------------- 
          |                 ===============                 |
          |                   A N C O P T                   |
          |                 ===============                 |
          |          Approximate Normal Coordinate          |
          |           Rational Function Optimizer           |
           ------------------------------------------------- 
dumping coords to <xtbopt.coord> and <xtbopt.log>
 optlevel               2
 Maxcycle             520
 Maxmicro              25
 Econv         1.000000000000000E-007
 Gconv         2.000000000000000E-004
 Maxdispl       1.00000000000000     
 Hlow          5.000000000000000E-003
 S6             20.0000000000000     
 Nvar               72

generating ANC from model Hessian ...
 Shifting diagonal of input Hessian by   5.195771647430542E-003
 Lowest  eigenvalues of input Hessian
    0.005000    0.005160   -0.000000   -0.000000    0.000000    0.000000
    0.000000    0.000000    0.005312    0.005346    0.005482    0.005665
    0.005798    0.006030    0.006246    0.006470    0.006700    0.007080
 Highest eigenvalues
    1.433863    1.453236    1.554708    3.215238    3.413362    3.461914
 
cpu  time for ANC gen    0.01 s
wall time for ANC gen    0.01 s
................................................................................
.............................. CYCLE    1 ......................................
................................................................................
   1    -50.7252268 -0.507252E+02  0.748E-05    8.36       0.0  T
   2    -50.7252268 -0.134506E-10  0.579E-05    8.36     338.8  T
   3    -50.7252268 -0.126406E-10  0.337E-05    8.36     582.1  T
speedup  1.07
cpu  time for SCC    0.00 s
wall time for SCC    0.00 s
speedup  1.02
cpu  time for grad    0.01 s
wall time for grad    0.01 s
 E :    -50.40915729  G :  0.184395    pred/act E change:  0.000D+00  0.371D-07
Maxdispl :   0.1204   ||displ|| :   0.3187   Lambda : -0.163D-01
Largest |displ|/coords:  0.1204 (  31)  0.1195 (  26)  0.1133 (  22)
................................................................................
.............................. CYCLE    2 ......................................
................................................................................
   1    -50.7284162 -0.507284E+02  0.238E-01    8.30       0.0  T
   2    -50.7286254 -0.209152E-03  0.189E-01    8.33       1.0  T
   3    -50.7286884 -0.630834E-04  0.126E-01    8.35       1.0  T
   4    -50.7286967 -0.820814E-05  0.248E-02    8.38       1.0  T
   5    -50.7286975 -0.827048E-06  0.425E-03    8.37       4.6  T
   6    -50.7286975 -0.239069E-07  0.260E-03    8.37       7.5  T
speedup  1.15
cpu  time for SCC    0.01 s
wall time for SCC    0.01 s
speedup  1.03
cpu  time for grad    0.01 s
wall time for grad    0.01 s
 E :    -50.42237550  G :  0.119799    pred/act E change:  0.000D+00 -0.132D-01
Maxdispl :   0.1545   ||displ|| :   0.3213   Lambda : -0.986D-02
Largest |displ|/coords:  0.1545 (  26)  0.1111 (  24)  0.1088 (  22)
................................................................................
.............................. CYCLE    3 ......................................
................................................................................
   1    -50.7336011 -0.507336E+02  0.202E-01    8.33       0.0  T
   2    -50.7338446 -0.243524E-03  0.164E-01    8.36       1.0  T
   3    -50.7339061 -0.615063E-04  0.125E-01    8.38       1.0  T
   4    -50.7339163 -0.101239E-04  0.243E-02    8.42       1.0  T
   5    -50.7339168 -0.529185E-06  0.396E-03    8.42       5.0  T
   6    -50.7339168 -0.208829E-07  0.223E-03    8.42       8.8  T
speedup  0.96
cpu  time for SCC    0.00 s
wall time for SCC    0.01 s
speedup  1.03
cpu  time for grad    0.01 s
wall time for grad    0.01 s
 E :    -50.42998802  G :  0.063685    pred/act E change: -0.896D-02 -0.761D-02
Maxdispl :   0.1110   ||displ|| :   0.3042   Lambda : -0.415D-02
Largest |displ|/coords:  0.1110 (  26)  0.1105 (  21)  0.1061 (  22)
................................................................................
.............................. CYCLE    4 ......................................
................................................................................
   1    -50.7348724 -0.507349E+02  0.165E-01    8.30       0.0  T
   2    -50.7350030 -0.130572E-03  0.134E-01    8.33       1.0  T
   3    -50.7350394 -0.364332E-04  0.929E-02    8.36       1.0  T
   4    -50.7350438 -0.440159E-05  0.192E-02    8.38       1.0  T
   5    -50.7350441 -0.319251E-06  0.307E-03    8.38       6.4  T
   6    -50.7350441 -0.133420E-07  0.180E-03    8.38      10.9  T
speedup  0.94
cpu  time for SCC    0.00 s
wall time for SCC    0.01 s
speedup  1.02
cpu  time for grad    0.01 s
wall time for grad    0.01 s
 E :    -50.43302539  G :  0.030303    pred/act E change: -0.544D-02 -0.304D-02
Maxdispl :   0.2072   ||displ|| :   0.4310   Lambda : -0.268D-02
Largest |displ|/coords:  0.2072 (   4)  0.1782 (   5)  0.1313 (  21)
................................................................................
.............................. CYCLE    5 ......................................
................................................................................
   1    -50.7333524 -0.507334E+02  0.304E-01    8.24       0.0  T
   2    -50.7334639 -0.111535E-03  0.237E-01    8.25       1.0  T
   3    -50.7334929 -0.289644E-04  0.802E-02    8.29       1.0  T
   4    -50.7335077 -0.148919E-04  0.234E-02    8.30       1.0  T
   5    -50.7335083 -0.584385E-06  0.288E-03    8.29       6.8  T
   6    -50.7335083 -0.765233E-08  0.182E-03    8.29      10.8  T
speedup  0.96
cpu  time for SCC    0.00 s
wall time for SCC    0.01 s
speedup  0.88
cpu  time for grad    0.01 s
wall time for grad    0.01 s
 E :    -50.43451546  G :  0.019037    pred/act E change: -0.227D-02 -0.149D-02
Maxdispl :   0.1967   ||displ|| :   0.4880   Lambda : -0.200D-02
Largest |displ|/coords:  0.1967 (   5)  0.1756 (   4)  0.1597 (   7)
................................................................................
.............................. CYCLE    6 ......................................
................................................................................
   1    -50.7309934 -0.507310E+02  0.447E-01    8.11       0.0  T
   2    -50.7310561 -0.627047E-04  0.342E-01    8.12       1.0  T
   3    -50.7310943 -0.381360E-04  0.452E-02    8.15       1.0  T
   4    -50.7311053 -0.110257E-04  0.231E-02    8.15       1.0  T
   5    -50.7311059 -0.591116E-06  0.370E-03    8.15       5.3  T
   6    -50.7311059 -0.849194E-08  0.229E-03    8.15       8.6  T
   7    -50.7311059 -0.734081E-08  0.605E-04    8.15      32.4  T
speedup  0.98
cpu  time for SCC    0.01 s
wall time for SCC    0.01 s
speedup  0.96
cpu  time for grad    0.01 s
wall time for grad    0.01 s
 E :    -50.43463469  G :  0.031182    pred/act E change: -0.159D-02 -0.119D-03
Maxdispl :   0.1053   ||displ|| :   0.2192   Lambda : -0.158D-02
Largest |displ|/coords:  0.1053 (   4)  0.1040 (  12)  0.0857 (   5)
................................................................................
.............................. CYCLE    7 ......................................
................................................................................
   1    -50.7319885 -0.507320E+02  0.273E-01    8.17       0.0  T
   2    -50.7320059 -0.174545E-04  0.209E-01    8.16       1.0  T
   3    -50.7320198 -0.138847E-04  0.215E-02    8.16       1.0  T
   4    -50.7320223 -0.253996E-05  0.884E-03    8.16       2.2  T
   5    -50.7320224 -0.819014E-07  0.220E-03    8.16       8.9  T
   6    -50.7320224 -0.860062E-09  0.104E-03    8.16      18.9  T
speedup  0.94
cpu  time for SCC    0.00 s
wall time for SCC    0.01 s
speedup  1.02
cpu  time for grad    0.01 s
wall time for grad    0.01 s
 E :    -50.43566269  G :  0.018512    pred/act E change: -0.124D-02 -0.103D-02
Maxdispl :   0.1897   ||displ|| :   0.3721   Lambda : -0.116D-02
Largest |displ|/coords:  0.1897 (   4)  0.1713 (   5)  0.1479 (  12)
................................................................................
.............................. CYCLE    8 ......................................
................................................................................
   1    -50.7301545 -0.507302E+02  0.379E-01    8.25       0.0  T
   2    -50.7301934 -0.388380E-04  0.289E-01    8.24       1.0  T
   3    -50.7302220 -0.286321E-04  0.359E-02    8.23       1.0  T
   4    -50.7302276 -0.558645E-05  0.106E-02    8.24       1.8  T
   5    -50.7302279 -0.282537E-06  0.323E-03    8.25       6.1  T
   6    -50.7302279  0.111579E-08  0.173E-03    8.25      11.3  T
   7    -50.7302279 -0.472799E-08  0.280E-04    8.25      70.0  T
speedup  0.98
cpu  time for SCC    0.01 s
wall time for SCC    0.01 s
speedup  0.96
cpu  time for grad    0.01 s
wall time for grad    0.01 s
 E :    -50.43587188  G :  0.025011    pred/act E change: -0.828D-03 -0.209D-03
Maxdispl :   0.1833   ||displ|| :   0.3041   Lambda : -0.131D-02
Largest |displ|/coords:  0.1833 (   5)  0.1772 (   4)  0.0716 (  12)
................................................................................
.............................. CYCLE    9 ......................................
................................................................................
   1    -50.7343459 -0.507343E+02  0.254E-01    8.26       0.0  T
   2    -50.7343688 -0.229515E-04  0.191E-01    8.26       1.0  T
   3    -50.7343847 -0.159298E-04  0.275E-02    8.28       1.0  T
   4    -50.7343879 -0.313693E-05  0.829E-03    8.27       2.4  T
   5    -50.7343880 -0.143567E-06  0.316E-03    8.27       6.2  T
   6    -50.7343880 -0.361949E-08  0.158E-03    8.27      12.4  T
speedup  0.94
cpu  time for SCC    0.00 s
wall time for SCC    0.01 s
speedup  1.02
cpu  time for grad    0.01 s
wall time for grad    0.01 s
 E :    -50.43638266  G :  0.013027    pred/act E change: -0.660D-03 -0.511D-03
Maxdispl :   0.1657   ||displ|| :   0.3651   Lambda : -0.104D-02
Largest |displ|/coords:  0.1657 (   4)  0.1603 (  15)  0.1456 (   5)
................................................................................
.............................. CYCLE   10 ......................................
................................................................................
   1    -50.7254199 -0.507254E+02  0.357E-01    8.13       0.0  T
   2    -50.7254562 -0.363211E-04  0.270E-01    8.15       1.0  T
   3    -50.7254851 -0.289178E-04  0.335E-02    8.21       1.0  T
   4    -50.7254897 -0.454620E-05  0.115E-02    8.19       1.7  T
   5    -50.7254898 -0.187000E-06  0.334E-03    8.18       5.9  T
   6    -50.7254899 -0.624470E-08  0.188E-03    8.18      10.4  T
   7    -50.7254899 -0.704766E-08  0.364E-04    8.18      53.8  T
speedup  0.98
cpu  time for SCC    0.01 s
wall time for SCC    0.01 s
speedup  0.96
cpu  time for grad    0.01 s
wall time for grad    0.01 s
 E :    -50.43642435  G :  0.028125    pred/act E change: -0.714D-03 -0.417D-04
Maxdispl :   0.1139   ||displ|| :   0.2110   Lambda : -0.137D-02
Largest |displ|/coords:  0.1139 (   4)  0.0858 (  15)  0.0745 (  14)
................................................................................
.............................. CYCLE   11 ......................................
................................................................................
   1    -50.7323307 -0.507323E+02  0.212E-01    8.30       0.0  T
   2    -50.7323510 -0.203669E-04  0.160E-01    8.28       1.0  T
   3    -50.7323640 -0.129347E-04  0.263E-02    8.25       1.0  T
   4    -50.7323669 -0.296272E-05  0.500E-03    8.27       3.9  T
   5    -50.7323670 -0.405997E-07  0.239E-03    8.27       8.2  T
speedup  1.14
cpu  time for SCC    0.00 s
wall time for SCC    0.00 s
speedup  1.01
cpu  time for grad    0.01 s
wall time for grad    0.01 s
 E :    -50.43706417  G :  0.011956    pred/act E change: -0.591D-03 -0.640D-03
Maxdispl :   0.2258   ||displ|| :   0.3183   Lambda : -0.629D-03
Largest |displ|/coords:  0.2258 (   4)  0.1237 (   5)  0.0893 (   8)
................................................................................
.............................. CYCLE   12 ......................................
................................................................................
   1    -50.7334831 -0.507335E+02  0.180E-01    8.35       0.0  T
   2    -50.7334904 -0.729895E-05  0.136E-01    8.35       1.0  T
   3    -50.7334969 -0.655611E-05  0.153E-02    8.37       1.3  T
   4    -50.7334978 -0.834914E-06  0.480E-03    8.37       4.1  T
   5    -50.7334978 -0.227672E-07  0.185E-03    8.37      10.6  T
   6    -50.7334978 -0.395011E-08  0.930E-04    8.37      21.1  T
speedup  0.96
cpu  time for SCC    0.01 s
wall time for SCC    0.01 s
speedup  0.94
cpu  time for grad    0.01 s
wall time for grad    0.01 s
 E :    -50.43735461  G :  0.012877    pred/act E change: -0.716D-03 -0.290D-03
Maxdispl :   0.3238   ||displ|| :   0.4512   Lambda : -0.673D-03
Largest |displ|/coords:  0.3238 (   4)  0.1729 (   5)  0.0915 (   8)
................................................................................
.............................. CYCLE   13 ......................................
................................................................................
   1    -50.7292828 -0.507293E+02  0.268E-01    8.41       0.0  T
   2    -50.7292983 -0.155331E-04  0.200E-01    8.41       1.0  T
   3    -50.7293125 -0.142120E-04  0.220E-02    8.41       1.0  T
   4    -50.7293139 -0.130896E-05  0.767E-03    8.42       2.6  T
   5    -50.7293139 -0.431963E-07  0.291E-03    8.42       6.8  T
   6    -50.7293139 -0.128235E-07  0.114E-03    8.42      17.2  T
speedup  0.94
cpu  time for SCC    0.00 s
wall time for SCC    0.01 s
speedup  0.94
cpu  time for grad    0.01 s
wall time for grad    0.01 s
 E :    -50.43765408  G :  0.020138    pred/act E change: -0.346D-03 -0.299D-03
Maxdispl :   0.2899   ||displ|| :   0.4206   Lambda : -0.104D-02
Largest |displ|/coords:  0.2899 (   4)  0.1342 (   7)  0.0933 (  15)
................................................................................
.............................. CYCLE   14 ......................................
................................................................................
   1    -50.7301367 -0.507301E+02  0.213E-01    8.43       0.0  T
   2    -50.7301514 -0.147403E-04  0.159E-01    8.43       1.0  T
   3    -50.7301633 -0.118439E-04  0.250E-02    8.44       1.0  T
   4    -50.7301650 -0.173101E-05  0.786E-03    8.44       2.5  T
   5    -50.7301651 -0.100535E-06  0.287E-03    8.43       6.8  T
   6    -50.7301651 -0.946260E-08  0.159E-03    8.43      12.3  T
speedup  0.96
cpu  time for SCC    0.01 s
wall time for SCC    0.01 s
speedup  0.94
cpu  time for grad    0.01 s
wall time for grad    0.01 s
 E :    -50.43812346  G :  0.017464    pred/act E change: -0.405D-03 -0.469D-03
Maxdispl :   0.2363   ||displ|| :   0.3797   Lambda : -0.107D-02
Largest |displ|/coords:  0.2363 (   4)  0.1262 (   1)  0.1018 (   3)
................................................................................
.............................. CYCLE   15 ......................................
................................................................................
   1    -50.7397122 -0.507397E+02  0.233E-01    8.48       0.0  T
   2    -50.7397473 -0.350507E-04  0.172E-01    8.48       1.0  T
   3    -50.7397668 -0.194924E-04  0.361E-02    8.48       1.0  T
   4    -50.7397713 -0.451384E-05  0.860E-03    8.48       2.3  T
   5    -50.7397715 -0.161668E-06  0.339E-03    8.48       5.8  T
   6    -50.7397715 -0.976029E-08  0.174E-03    8.48      11.2  T
   7    -50.7397715 -0.574762E-08  0.450E-04    8.48      43.6  T
speedup  0.97
cpu  time for SCC    0.01 s
wall time for SCC    0.01 s
speedup  0.95
cpu  time for grad    0.01 s
wall time for grad    0.01 s
 E :    -50.43749218  G :  0.039437    pred/act E change: -0.611D-03  0.631D-03
Maxdispl :   0.1432   ||displ|| :   0.2375   Lambda : -0.244D-02
Largest |displ|/coords:  0.1432 (   4)  0.1009 (  10)  0.0871 (  19)
................................................................................
.............................. CYCLE   16 ......................................
................................................................................
   1    -50.7344411 -0.507344E+02  0.245E-01    8.51       0.0  T
   2    -50.7344683 -0.272382E-04  0.183E-01    8.51       1.0  T
   3    -50.7344850 -0.166607E-04  0.290E-02    8.51       1.0  T
   4    -50.7344886 -0.361776E-05  0.836E-03    8.51       2.3  T
   5    -50.7344887 -0.867522E-07  0.315E-03    8.51       6.2  T
   6    -50.7344887 -0.639508E-08  0.149E-03    8.51      13.1  T
speedup  0.94
cpu  time for SCC    0.00 s
wall time for SCC    0.01 s
speedup  1.02
cpu  time for grad    0.01 s
wall time for grad    0.01 s
 E :    -50.43848501  G :  0.021644    pred/act E change: -0.612D-03 -0.993D-03
Maxdispl :   0.1409   ||displ|| :   0.3453   Lambda : -0.169D-02
Largest |displ|/coords:  0.1409 (   4)  0.1272 (  18)  0.1178 (  16)
................................................................................
.............................. CYCLE   17 ......................................
................................................................................
   1    -50.7244335 -0.507244E+02  0.339E-01    8.44       0.0  T
   2    -50.7245004 -0.668901E-04  0.254E-01    8.45       1.0  T
   3    -50.7245421 -0.417087E-04  0.485E-02    8.48       1.0  T
   4    -50.7245508 -0.870699E-05  0.120E-02    8.48       1.6  T
   5    -50.7245511 -0.298863E-06  0.465E-03    8.48       4.2  T
   6    -50.7245511 -0.212770E-07  0.263E-03    8.48       7.5  T
speedup  0.94
cpu  time for SCC    0.00 s
wall time for SCC    0.01 s
speedup  1.02
cpu  time for grad    0.01 s
wall time for grad    0.01 s
 E :    -50.43724870  G :  0.048268    pred/act E change: -0.129D-02  0.124D-02
Maxdispl :   0.0979   ||displ|| :   0.2262   Lambda : -0.375D-02
Largest |displ|/coords:  0.0979 (  18)  0.0804 (   4)  0.0757 (   7)
................................................................................
.............................. CYCLE   18 ......................................
................................................................................
   1    -50.7318244 -0.507318E+02  0.237E-01    8.52       0.0  T
   2    -50.7318694 -0.449651E-04  0.177E-01    8.52       1.0  T
   3    -50.7318995 -0.301546E-04  0.380E-02    8.50       1.0  T
   4    -50.7319047 -0.521917E-05  0.884E-03    8.50       2.2  T
   5    -50.7319049 -0.113879E-06  0.420E-03    8.50       4.7  T
   6    -50.7319049 -0.121222E-07  0.185E-03    8.50      10.6  T
speedup  0.94
cpu  time for SCC    0.00 s
wall time for SCC    0.01 s
speedup  1.02
cpu  time for grad    0.01 s
wall time for grad    0.01 s
 E :    -50.43898027  G :  0.010204    pred/act E change: -0.948D-03 -0.173D-02
Maxdispl :   0.3016   ||displ|| :   0.4664   Lambda : -0.823D-03
Largest |displ|/coords:  0.3016 (   4)  0.1932 (   6)  0.1742 (   7)
................................................................................
.............................. CYCLE   19 ......................................
................................................................................
   1    -50.7286974 -0.507287E+02  0.260E-01    8.55       0.0  T
   2    -50.7287191 -0.217679E-04  0.195E-01    8.55       1.0  T
   3    -50.7287366 -0.174967E-04  0.288E-02    8.55       1.0  T
   4    -50.7287393 -0.271355E-05  0.103E-02    8.55       1.9  T
   5    -50.7287395 -0.189897E-06  0.370E-03    8.56       5.3  T
   6    -50.7287395 -0.138648E-07  0.199E-03    8.56       9.8  T
   7    -50.7287395 -0.110765E-07  0.355E-04    8.56      55.2  T
speedup  1.11
cpu  time for SCC    0.01 s
wall time for SCC    0.01 s
speedup  1.01
cpu  time for grad    0.01 s
wall time for grad    0.01 s
 E :    -50.43856914  G :  0.036008    pred/act E change: -0.197D-02  0.411D-03
Maxdispl :   0.1216   ||displ|| :   0.2165   Lambda : -0.176D-02
Largest |displ|/coords:  0.1216 (   4)  0.1140 (   6)  0.0721 (   3)
................................................................................
.............................. CYCLE   20 ......................................
................................................................................
   1    -50.7362650 -0.507363E+02  0.165E-01    8.58       0.0  T
   2    -50.7362883 -0.232455E-04  0.122E-01    8.58       1.0  T
   3    -50.7363038 -0.155858E-04  0.265E-02    8.58       1.0  T
   4    -50.7363064 -0.258102E-05  0.718E-03    8.58       2.7  T
   5    -50.7363065 -0.874674E-07  0.312E-03    8.58       6.3  T
   6    -50.7363065 -0.762886E-08  0.148E-03    8.58      13.3  T
speedup  1.15
cpu  time for SCC    0.01 s
wall time for SCC    0.01 s
speedup  1.02
cpu  time for grad    0.01 s
wall time for grad    0.01 s
 E :    -50.43935417  G :  0.012657    pred/act E change: -0.501D-03 -0.785D-03
Maxdispl :   0.2678   ||displ|| :   0.4281   Lambda : -0.126D-02
Largest |displ|/coords:  0.2678 (   4)  0.2043 (   8)  0.1248 (   6)
................................................................................
.............................. CYCLE   21 ......................................
................................................................................
   1    -50.7228806 -0.507229E+02  0.364E-01    8.49       0.0  T
   2    -50.7229269 -0.462270E-04  0.276E-01    8.52       1.0  T
   3    -50.7229635 -0.366335E-04  0.385E-02    8.57       1.0  T
   4    -50.7229698 -0.627169E-05  0.127E-02    8.55       1.5  T
   5    -50.7229701 -0.345589E-06  0.442E-03    8.54       4.4  T
   6    -50.7229701 -0.100583E-07  0.256E-03    8.54       7.7  T
   7    -50.7229701 -0.128612E-07  0.390E-04    8.54      50.3  T
speedup  0.98
cpu  time for SCC    0.01 s
wall time for SCC    0.01 s
speedup  1.02
cpu  time for grad    0.01 s
wall time for grad    0.01 s
 E :    -50.43893865  G :  0.034055    pred/act E change: -0.921D-03  0.416D-03
Maxdispl :   0.1394   ||displ|| :   0.2358   Lambda : -0.218D-02
Largest |displ|/coords:  0.1394 (   8)  0.0989 (   4)  0.0624 (   5)
................................................................................
.............................. CYCLE   22 ......................................
................................................................................
   1    -50.7323843 -0.507324E+02  0.226E-01    8.63       0.0  T
   2    -50.7324111 -0.267125E-04  0.171E-01    8.60       1.0  T
   3    -50.7324301 -0.190058E-04  0.303E-02    8.56       1.0  T
   4    -50.7324338 -0.373302E-05  0.944E-03    8.58       2.1  T
   5    -50.7324340 -0.193759E-06  0.355E-03    8.59       5.5  T
   6    -50.7324340 -0.435189E-08  0.193E-03    8.59      10.2  T
speedup  0.96
cpu  time for SCC    0.00 s
wall time for SCC    0.01 s
speedup  1.00
cpu  time for grad    0.01 s
wall time for grad    0.01 s
 E :    -50.43990504  G :  0.013590    pred/act E change: -0.745D-03 -0.966D-03
Maxdispl :   0.2509   ||displ|| :   0.4145   Lambda : -0.107D-02
Largest |displ|/coords:  0.2509 (   4)  0.1464 (   7)  0.1426 (   6)
................................................................................
.............................. CYCLE   23 ......................................
................................................................................
   1    -50.7337058 -0.507337E+02  0.265E-01    8.64       0.0  T
   2    -50.7337278 -0.220343E-04  0.199E-01    8.66       1.0  T
   3    -50.7337458 -0.179894E-04  0.270E-02    8.71       1.0  T
   4    -50.7337486 -0.274833E-05  0.888E-03    8.70       2.2  T
   5    -50.7337487 -0.129101E-06  0.354E-03    8.70       5.5  T
   6    -50.7337487 -0.827878E-08  0.185E-03    8.70      10.6  T
   7    -50.7337487 -0.777771E-08  0.283E-04    8.70      69.2  T
speedup  1.00
cpu  time for SCC    0.01 s
wall time for SCC    0.01 s
speedup  0.95
cpu  time for grad    0.01 s
wall time for grad    0.01 s
 E :    -50.43974403  G :  0.026064    pred/act E change: -0.115D-02  0.161D-03
Maxdispl :   0.2176   ||displ|| :   0.3052   Lambda : -0.138D-02
Largest |displ|/coords:  0.2176 (   4)  0.1354 (   1)  0.0846 (   6)
................................................................................
.............................. CYCLE   24 ......................................
................................................................................
   1    -50.7322716 -0.507323E+02  0.178E-01    8.71       0.0  T
   2    -50.7322840 -0.123792E-04  0.135E-01    8.70       1.0  T
   3    -50.7322949 -0.108568E-04  0.194E-02    8.68       1.0  T
   4    -50.7322964 -0.157039E-05  0.594E-03    8.69       3.3  T
   5    -50.7322965 -0.443475E-07  0.265E-03    8.70       7.4  T
speedup  0.91
cpu  time for SCC    0.00 s
wall time for SCC    0.00 s
speedup  1.00
cpu  time for grad    0.01 s
wall time for grad    0.01 s
 E :    -50.44068353  G :  0.009829    pred/act E change: -0.629D-03 -0.940D-03
Maxdispl :   0.4633   ||displ|| :   0.6096   Lambda : -0.917D-03
Largest |displ|/coords:  0.4633 (   4)  0.2356 (   1)  0.1513 (   7)
................................................................................
.............................. CYCLE   25 ......................................
................................................................................
   1    -50.7300097 -0.507300E+02  0.218E-01    8.75       0.0  T
   2    -50.7300211 -0.114656E-04  0.165E-01    8.75       1.0  T
   3    -50.7300333 -0.121992E-04  0.178E-02    8.76       1.1  T
   4    -50.7300344 -0.110071E-05  0.704E-03    8.76       2.8  T
   5    -50.7300345 -0.616638E-07  0.256E-03    8.76       7.7  T
   6    -50.7300345 -0.669920E-08  0.116E-03    8.76      16.9  T
speedup  0.98
cpu  time for SCC    0.01 s
wall time for SCC    0.01 s
speedup  1.02
cpu  time for grad    0.01 s
wall time for grad    0.01 s
 E :    -50.44143628  G :  0.015021    pred/act E change: -0.753D-03 -0.753D-03
Maxdispl :   0.5605   ||displ|| :   0.7625   Lambda : -0.124D-02
Largest |displ|/coords:  0.5605 (   4)  0.3102 (   1)  0.1743 (   7)

generating ANC from model Hessian ...
 Shifting diagonal of input Hessian by   5.241001440495341E-003
 Lowest  eigenvalues of input Hessian
    0.005000    0.005165   -0.000000   -0.000000   -0.000000   -0.000000
    0.000000    0.000000    0.005292    0.005464    0.005843    0.005915
    0.006178    0.006446    0.006581    0.006781    0.006892    0.007210
 Highest eigenvalues
    1.386183    1.397287    1.411343    2.721873    3.316775    3.653914
 
cpu  time for ANC gen    0.01 s
wall time for ANC gen    0.01 s
................................................................................
.............................. CYCLE   26 ......................................
................................................................................
   1    -50.7256430 -0.507256E+02  0.284E-01    8.80       0.0  T
   2    -50.7256645 -0.214370E-04  0.214E-01    8.82       1.0  T
   3    -50.7256865 -0.220449E-04  0.261E-02    8.83       1.0  T
   4    -50.7256887 -0.215827E-05  0.112E-02    8.83       1.8  T
   5    -50.7256888 -0.147091E-06  0.339E-03    8.83       5.8  T
   6    -50.7256888 -0.119143E-07  0.186E-03    8.83      10.5  T
   7    -50.7256888 -0.698081E-08  0.459E-04    8.83      42.7  T
   8    -50.7256888 -0.520721E-09  0.177E-04    8.83     110.8  T
speedup  1.01
cpu  time for SCC    0.01 s
wall time for SCC    0.01 s
speedup  0.98
cpu  time for grad    0.01 s
wall time for grad    0.02 s
 E :    -50.44239591  G :  0.026761    pred/act E change:  0.000D+00 -0.960D-03
Maxdispl :   0.1610   ||displ|| :   0.2998   Lambda : -0.147D-02
Largest |displ|/coords:  0.1610 (   1)  0.1474 (   4)  0.0872 (   3)
................................................................................
.............................. CYCLE   27 ......................................
................................................................................
   1    -50.7306135 -0.507306E+02  0.176E-01    8.85       0.0  T
   2    -50.7306196 -0.610393E-05  0.131E-01    8.86       1.0  T
   3    -50.7306245 -0.492046E-05  0.156E-02    8.87       1.3  T
   4    -50.7306252 -0.678318E-06  0.496E-03    8.87       4.0  T
   5    -50.7306252 -0.359532E-07  0.183E-03    8.87      10.7  T
speedup  0.93
cpu  time for SCC    0.00 s
wall time for SCC    0.00 s
speedup  1.00
cpu  time for grad    0.01 s
wall time for grad    0.01 s
 E :    -50.44354288  G :  0.012182    pred/act E change:  0.000D+00 -0.115D-02
Maxdispl :   0.3186   ||displ|| :   0.5478   Lambda : -0.174D-02
Largest |displ|/coords:  0.3186 (   4)  0.2768 (   1)  0.1618 (   3)
................................................................................
.............................. CYCLE   28 ......................................
................................................................................
   1    -50.7346304 -0.507346E+02  0.290E-01    8.88       0.0  T
   2    -50.7346433 -0.128664E-04  0.217E-01    8.89       1.0  T
   3    -50.7346553 -0.120469E-04  0.244E-02    8.90       1.0  T
   4    -50.7346565 -0.122158E-05  0.812E-03    8.90       2.4  T
   5    -50.7346566 -0.704870E-07  0.279E-03    8.90       7.0  T
   6    -50.7346566 -0.697733E-08  0.137E-03    8.90      14.3  T
speedup  0.77
cpu  time for SCC    0.00 s
wall time for SCC    0.01 s
speedup  0.90
cpu  time for grad    0.01 s
wall time for grad    0.01 s
 E :    -50.44481631  G :  0.016760    pred/act E change: -0.798D-03 -0.127D-02
Maxdispl :   0.3842   ||displ|| :   0.5849   Lambda : -0.138D-02
Largest |displ|/coords:  0.3842 (   4)  0.2662 (   1)  0.1779 (   6)
................................................................................
.............................. CYCLE   29 ......................................
................................................................................
   1    -50.7356889 -0.507357E+02  0.265E-01    8.87       0.0  T
   2    -50.7357028 -0.138425E-04  0.198E-01    8.87       1.0  T
   3    -50.7357136 -0.108206E-04  0.263E-02    8.86       1.0  T
   4    -50.7357154 -0.183754E-05  0.829E-03    8.87       2.4  T
   5    -50.7357155 -0.903712E-07  0.285E-03    8.87       6.9  T
   6    -50.7357155 -0.867606E-08  0.145E-03    8.87      13.5  T
speedup  0.94
cpu  time for SCC    0.01 s
wall time for SCC    0.01 s
speedup  0.98
cpu  time for grad    0.01 s
wall time for grad    0.01 s
 E :    -50.44590353  G :  0.021027    pred/act E change: -0.113D-02 -0.109D-02
Maxdispl :   0.3460   ||displ|| :   0.5530   Lambda : -0.153D-02
Largest |displ|/coords:  0.3460 (   4)  0.2243 (   1)  0.1447 (  14)
................................................................................
.............................. CYCLE   30 ......................................
................................................................................
   1    -50.7386445 -0.507386E+02  0.266E-01    8.86       0.0  T
   2    -50.7386651 -0.205232E-04  0.200E-01    8.86       1.0  T
   3    -50.7386817 -0.166385E-04  0.335E-02    8.87       1.0  T
   4    -50.7386844 -0.266755E-05  0.989E-03    8.87       2.0  T
   5    -50.7386845 -0.107151E-06  0.276E-03    8.87       7.1  T
   6    -50.7386845 -0.680714E-08  0.152E-03    8.87      12.9  T
speedup  1.11
cpu  time for SCC    0.01 s
wall time for SCC    0.01 s
speedup  1.06
cpu  time for grad    0.01 s
wall time for grad    0.01 s
 E :    -50.44689461  G :  0.021641    pred/act E change: -0.923D-03 -0.991D-03
Maxdispl :   0.2447   ||displ|| :   0.5285   Lambda : -0.180D-02
Largest |displ|/coords:  0.2447 (   4)  0.1870 (   1)  0.1781 (   3)
................................................................................
.............................. CYCLE   31 ......................................
................................................................................
   1    -50.7375157 -0.507375E+02  0.327E-01    8.82       0.0  T
   2    -50.7375443 -0.285827E-04  0.248E-01    8.84       1.0  T
   3    -50.7375691 -0.248214E-04  0.299E-02    8.88       1.0  T
   4    -50.7375724 -0.329089E-05  0.123E-02    8.88       1.6  T
   5    -50.7375726 -0.198996E-06  0.294E-03    8.88       6.7  T
   6    -50.7375726 -0.985478E-08  0.178E-03    8.88      11.0  T
speedup  0.94
cpu  time for SCC    0.01 s
wall time for SCC    0.01 s
speedup  0.99
cpu  time for grad    0.01 s
wall time for grad    0.01 s
 E :    -50.44780877  G :  0.021927    pred/act E change: -0.998D-03 -0.914D-03
Maxdispl :   0.3186   ||displ|| :   0.5255   Lambda : -0.235D-02
Largest |displ|/coords:  0.3186 (   6)  0.1705 (   1)  0.1352 (   3)
................................................................................
.............................. CYCLE   32 ......................................
................................................................................
   1    -50.7292508 -0.507293E+02  0.397E-01    8.85       0.0  T
   2    -50.7293567 -0.105924E-03  0.299E-01    8.89       1.0  T
   3    -50.7293992 -0.424514E-04  0.611E-02    8.96       1.0  T
   4    -50.7294183 -0.191297E-04  0.153E-02    8.94       1.3  T
   5    -50.7294188 -0.466634E-06  0.543E-03    8.94       3.6  T
   6    -50.7294188 -0.356101E-07  0.292E-03    8.94       6.7  T
speedup  0.96
cpu  time for SCC    0.00 s
wall time for SCC    0.01 s
speedup  1.00
cpu  time for grad    0.01 s
wall time for grad    0.01 s
 E :    -50.44866954  G :  0.030035    pred/act E change: -0.115D-02 -0.861D-03
Maxdispl :   0.1625   ||displ|| :   0.3395   Lambda : -0.201D-02
Largest |displ|/coords:  0.1625 (   2)  0.1380 (   1)  0.1202 (   9)
................................................................................
.............................. CYCLE   33 ......................................
................................................................................
   1    -50.7309248 -0.507309E+02  0.274E-01    8.96       0.0  T
   2    -50.7309771 -0.522335E-04  0.204E-01    8.98       1.0  T
   3    -50.7310072 -0.301027E-04  0.423E-02    9.00       1.0  T
   4    -50.7310139 -0.671106E-05  0.125E-02    8.99       1.6  T
   5    -50.7310142 -0.320243E-06  0.435E-03    8.99       4.5  T
   6    -50.7310142 -0.147041E-07  0.227E-03    8.99       8.7  T
speedup  0.94
cpu  time for SCC    0.01 s
wall time for SCC    0.01 s
speedup  0.99
cpu  time for grad    0.01 s
wall time for grad    0.01 s
 E :    -50.44867244  G :  0.042751    pred/act E change: -0.150D-02 -0.290D-05
Maxdispl :   0.1383   ||displ|| :   0.3350   Lambda : -0.269D-02
Largest |displ|/coords:  0.1383 (   6)  0.1360 (   1)  0.0953 (  15)
................................................................................
.............................. CYCLE   34 ......................................
................................................................................
   1    -50.7361405 -0.507361E+02  0.200E-01    9.03       0.0  T
   2    -50.7361742 -0.337366E-04  0.149E-01    9.02       1.0  T
   3    -50.7361926 -0.184223E-04  0.332E-02    9.01       1.0  T
   4    -50.7361972 -0.454655E-05  0.866E-03    9.02       2.3  T
   5    -50.7361974 -0.167543E-06  0.350E-03    9.01       5.6  T
   6    -50.7361974 -0.129627E-07  0.168E-03    9.01      11.7  T
speedup  0.96
cpu  time for SCC    0.00 s
wall time for SCC    0.01 s
speedup  1.00
cpu  time for grad    0.01 s
wall time for grad    0.01 s
 E :    -50.44991194  G :  0.018320    pred/act E change: -0.112D-02 -0.124D-02
Maxdispl :   0.1428   ||displ|| :   0.4098   Lambda : -0.177D-02
Largest |displ|/coords:  0.1428 (  11)  0.1345 (   3)  0.1289 (   1)
................................................................................
.............................. CYCLE   35 ......................................
................................................................................
   1    -50.7331284 -0.507331E+02  0.292E-01    9.06       0.0  T
   2    -50.7331758 -0.474139E-04  0.219E-01    9.07       1.0  T
   3    -50.7332046 -0.288605E-04  0.404E-02    9.09       1.0  T
   4    -50.7332114 -0.676335E-05  0.134E-02    9.09       1.5  T
   5    -50.7332118 -0.362192E-06  0.433E-03    9.09       4.5  T
   6    -50.7332118 -0.166326E-07  0.266E-03    9.09       7.4  T
   7    -50.7332118 -0.114886E-07  0.501E-04    9.09      39.2  T
speedup  0.97
cpu  time for SCC    0.01 s
wall time for SCC    0.01 s
speedup  0.99
cpu  time for grad    0.01 s
wall time for grad    0.01 s
 E :    -50.44995923  G :  0.038725    pred/act E change: -0.149D-02 -0.473D-04
Maxdispl :   0.0923   ||displ|| :   0.2801   Lambda : -0.211D-02
Largest |displ|/coords:  0.0923 (   4)  0.0913 (   1)  0.0892 (   2)
................................................................................
.............................. CYCLE   36 ......................................
................................................................................
   1    -50.7353022 -0.507353E+02  0.181E-01    9.10       0.0  T
   2    -50.7353531 -0.509331E-04  0.133E-01    9.11       1.0  T
   3    -50.7353720 -0.188940E-04  0.393E-02    9.13       1.0  T
   4    -50.7353776 -0.551027E-05  0.107E-02    9.13       1.8  T
   5    -50.7353777 -0.176009E-06  0.311E-03    9.13       6.3  T
   6    -50.7353777 -0.126280E-07  0.168E-03    9.13      11.7  T
speedup  0.96
cpu  time for SCC    0.00 s
wall time for SCC    0.01 s
speedup  1.00
cpu  time for grad    0.01 s
wall time for grad    0.01 s
 E :    -50.45081261  G :  0.021685    pred/act E change: -0.103D-02 -0.853D-03
Maxdispl :   0.2435   ||displ|| :   0.4232   Lambda : -0.195D-02
Largest |displ|/coords:  0.2435 (   1)  0.1311 (  21)  0.1219 (   2)
................................................................................
.............................. CYCLE   37 ......................................
................................................................................
   1    -50.7306461 -0.507306E+02  0.270E-01    9.08       0.0  T
   2    -50.7306904 -0.443411E-04  0.202E-01    9.08       1.0  T
   3    -50.7307146 -0.242160E-04  0.375E-02    9.09       1.0  T
   4    -50.7307212 -0.655519E-05  0.128E-02    9.09       1.5  T
   5    -50.7307214 -0.236820E-06  0.384E-03    9.09       5.1  T
   6    -50.7307214 -0.174016E-07  0.215E-03    9.09       9.1  T
speedup  0.96
cpu  time for SCC    0.00 s
wall time for SCC    0.01 s
speedup  1.00
cpu  time for grad    0.01 s
wall time for grad    0.01 s
 E :    -50.45089355  G :  0.030575    pred/act E change: -0.114D-02 -0.809D-04
Maxdispl :   0.0954   ||displ|| :   0.2800   Lambda : -0.208D-02
Largest |displ|/coords:  0.0954 (   5)  0.0796 (   3)  0.0764 (  21)
................................................................................
.............................. CYCLE   38 ......................................
................................................................................
   1    -50.7403802 -0.507404E+02  0.231E-01    9.21       0.0  T
   2    -50.7404294 -0.492229E-04  0.173E-01    9.22       1.0  T
   3    -50.7404554 -0.259938E-04  0.429E-02    9.22       1.0  T
   4    -50.7404614 -0.605419E-05  0.137E-02    9.22       1.4  T
   5    -50.7404618 -0.386309E-06  0.422E-03    9.22       4.6  T
   6    -50.7404618 -0.159810E-07  0.238E-03    9.22       8.2  T
speedup  0.94
cpu  time for SCC    0.00 s
wall time for SCC    0.01 s
speedup  0.99
cpu  time for grad    0.01 s
wall time for grad    0.01 s
 E :    -50.45173808  G :  0.023433    pred/act E change: -0.115D-02 -0.845D-03
Maxdispl :   0.2167   ||displ|| :   0.5244   Lambda : -0.245D-02
Largest |displ|/coords:  0.2167 (   8)  0.1884 (  11)  0.1703 (  17)
................................................................................
.............................. CYCLE   39 ......................................
................................................................................
   1    -50.7300547 -0.507301E+02  0.359E-01    9.19       0.0  T
   2    -50.7301644 -0.109745E-03  0.270E-01    9.20       1.0  T
   3    -50.7302150 -0.506136E-04  0.600E-02    9.20       1.0  T
   4    -50.7302319 -0.168773E-04  0.219E-02    9.20       1.0  T
   5    -50.7302327 -0.833616E-06  0.570E-03    9.20       3.4  T
   6    -50.7302328 -0.462893E-07  0.342E-03    9.20       5.7  T
speedup  0.94
cpu  time for SCC    0.00 s
wall time for SCC    0.01 s
speedup  0.91
cpu  time for grad    0.01 s
wall time for grad    0.01 s
 E :    -50.45198097  G :  0.034161    pred/act E change: -0.112D-02 -0.243D-03
Maxdispl :   0.1277   ||displ|| :   0.2988   Lambda : -0.225D-02
Largest |displ|/coords:  0.1277 (   1)  0.1095 (   2)  0.1013 (   9)
................................................................................
.............................. CYCLE   40 ......................................
................................................................................
   1    -50.7351788 -0.507352E+02  0.168E-01    9.22       0.0  T
   2    -50.7352166 -0.377761E-04  0.124E-01    9.22       1.0  T
   3    -50.7352310 -0.143658E-04  0.346E-02    9.22       1.0  T
   4    -50.7352355 -0.453328E-05  0.107E-02    9.22       1.8  T
   5    -50.7352357 -0.173699E-06  0.310E-03    9.22       6.3  T
   6    -50.7352357 -0.128216E-07  0.165E-03    9.22      11.9  T
speedup  0.94
cpu  time for SCC    0.00 s
wall time for SCC    0.01 s
speedup  0.98
cpu  time for grad    0.01 s
wall time for grad    0.01 s
 E :    -50.45344316  G :  0.015076    pred/act E change: -0.156D-02 -0.146D-02
Maxdispl :   0.3012   ||displ|| :   0.6037   Lambda : -0.140D-02
Largest |displ|/coords:  0.3012 (   1)  0.2408 (   3)  0.1940 (   2)
................................................................................
.............................. CYCLE   41 ......................................
................................................................................
   1    -50.7349322 -0.507349E+02  0.276E-01    9.22       0.0  T
   2    -50.7351036 -0.171477E-03  0.206E-01    9.22       1.0  T
   3    -50.7351593 -0.556491E-04  0.770E-02    9.21       1.0  T
   4    -50.7351738 -0.145277E-04  0.223E-02    9.20       1.0  T
   5    -50.7351743 -0.513558E-06  0.551E-03    9.20       3.6  T
   6    -50.7351744 -0.547806E-07  0.299E-03    9.20       6.6  T
   7    -50.7351744 -0.113256E-07  0.960E-04    9.20      20.4  T
speedup  0.97
cpu  time for SCC    0.01 s
wall time for SCC    0.01 s
speedup  0.99
cpu  time for grad    0.01 s
wall time for grad    0.01 s
 E :    -50.45446878  G :  0.018798    pred/act E change: -0.123D-02 -0.103D-02
Maxdispl :   0.1906   ||displ|| :   0.5391   Lambda : -0.150D-02
Largest |displ|/coords:  0.1906 (   3)  0.1716 (   1)  0.1418 (  30)
................................................................................
.............................. CYCLE   42 ......................................
................................................................................
   1    -50.7434935 -0.507435E+02  0.293E-01    9.37       0.0  T
   2    -50.7436788 -0.185244E-03  0.220E-01    9.36       1.0  T
   3    -50.7437446 -0.658255E-04  0.836E-02    9.33       1.0  T
   4    -50.7437589 -0.143015E-04  0.256E-02    9.33       1.0  T
   5    -50.7437595 -0.632046E-06  0.596E-03    9.33       3.3  T
   6    -50.7437596 -0.608808E-07  0.305E-03    9.33       6.4  T
   7    -50.7437596 -0.182282E-07  0.108E-03    9.33      18.1  T
   8    -50.7437596 -0.232833E-08  0.243E-04    9.33      80.8  T
speedup  1.00
cpu  time for SCC    0.01 s
wall time for SCC    0.01 s
speedup  1.01
cpu  time for grad    0.01 s
wall time for grad    0.01 s
 E :    -50.45467518  G :  0.025138    pred/act E change: -0.953D-03 -0.206D-03
Maxdispl :   0.1982   ||displ|| :   0.3663   Lambda : -0.221D-02
Largest |displ|/coords:  0.1982 (   3)  0.1701 (   2)  0.1483 (  10)
................................................................................
.............................. CYCLE   43 ......................................
................................................................................
   1    -50.7332721 -0.507333E+02  0.214E-01    9.04       0.0  T
   2    -50.7333182 -0.461762E-04  0.159E-01    9.04       1.0  T
   3    -50.7333319 -0.136458E-04  0.498E-02    9.05       1.0  T
   4    -50.7333366 -0.469481E-05  0.117E-02    9.05       1.7  T
   5    -50.7333368 -0.272250E-06  0.248E-03    9.05       7.9  T
   6    -50.7333369 -0.101178E-07  0.139E-03    9.05      14.1  T
speedup  1.15
cpu  time for SCC    0.01 s
wall time for SCC    0.01 s
speedup  1.07
cpu  time for grad    0.01 s
wall time for grad    0.01 s
 E :    -50.45526365  G :  0.025649    pred/act E change: -0.968D-03 -0.588D-03
Maxdispl :   0.1257   ||displ|| :   0.2946   Lambda : -0.191D-02
Largest |displ|/coords:  0.1257 (  10)  0.0820 (  25)  0.0792 (  26)
................................................................................
.............................. CYCLE   44 ......................................
................................................................................
   1    -50.7340564 -0.507341E+02  0.216E-01    9.31       0.0  T
   2    -50.7340787 -0.222735E-04  0.158E-01    9.31       1.0  T
   3    -50.7340948 -0.161231E-04  0.306E-02    9.32       1.0  T
   4    -50.7340966 -0.183147E-05  0.955E-03    9.32       2.1  T
   5    -50.7340968 -0.131135E-06  0.261E-03    9.32       7.5  T
   6    -50.7340968 -0.791568E-08  0.149E-03    9.32      13.2  T
speedup  0.94
cpu  time for SCC    0.01 s
wall time for SCC    0.01 s
speedup  0.98
cpu  time for grad    0.01 s
wall time for grad    0.01 s
 E :    -50.45536063  G :  0.026047    pred/act E change: -0.125D-02 -0.970D-04
Maxdispl :   0.1142   ||displ|| :   0.2589   Lambda : -0.183D-02
Largest |displ|/coords:  0.1142 (   3)  0.0938 (   8)  0.0757 (  25)
................................................................................
.............................. CYCLE   45 ......................................
................................................................................
   1    -50.7350452 -0.507350E+02  0.176E-01    9.17       0.0  T
   2    -50.7350699 -0.247121E-04  0.131E-01    9.16       1.0  T
   3    -50.7350822 -0.123567E-04  0.279E-02    9.16       1.0  T
   4    -50.7350858 -0.351882E-05  0.105E-02    9.16       1.9  T
   5    -50.7350859 -0.126710E-06  0.246E-03    9.16       8.0  T
   6    -50.7350859 -0.847409E-08  0.143E-03    9.16      13.8  T
speedup  0.96
cpu  time for SCC    0.00 s
wall time for SCC    0.01 s
speedup  0.99
cpu  time for grad    0.01 s
wall time for grad    0.01 s
 E :    -50.45607069  G :  0.020271    pred/act E change: -0.104D-02 -0.710D-03
Maxdispl :   0.1094   ||displ|| :   0.2501   Lambda : -0.137D-02
Largest |displ|/coords:  0.1094 (   3)  0.0849 (  11)  0.0845 (   9)
................................................................................
.............................. CYCLE   46 ......................................
................................................................................
   1    -50.7423825 -0.507424E+02  0.173E-01    9.21       0.0  T
   2    -50.7424128 -0.302821E-04  0.126E-01    9.21       1.0  T
   3    -50.7424281 -0.153836E-04  0.304E-02    9.21       1.0  T
   4    -50.7424316 -0.346682E-05  0.805E-03    9.21       2.4  T
   5    -50.7424317 -0.147285E-06  0.292E-03    9.21       6.7  T
   6    -50.7424318 -0.784442E-08  0.148E-03    9.21      13.3  T
speedup  1.13
cpu  time for SCC    0.01 s
wall time for SCC    0.01 s
speedup  1.06
cpu  time for grad    0.01 s
wall time for grad    0.01 s
 E :    -50.45615333  G :  0.023880    pred/act E change: -0.977D-03 -0.826D-04
Maxdispl :   0.1808   ||displ|| :   0.2986   Lambda : -0.140D-02
Largest |displ|/coords:  0.1808 (   3)  0.0996 (   1)  0.0926 (   9)
................................................................................
.............................. CYCLE   47 ......................................
................................................................................
   1    -50.7343464 -0.507343E+02  0.173E-01    9.24       0.0  T
   2    -50.7343694 -0.230269E-04  0.127E-01    9.24       1.0  T
   3    -50.7343777 -0.825212E-05  0.263E-02    9.23       1.0  T
   4    -50.7343814 -0.369617E-05  0.654E-03    9.23       3.0  T
   5    -50.7343815 -0.700837E-07  0.250E-03    9.23       7.8  T
   6    -50.7343815 -0.700536E-08  0.113E-03    9.23      17.3  T
speedup  0.94
cpu  time for SCC    0.00 s
wall time for SCC    0.01 s
speedup  0.98
cpu  time for grad    0.01 s
wall time for grad    0.01 s
 E :    -50.45664103  G :  0.022818    pred/act E change: -0.726D-03 -0.488D-03
Maxdispl :   0.2161   ||displ|| :   0.3729   Lambda : -0.197D-02
Largest |displ|/coords:  0.2161 (   3)  0.1723 (  11)  0.1616 (   9)
................................................................................
.............................. CYCLE   48 ......................................
................................................................................
   1    -50.7359880 -0.507360E+02  0.239E-01    9.24       0.0  T
   2    -50.7360203 -0.323264E-04  0.178E-01    9.24       1.0  T
   3    -50.7360376 -0.173019E-04  0.344E-02    9.24       1.0  T
   4    -50.7360417 -0.408047E-05  0.121E-02    9.25       1.6  T
   5    -50.7360420 -0.302374E-06  0.351E-03    9.25       5.6  T
   6    -50.7360420 -0.138916E-07  0.201E-03    9.25       9.8  T
speedup  0.94
cpu  time for SCC    0.00 s
wall time for SCC    0.01 s
speedup  0.97
cpu  time for grad    0.01 s
wall time for grad    0.01 s
 E :    -50.45610999  G :  0.035324    pred/act E change: -0.761D-03  0.531D-03
Maxdispl :   0.0977   ||displ|| :   0.2436   Lambda : -0.254D-02
Largest |displ|/coords:  0.0977 (  11)  0.0942 (   9)  0.0872 (   3)
................................................................................
.............................. CYCLE   49 ......................................
................................................................................
   1    -50.7341896 -0.507342E+02  0.183E-01    9.13       0.0  T
   2    -50.7342154 -0.258377E-04  0.135E-01    9.13       1.0  T
   3    -50.7342303 -0.148438E-04  0.291E-02    9.13       1.0  T
   4    -50.7342333 -0.297713E-05  0.112E-02    9.13       1.8  T
   5    -50.7342335 -0.234271E-06  0.306E-03    9.13       6.4  T
   6    -50.7342335 -0.110129E-07  0.176E-03    9.13      11.1  T
speedup  1.13
cpu  time for SCC    0.01 s
wall time for SCC    0.01 s
speedup  1.05
cpu  time for grad    0.01 s
wall time for grad    0.01 s
 E :    -50.45730746  G :  0.020423    pred/act E change: -0.112D-02 -0.120D-02
Maxdispl :   0.1709   ||displ|| :   0.3362   Lambda : -0.160D-02
Largest |displ|/coords:  0.1709 (   4)  0.1229 (   9)  0.1126 (  11)
................................................................................
.............................. CYCLE   50 ......................................
................................................................................
   1    -50.7409130 -0.507409E+02  0.196E-01    9.29       0.0  T
   2    -50.7409286 -0.156476E-04  0.146E-01    9.29       1.0  T
   3    -50.7409400 -0.113802E-04  0.254E-02    9.29       1.0  T
   4    -50.7409417 -0.173579E-05  0.811E-03    9.29       2.4  T
   5    -50.7409419 -0.123156E-06  0.257E-03    9.29       7.6  T
   6    -50.7409419 -0.526882E-08  0.135E-03    9.29      14.5  T
speedup  1.13
cpu  time for SCC    0.01 s
wall time for SCC    0.01 s
speedup  1.06
cpu  time for grad    0.01 s
wall time for grad    0.01 s
 E :    -50.45733676  G :  0.022248    pred/act E change: -0.135D-02 -0.293D-04
Maxdispl :   0.2156   ||displ|| :   0.2799   Lambda : -0.134D-02
Largest |displ|/coords:  0.2156 (   3)  0.0581 (  17)  0.0537 (  13)
................................................................................
.............................. CYCLE   51 ......................................
................................................................................
   1    -50.7371433 -0.507371E+02  0.168E-01    9.26       0.0  T
   2    -50.7371522 -0.888578E-05  0.127E-01    9.26       1.0  T
   3    -50.7371603 -0.804668E-05  0.158E-02    9.25       1.2  T
   4    -50.7371612 -0.988761E-06  0.514E-03    9.25       3.8  T
   5    -50.7371613 -0.321461E-07  0.191E-03    9.25      10.3  T
speedup  1.11
cpu  time for SCC    0.00 s
wall time for SCC    0.00 s
speedup  1.03
cpu  time for grad    0.01 s
wall time for grad    0.01 s
 E :    -50.45817214  G :  0.012995    pred/act E change: -0.892D-03 -0.835D-03
Maxdispl :   0.3627   ||displ|| :   0.4485   Lambda : -0.115D-02
Largest |displ|/coords:  0.3627 (   3)  0.0973 (  10)  0.0863 (  17)
................................................................................
.............................. CYCLE   52 ......................................
................................................................................
   1    -50.7321389 -0.507321E+02  0.254E-01    9.03       0.0  T
   2    -50.7321626 -0.236964E-04  0.188E-01    9.03       1.0  T
   3    -50.7321785 -0.159012E-04  0.324E-02    9.03       1.0  T
   4    -50.7321813 -0.283888E-05  0.102E-02    9.03       1.9  T
   5    -50.7321815 -0.174889E-06  0.313E-03    9.03       6.3  T
   6    -50.7321815 -0.112442E-07  0.168E-03    9.03      11.6  T
   7    -50.7321815 -0.646853E-08  0.543E-04    9.03      36.1  T
speedup  0.97
cpu  time for SCC    0.01 s
wall time for SCC    0.01 s
speedup  0.99
cpu  time for grad    0.01 s
wall time for grad    0.01 s
 E :    -50.45777852  G :  0.041932    pred/act E change: -0.721D-03  0.394D-03
Maxdispl :   0.0937   ||displ|| :   0.1954   Lambda : -0.213D-02
Largest |displ|/coords:  0.0937 (  13)  0.0928 (   3)  0.0760 (   4)

generating ANC from model Hessian ...
 Shifting diagonal of input Hessian by   4.771749390647241E-003
 Lowest  eigenvalues of input Hessian
   -0.000000   -0.000000    0.000000    0.000000    0.000000    0.000000
    0.005000    0.005422    0.005518    0.005567    0.006139    0.006456
    0.007569    0.008457    0.008773    0.009685    0.009833    0.011008
 Highest eigenvalues
    1.388500    1.408774    1.435628    2.512471    3.441158    3.645546
 
cpu  time for ANC gen    0.02 s
wall time for ANC gen    0.02 s
................................................................................
.............................. CYCLE   53 ......................................
................................................................................
   1    -50.7369635 -0.507370E+02  0.151E-01    9.23       0.0  T
   2    -50.7369738 -0.103284E-04  0.111E-01    9.24       1.0  T
   3    -50.7369821 -0.829369E-05  0.231E-02    9.24       1.0  T
   4    -50.7369831 -0.967853E-06  0.644E-03    9.24       3.0  T
   5    -50.7369831 -0.853593E-07  0.223E-03    9.24       8.8  T
   6    -50.7369831 -0.354177E-08  0.116E-03    9.24      16.9  T
   7    -50.7369832 -0.340818E-08  0.274E-04    9.24      71.6  T
   8    -50.7369832 -0.252165E-09  0.980E-05    9.24     200.2  T
speedup  1.00
cpu  time for SCC    0.01 s
wall time for SCC    0.01 s
speedup  1.03
cpu  time for grad    0.02 s
wall time for grad    0.02 s
 E :    -50.45897991  G :  0.015949    pred/act E change:  0.000D+00 -0.120D-02
Maxdispl :   0.2193   ||displ|| :   0.3349   Lambda : -0.125D-02
Largest |displ|/coords:  0.2193 (   6)  0.1645 (   4)  0.1347 (   2)
................................................................................
.............................. CYCLE   54 ......................................
................................................................................
   1    -50.7397573 -0.507398E+02  0.218E-01    9.26       0.0  T
   2    -50.7397640 -0.677002E-05  0.164E-01    9.26       1.0  T
   3    -50.7397713 -0.727125E-05  0.170E-02    9.26       1.2  T
   4    -50.7397719 -0.629662E-06  0.603E-03    9.26       3.3  T
   5    -50.7397720 -0.591856E-07  0.225E-03    9.26       8.7  T
   6    -50.7397720 -0.896299E-08  0.135E-03    9.26      14.6  T
speedup  0.96
cpu  time for SCC    0.00 s
wall time for SCC    0.01 s
speedup  0.98
cpu  time for grad    0.01 s
wall time for grad    0.01 s
 E :    -50.45996646  G :  0.011050    pred/act E change:  0.000D+00 -0.987D-03
Maxdispl :   0.2992   ||displ|| :   0.5811   Lambda : -0.174D-02
Largest |displ|/coords:  0.2992 (   2)  0.2808 (   6)  0.2747 (   4)
................................................................................
.............................. CYCLE   55 ......................................
................................................................................
   1    -50.7406558 -0.507407E+02  0.340E-01    9.28       0.0  T
   2    -50.7406737 -0.178805E-04  0.253E-01    9.28       1.0  T
   3    -50.7406918 -0.180823E-04  0.322E-02    9.28       1.0  T
   4    -50.7406933 -0.148690E-05  0.769E-03    9.28       2.6  T
   5    -50.7406934 -0.152460E-06  0.354E-03    9.28       5.5  T
   6    -50.7406935 -0.251185E-07  0.175E-03    9.28      11.2  T
   7    -50.7406935 -0.476436E-08  0.318E-04    9.28      61.6  T
speedup  0.98
cpu  time for SCC    0.01 s
wall time for SCC    0.01 s
speedup  0.99
cpu  time for grad    0.01 s
wall time for grad    0.01 s
 E :    -50.46116031  G :  0.020443    pred/act E change: -0.697D-03 -0.119D-02
Maxdispl :   0.2862   ||displ|| :   0.5250   Lambda : -0.137D-02
Largest |displ|/coords:  0.2862 (   2)  0.2748 (   4)  0.2227 (   6)
................................................................................
.............................. CYCLE   56 ......................................
................................................................................
   1    -50.7408650 -0.507409E+02  0.249E-01    9.28       0.0  T
   2    -50.7408766 -0.116373E-04  0.184E-01    9.27       1.0  T
   3    -50.7408862 -0.958331E-05  0.263E-02    9.27       1.0  T
   4    -50.7408873 -0.111781E-05  0.726E-03    9.28       2.7  T
   5    -50.7408874 -0.913121E-07  0.252E-03    9.28       7.8  T
   6    -50.7408874 -0.102982E-07  0.143E-03    9.28      13.7  T
speedup  0.94
cpu  time for SCC    0.00 s
wall time for SCC    0.01 s
speedup  0.97
cpu  time for grad    0.01 s
wall time for grad    0.01 s
 E :    -50.46229528  G :  0.018911    pred/act E change: -0.116D-02 -0.113D-02
Maxdispl :   0.4437   ||displ|| :   0.6841   Lambda : -0.195D-02
Largest |displ|/coords:  0.4437 (   4)  0.3660 (   2)  0.2134 (   6)
................................................................................
.............................. CYCLE   57 ......................................
................................................................................
   1    -50.7419690 -0.507420E+02  0.287E-01    9.30       0.0  T
   2    -50.7419879 -0.189081E-04  0.212E-01    9.30       1.0  T
   3    -50.7420016 -0.136718E-04  0.328E-02    9.29       1.0  T
   4    -50.7420038 -0.226579E-05  0.114E-02    9.29       1.7  T
   5    -50.7420040 -0.148719E-06  0.294E-03    9.29       6.7  T
   6    -50.7420040 -0.109407E-07  0.175E-03    9.29      11.2  T
speedup  0.96
cpu  time for SCC    0.00 s
wall time for SCC    0.01 s
speedup  0.98
cpu  time for grad    0.01 s
wall time for grad    0.01 s
 E :    -50.46359343  G :  0.014361    pred/act E change: -0.876D-03 -0.130D-02
Maxdispl :   0.2805   ||displ|| :   0.4936   Lambda : -0.106D-02
Largest |displ|/coords:  0.2805 (   2)  0.2152 (   4)  0.2018 (   6)
................................................................................
.............................. CYCLE   58 ......................................
................................................................................
   1    -50.7418538 -0.507419E+02  0.201E-01    9.30       0.0  T
   2    -50.7418661 -0.122942E-04  0.149E-01    9.30       1.0  T
   3    -50.7418747 -0.854452E-05  0.222E-02    9.29       1.0  T
   4    -50.7418761 -0.147677E-05  0.792E-03    9.30       2.5  T
   5    -50.7418762 -0.884046E-07  0.226E-03    9.30       8.7  T
   6    -50.7418762 -0.527798E-08  0.134E-03    9.30      14.7  T
speedup  1.15
cpu  time for SCC    0.01 s
wall time for SCC    0.01 s
speedup  1.05
cpu  time for grad    0.01 s
wall time for grad    0.01 s
 E :    -50.46396078  G :  0.015061    pred/act E change: -0.143D-02 -0.367D-03
Maxdispl :   0.0941   ||displ|| :   0.1854   Lambda : -0.628D-03
Largest |displ|/coords:  0.0941 (   1)  0.0902 (   5)  0.0701 (   4)
................................................................................
.............................. CYCLE   59 ......................................
................................................................................
   1    -50.7447951 -0.507448E+02  0.974E-02    9.36       0.0  T
   2    -50.7448006 -0.547351E-05  0.715E-02    9.36       1.0  T
   3    -50.7448041 -0.344276E-05  0.155E-02    9.36       1.3  T
   4    -50.7448046 -0.583989E-06  0.381E-03    9.36       5.2  T
   5    -50.7448047 -0.237757E-07  0.139E-03    9.36      14.1  T
   6    -50.7448047 -0.272217E-08  0.740E-04    9.36      26.5  T
speedup  1.13
cpu  time for SCC    0.01 s
wall time for SCC    0.01 s
speedup  0.96
cpu  time for grad    0.01 s
wall time for grad    0.01 s
 E :    -50.46429892  G :  0.007949    pred/act E change: -0.662D-03 -0.338D-03
Maxdispl :   0.0672   ||displ|| :   0.1766   Lambda : -0.377D-03
Largest |displ|/coords:  0.0672 (   9)  0.0528 (  10)  0.0527 (  16)
................................................................................
.............................. CYCLE   60 ......................................
................................................................................
   1    -50.7438615 -0.507439E+02  0.119E-01    9.38       0.0  T
   2    -50.7438647 -0.315011E-05  0.886E-02    9.38       1.0  T
   3    -50.7438668 -0.210478E-05  0.120E-02    9.37       1.6  T
   4    -50.7438672 -0.430036E-06  0.348E-03    9.38       5.6  T
   5    -50.7438672 -0.233976E-07  0.122E-03    9.38      16.1  T
   6    -50.7438672 -0.242312E-08  0.726E-04    9.38      27.0  T
speedup  0.96
cpu  time for SCC    0.00 s
wall time for SCC    0.01 s
speedup  0.96
cpu  time for grad    0.01 s
wall time for grad    0.01 s
 E :    -50.46448916  G :  0.008446    pred/act E change: -0.325D-03 -0.190D-03
Maxdispl :   0.1068   ||displ|| :   0.2283   Lambda : -0.320D-03
Largest |displ|/coords:  0.1068 (   6)  0.0947 (   1)  0.0783 (   2)
................................................................................
.............................. CYCLE   61 ......................................
................................................................................
   1    -50.7437486 -0.507437E+02  0.120E-01    9.36       0.0  T
   2    -50.7437529 -0.432129E-05  0.891E-02    9.36       1.0  T
   3    -50.7437556 -0.271226E-05  0.133E-02    9.36       1.5  T
   4    -50.7437562 -0.594996E-06  0.316E-03    9.36       6.2  T
   5    -50.7437562 -0.219215E-07  0.132E-03    9.36      14.8  T
   6    -50.7437562 -0.264407E-08  0.648E-04    9.36      30.3  T
speedup  1.11
cpu  time for SCC    0.01 s
wall time for SCC    0.01 s
speedup  0.96
cpu  time for grad    0.01 s
wall time for grad    0.01 s
 E :    -50.46463654  G :  0.009125    pred/act E change: -0.194D-03 -0.147D-03
Maxdispl :   0.1559   ||displ|| :   0.2510   Lambda : -0.292D-03
Largest |displ|/coords:  0.1559 (   6)  0.1213 (   2)  0.0710 (   5)
................................................................................
.............................. CYCLE   62 ......................................
................................................................................
   1    -50.7424433 -0.507424E+02  0.146E-01    9.32       0.0  T
   2    -50.7424476 -0.428209E-05  0.110E-01    9.32       1.0  T
   3    -50.7424532 -0.559004E-05  0.119E-02    9.32       1.6  T
   4    -50.7424534 -0.218431E-06  0.429E-03    9.32       4.6  T
   5    -50.7424534 -0.246846E-07  0.159E-03    9.32      12.3  T
   6    -50.7424534 -0.275050E-08  0.815E-04    9.32      24.1  T
speedup  0.96
cpu  time for SCC    0.00 s
wall time for SCC    0.01 s
speedup  0.98
cpu  time for grad    0.01 s
wall time for grad    0.01 s
 E :    -50.46471737  G :  0.010386    pred/act E change: -0.169D-03 -0.808D-04
Maxdispl :   0.1007   ||displ|| :   0.2146   Lambda : -0.500D-03
Largest |displ|/coords:  0.1007 (   4)  0.0771 (   5)  0.0628 (  19)
................................................................................
.............................. CYCLE   63 ......................................
................................................................................
   1    -50.7556867 -0.507557E+02  0.174E-01    9.40       0.0  T
   2    -50.7556991 -0.124086E-04  0.131E-01    9.39       1.0  T
   3    -50.7557111 -0.120670E-04  0.220E-02    9.39       1.0  T
   4    -50.7557123 -0.117391E-05  0.759E-03    9.39       2.6  T
   5    -50.7557124 -0.660357E-07  0.247E-03    9.39       7.9  T
   6    -50.7557124 -0.509807E-08  0.141E-03    9.39      13.9  T
speedup  0.94
cpu  time for SCC    0.00 s
wall time for SCC    0.01 s
speedup  0.97
cpu  time for grad    0.01 s
wall time for grad    0.01 s
 E :    -50.46369862  G :  0.038625    pred/act E change: -0.155D-03  0.102D-02
Maxdispl :   0.0903   ||displ|| :   0.1844   Lambda : -0.222D-02
Largest |displ|/coords:  0.0903 (   5)  0.0714 (   4)  0.0619 (   7)
................................................................................
.............................. CYCLE   64 ......................................
................................................................................
   1    -50.7458802 -0.507459E+02  0.159E-01    9.33       0.0  T
   2    -50.7458900 -0.981596E-05  0.120E-01    9.34       1.0  T
   3    -50.7458999 -0.992630E-05  0.180E-02    9.34       1.1  T
   4    -50.7459009 -0.967608E-06  0.587E-03    9.34       3.3  T
   5    -50.7459009 -0.349254E-07  0.226E-03    9.34       8.7  T
speedup  0.91
cpu  time for SCC    0.00 s
wall time for SCC    0.00 s
speedup  0.96
cpu  time for grad    0.01 s
wall time for grad    0.01 s
 E :    -50.46481224  G :  0.007039    pred/act E change: -0.261D-03 -0.111D-02
Maxdispl :   0.1275   ||displ|| :   0.1828   Lambda : -0.353D-03
Largest |displ|/coords:  0.1275 (   2)  0.0719 (  11)  0.0696 (  16)
................................................................................
.............................. CYCLE   65 ......................................
................................................................................
   1    -50.7410650 -0.507411E+02  0.152E-01    9.35       0.0  T
   2    -50.7410732 -0.813003E-05  0.115E-01    9.35       1.0  T
   3    -50.7410794 -0.622919E-05  0.159E-02    9.36       1.2  T
[...]
   5    -50.7461676 -0.462045E-09  0.168E-04    9.33     117.0  T
speedup  0.89
cpu  time for SCC    0.00 s
wall time for SCC    0.00 s
speedup  0.98
cpu  time for grad    0.01 s
wall time for grad    0.01 s
 E :    -50.46519719  G :  0.001455    pred/act E change: -0.345D-05 -0.218D-05
Maxdispl :   0.0106   ||displ|| :   0.0147   Lambda : -0.290D-05
Largest |displ|/coords:  0.0106 (   5)  0.0037 (  11)  0.0035 (   4)

generating ANC from model Hessian ...
 Shifting diagonal of input Hessian by   4.517508361599917E-003
 Lowest  eigenvalues of input Hessian
   -0.000000   -0.000000   -0.000000   -0.000000    0.000000    0.000000
    0.005000    0.005451    0.006047    0.006283    0.007057    0.008069
    0.008302    0.009122    0.009406    0.010292    0.010994    0.011828
 Highest eigenvalues
    1.393986    1.399312    1.465731    2.586933    3.441796    3.654044
 
cpu  time for ANC gen    0.02 s
wall time for ANC gen    0.02 s
................................................................................
.............................. CYCLE   82 ......................................
................................................................................
   1    -50.7461193 -0.507461E+02  0.789E-03    9.34       0.0  T
   2    -50.7461194 -0.204423E-07  0.572E-03    9.34       3.4  T
   3    -50.7461194 -0.130542E-07  0.118E-03    9.34      16.7  T
   4    -50.7461194 -0.196317E-08  0.394E-04    9.34      49.8  T
   5    -50.7461194 -0.152021E-09  0.715E-05    9.34     274.3  T
speedup  0.89
cpu  time for SCC    0.00 s
wall time for SCC    0.00 s
speedup  0.98
cpu  time for grad    0.01 s
wall time for grad    0.01 s
 E :    -50.46519924  G :  0.001244    pred/act E change:  0.000D+00 -0.205D-05
Maxdispl :   0.0093   ||displ|| :   0.0228   Lambda : -0.736D-05
Largest |displ|/coords:  0.0093 (  13)  0.0083 (   5)  0.0074 (   2)
................................................................................
.............................. CYCLE   83 ......................................
................................................................................
   1    -50.7460504 -0.507461E+02  0.226E-02    9.34       0.0  T
   2    -50.7460504 -0.724883E-07  0.172E-02    9.34       1.1  T
   3    -50.7460505 -0.918377E-07  0.131E-03    9.34      14.9  T
   4    -50.7460505 -0.379352E-08  0.453E-04    9.34      43.3  T
   5    -50.7460505 -0.211088E-09  0.177E-04    9.34     111.0  T
speedup  1.09
cpu  time for SCC    0.00 s
wall time for SCC    0.00 s
speedup  0.98
cpu  time for grad    0.01 s
wall time for grad    0.01 s
 E :    -50.46520478  G :  0.000553    pred/act E change:  0.000D+00 -0.554D-05
Maxdispl :   0.0218   ||displ|| :   0.0475   Lambda : -0.883D-05
Largest |displ|/coords:  0.0218 (  13)  0.0157 (   6)  0.0140 (   2)
................................................................................
.............................. CYCLE   84 ......................................
................................................................................
   1    -50.7459307 -0.507459E+02  0.425E-02    9.34       0.0  T
   2    -50.7459309 -0.204434E-06  0.322E-02    9.34       1.0  T
   3    -50.7459312 -0.253190E-06  0.219E-03    9.34       9.0  T
   4    -50.7459312 -0.115387E-07  0.699E-04    9.34      28.1  T
   5    -50.7459312 -0.331823E-09  0.361E-04    9.34      54.3  T
speedup  0.89
cpu  time for SCC    0.00 s
wall time for SCC    0.00 s
speedup  0.91
cpu  time for grad    0.01 s
wall time for grad    0.01 s
 E :    -50.46520986  G :  0.001338    pred/act E change: -0.368D-05 -0.508D-05
Maxdispl :   0.0102   ||displ|| :   0.0229   Lambda : -0.306D-05
Largest |displ|/coords:  0.0102 (  13)  0.0093 (   1)  0.0072 (   2)
................................................................................
.............................. CYCLE   85 ......................................
................................................................................
   1    -50.7459728 -0.507460E+02  0.169E-02    9.34       0.0  T
   2    -50.7459728 -0.303688E-07  0.128E-02    9.34       1.5  T
   3    -50.7459729 -0.350316E-07  0.946E-04    9.34      20.7  T
   4    -50.7459729 -0.211595E-08  0.356E-04    9.34      55.1  T
speedup  1.11
cpu  time for SCC    0.00 s
wall time for SCC    0.00 s
speedup  1.04
cpu  time for grad    0.01 s
wall time for grad    0.01 s
 E :    -50.46521213  G :  0.001151    pred/act E change: -0.443D-05 -0.227D-05
Maxdispl :   0.0223   ||displ|| :   0.0499   Lambda : -0.620D-05
Largest |displ|/coords:  0.0223 (  13)  0.0196 (   5)  0.0165 (   3)
................................................................................
.............................. CYCLE   86 ......................................
................................................................................
   1    -50.7460853 -0.507461E+02  0.348E-02    9.34       0.0  T
   2    -50.7460854 -0.124674E-06  0.262E-02    9.34       1.0  T
   3    -50.7460856 -0.161530E-06  0.194E-03    9.34      10.1  T
   4    -50.7460856 -0.543358E-08  0.617E-04    9.34      31.8  T
   5    -50.7460856 -0.378492E-09  0.289E-04    9.34      67.9  T
speedup  0.91
cpu  time for SCC    0.00 s
wall time for SCC    0.00 s
speedup  0.99
cpu  time for grad    0.01 s
wall time for grad    0.01 s
 E :    -50.46521486  G :  0.000434    pred/act E change: -0.153D-05 -0.272D-05
Maxdispl :   0.0090   ||displ|| :   0.0112   Lambda : -0.147D-05
Largest |displ|/coords:  0.0090 (   1)  0.0029 (  13)  0.0023 (  20)
................................................................................
.............................. CYCLE   87 ......................................
................................................................................
   1    -50.7461128 -0.507461E+02  0.603E-03    9.34       0.0  T
   2    -50.7461128 -0.708810E-08  0.455E-03    9.34       4.3  T
   3    -50.7461128 -0.575918E-08  0.505E-04    9.34      38.8  T
   4    -50.7461128 -0.918000E-09  0.207E-04    9.34      95.0  T
speedup  0.83
cpu  time for SCC    0.00 s
wall time for SCC    0.00 s
speedup  0.98
cpu  time for grad    0.01 s
wall time for grad    0.01 s
 E :    -50.46521560  G :  0.000383    pred/act E change: -0.311D-05 -0.739D-06
Maxdispl :   0.0038   ||displ|| :   0.0081   Lambda : -0.417D-06
Largest |displ|/coords:  0.0038 (   1)  0.0036 (   5)  0.0032 (  13)
................................................................................
.............................. CYCLE   88 ......................................
................................................................................
   1    -50.7460727 -0.507461E+02  0.458E-03    9.34       0.0  T
   2    -50.7460727 -0.518715E-08  0.346E-03    9.34       5.7  T
   3    -50.7460727 -0.524814E-08  0.458E-04    9.34      42.8  T
   4    -50.7460727 -0.569500E-09  0.162E-04    9.34     121.0  T
speedup  0.83
cpu  time for SCC    0.00 s
wall time for SCC    0.00 s
speedup  0.98
cpu  time for grad    0.01 s
wall time for grad    0.01 s
 E :    -50.46521590  G :  0.000183    pred/act E change: -0.735D-06 -0.309D-06
Maxdispl :   0.0059   ||displ|| :   0.0113   Lambda : -0.421D-06
Largest |displ|/coords:  0.0059 (   1)  0.0052 (   5)  0.0044 (   3)
................................................................................
.............................. CYCLE   89 ......................................
................................................................................
   1    -50.7460462 -0.507460E+02  0.433E-03    9.34       0.0  T
   2    -50.7460462 -0.605889E-08  0.325E-03    9.34       6.0  T
   3    -50.7460462 -0.462112E-08  0.504E-04    9.34      38.9  T
   4    -50.7460462 -0.842540E-09  0.181E-04    9.34     108.3  T
speedup  1.08
cpu  time for SCC    0.00 s
wall time for SCC    0.00 s
speedup  1.04
cpu  time for grad    0.01 s
wall time for grad    0.01 s
 E :    -50.46521616  G :  0.000103    pred/act E change: -0.209D-06 -0.259D-06
Maxdispl :   0.0034   ||displ|| :   0.0060   Lambda : -0.102D-06
Largest |displ|/coords:  0.0034 (   1)  0.0027 (   3)  0.0025 (   5)
................................................................................
.............................. CYCLE   90 ......................................
................................................................................
   1    -50.7460352 -0.507460E+02  0.225E-03    9.34       0.0  T
   2    -50.7460352 -0.103760E-08  0.169E-03    9.34      11.6  T
   3    -50.7460352 -0.866365E-09  0.180E-04    9.34     108.9  T
   4    -50.7460352 -0.140886E-09  0.816E-05    9.34     240.3  T
speedup  0.81
cpu  time for SCC    0.00 s
wall time for SCC    0.00 s
speedup  0.88
cpu  time for grad    0.01 s
wall time for grad    0.01 s
 E :    -50.46521625  G :  0.000103    pred/act E change: -0.211D-06 -0.822D-07
Maxdispl :   0.0050   ||displ|| :   0.0098   Lambda : -0.143D-06
Largest |displ|/coords:  0.0050 (   1)  0.0042 (   5)  0.0041 (   3)

   *** GEOMETRY OPTIMIZATION CONVERGED AFTER 90 ITERATIONS ***

------------------------------------------------------------------------
 total energy gain (kcal):     -0.0107
------------------------------------------------------------------------
================
 final structure:
================
$coord
        1.94981324559515       -1.63718971047211       -2.05508940428645      S 
        0.58178648677953       -2.49128986484339       -4.25382647107787      O 
        0.57229001982341       -2.06276809454802        0.29578302233622      O 
        2.31423073511228        1.32009201671770       -2.28656810730895      O 
        4.52790438920092       -2.59955499182899       -1.80520837338751      O 
        4.86125139527507       -2.22337484233076        0.87449197601689      H 
        0.60736660817425        2.13967514800159       -2.55802028072915      H 
       -4.22251678960819       -1.59818567354730        1.44776430168465      O 
       -2.46070067515205       -2.09671619267300        1.15040444188336      H 
       -4.93519604138303       -1.55861982482218       -0.23347332253071      H 
        2.65037231510666        2.64747301036475        2.65676668630168      O 
        0.83173521853403        2.68898575749650        2.96202460879048      H 
        2.79515875801843        2.63455807693473        0.82219493315382      H 
       -2.10522944065974        3.26875963559645       -2.47004819094294      O 
       -3.12659230506909        1.82873846246218       -3.01856187996487      H 
       -2.38901813534014        3.44857356653321       -0.66008840837773      H 
       -2.57692384429061        2.89126264404831        2.70683083285551      O 
       -3.28365460857269        1.16882756145266        2.39772949461929      H 
       -3.67139174744455        3.69755106972281        3.90147961991164      H 
       -4.14752292042737       -1.21394792916210       -3.83744167932186      O 
       -4.90418878499941       -1.48901094181525       -5.46024712089991      H 
       -2.39167772064415       -1.85977465170080       -3.98413125972567      H 
        4.73268863362781       -1.84250447279208        2.92504925607617      N 
        3.91108454850823        0.01058977497957        3.05440057869038      H 
        6.42597436112068       -1.96955523747405        3.81771944261039      H 
        3.45295629873978       -3.10259429630143        3.61006528469551      H 
$end
 
 Bond Distances (Angstroems)
 ---------------------------
S1-O2=1.4430         S1-O3=1.4593         S1-O4=1.5815         S1-O5=1.4622         O2-S1=1.4430         O3-S1=1.4593         
O4-S1=1.5815         O4-H7=1.0122         O5-S1=1.4622         H6-N23=1.1058        H7-O4=1.0122         O8-H9=0.9816         
O8-H10=0.9665        H9-O8=0.9816         H10-O8=0.9665        O11-H12=0.9761       O11-H13=0.9739       H12-O11=0.9761       
H13-O11=0.9739       O14-H15=0.9783       O14-H16=0.9741       H15-O14=0.9783       H16-O14=0.9741       O17-H18=0.9987       
O17-H19=0.9577       H18-O17=0.9987       H19-O17=0.9577       O20-H21=0.9586       O20-H22=0.9931       H21-O20=0.9586       
H22-O20=0.9931       N23-H6=1.1058        N23-H24=1.0749       N23-H25=1.0152       N23-H26=1.0172       H24-N23=1.0749       
H25-N23=1.0152       H26-N23=1.0172       
 N  H  Rav=1.0532 sigma=0.0387  Rmin=1.0152  Rmax=1.1058     4
 O  H  Rav=0.9792 sigma=0.0159  Rmin=0.9577  Rmax=1.0122    11
 S  O  Rav=1.4865 sigma=0.0553  Rmin=1.4430  Rmax=1.5815     4
 
 selected bond angles (degree)
 --------------------
O3-S1-O2=112.86                O4-S1-O2=107.98                O4-S1-O3=106.24                O5-S1-O2=115.59                
O5-S1-O3=109.59                O5-S1-O4=103.76                H7-O4-S1=109.04                H10-O8-H9=103.23               
 
 selected dihedral angles (degree)
 ---------------------------------
H7-O4-S1-O2= 53.99            H7-O4-S1-O3=292.67            H7-O4-S1-O5=177.15            
 
 CMA Distance (Angstroems)
 ---------------------------
R(CMA):  2.3855

========================================================================
 FINAL SINGLEPOINT CALCULATION ON OPTIMIZED GEOMETRY
========================================================================

 Ncao       : 65
 Nao        : 64
 Nshell     : 38
 Nel        : 80
 T(el)      :   300.0
 intcut     :    25.0
 scfconv/Eh :  0.100E-05
   qconv/e  :  0.100E-03
 intneglect :  0.100E-07
 broydamp   :      0.250
 iter      E             dE          RMSdq      gap      omega  full diag
   1    -50.7460352 -0.507460E+02  0.252E-05    9.34       0.0  T
   2    -50.7460352 -0.653699E-12  0.166E-05    9.34    1180.0  T
   3    -50.7460352 -0.333955E-12  0.421E-06    9.34    4654.8  T
speedup  1.11
cpu  time for SCC    0.00 s
wall time for SCC    0.00 s

   *** convergence criteria satisfied after 3 iterations ***

          eigenvalues
 #    :          28         29         30         31         32         33         34         35
 occ. :        2.000      2.000      2.000      2.000      2.000      2.000      2.000      2.000
 eps  :       -13.415    -12.773    -12.416    -12.306    -12.281    -12.107    -12.078    -12.035
 #    :          36         37         38         39         40         41         42         43
 occ. :        2.000      2.000      2.000      2.000      2.000      0.000      0.000      0.000
 eps  :       -11.891    -11.725    -11.718    -11.621    -11.515     -2.178     -0.893     -0.071
 #    :          44         45         46         47         48         49         50         51
 occ. :        0.000      0.000      0.000      0.000      0.000      0.000      0.000      0.000
 eps  :         0.377      1.124      1.571      1.950      3.142      3.546      4.238      4.977


   #   Z            q   n(s)   n(p)   n(d)      C6AA      α(0)
   1  16 S      1.661  1.588  1.796  0.955    89.661    15.937
   2   8 O     -0.714  1.765  4.949  0.000    29.097     7.232
   3   8 O     -0.770  1.765  5.005  0.000    30.693     7.428
   4   8 O     -0.657  1.773  4.884  0.000    26.562     6.957
   5   8 O     -0.711  1.769  4.943  0.000    28.976     7.219
   6   1 H      0.307  0.693  0.000  0.000     0.690     1.300
   7   1 H      0.379  0.621  0.000  0.000     0.523     1.134
   8   8 O     -0.624  1.756  4.868  0.000    25.773     6.852
   9   1 H      0.329  0.671  0.000  0.000     0.640     1.256
  10   1 H      0.311  0.689  0.000  0.000     0.688     1.303
  11   8 O     -0.609  1.747  4.862  0.000    25.411     6.804
  12   1 H      0.333  0.667  0.000  0.000     0.629     1.246
  13   1 H      0.320  0.680  0.000  0.000     0.663     1.279
  14   8 O     -0.625  1.764  4.861  0.000    25.796     6.855
  15   1 H      0.326  0.674  0.000  0.000     0.647     1.264
  16   1 H      0.328  0.672  0.000  0.000     0.644     1.260
  17   8 O     -0.636  1.752  4.884  0.000    26.077     6.892
  18   1 H      0.341  0.659  0.000  0.000     0.610     1.227
  19   1 H      0.283  0.717  0.000  0.000     0.774     1.382
  20   8 O     -0.629  1.746  4.883  0.000    25.898     6.868
  21   1 H      0.288  0.712  0.000  0.000     0.758     1.367
  22   1 H      0.333  0.667  0.000  0.000     0.630     1.247
  23   7 N     -0.343  1.275  4.067  0.000    28.800     7.971
  24   1 H      0.302  0.698  0.000  0.000     0.707     1.317
  25   1 H      0.231  0.769  0.000  0.000     0.963     1.537
  26   1 H      0.247  0.753  0.000  0.000     0.896     1.483

 Mol. C6AA /au·bohr⁶  :       5453.635766
 Mol. C8AA /au·bohr⁸  :     118117.319022
 Mol. α(0) /au        :        106.617066

 
 Wiberg/Mayer (AO) data. WBOs > 0.1 written file <wbo>
 largest (>0.05) Wiberg bond orders for each atom
           total WBO             WBO to atom ...
     1  S   4.869    O    2 1.352    O    3 1.295    O    5 1.274    O    4 0.910
     2  O   1.758    S    1 1.352    O    3 0.112    O    5 0.097    O    4 0.082    H   22 0.079
     3  O   1.679    S    1 1.295    O    2 0.112    O    5 0.102    O    4 0.080    H    9 0.057
     4  O   1.946    S    1 0.910    H    7 0.703    O    2 0.082    O    3 0.080    O    5 0.062
     5  O   1.802    S    1 1.274    H    6 0.181    O    3 0.102    O    2 0.097    N   23 0.068    O    4 0.062
     6  H   0.906    N   23 0.716    O    5 0.181
     7  H   0.856    O    4 0.703    O   14 0.137
     8  O   1.894    H   10 0.879    H    9 0.830    H   18 0.095
     9  H   0.892    O    8 0.830    O    3 0.057
    10  H   0.903    O    8 0.879
    11  O   1.943    H   13 0.854    H   12 0.843    H   24 0.136    N   23 0.064
    12  H   0.889    O   11 0.843
    13  H   0.897    O   11 0.854
    14  O   1.928    H   16 0.848    H   15 0.836    H    7 0.137
    15  H   0.894    O   14 0.836    O   20 0.055
    16  H   0.893    O   14 0.848
    17  O   1.861    H   19 0.912    H   18 0.785
    18  H   0.884    O   17 0.785    O    8 0.095
    19  H   0.920    O   17 0.912
    20  O   1.862    H   21 0.909    H   22 0.805    H   15 0.055
    21  H   0.917    O   20 0.909
    22  H   0.889    O   20 0.805    O    2 0.079
    23  N   3.507    H   25 0.942    H   26 0.933    H   24 0.767    H    6 0.716    O    5 0.068    O   11 0.064
    24  H   0.909    N   23 0.767    O   11 0.136
    25  H   0.947    N   23 0.942
    26  H   0.939    N   23 0.933
 MOs/occ written to file <molden.input>
 
molecular dipole:
                 x           y           z       tot (Debye)
 q only:        0.496       0.126       2.263
   full:        0.185      -0.110       1.836       4.698
molecular quadrupole (traceless):
                xx          xy          yy          xz          yz          zz
 q only:        6.852      -5.881      -7.662      18.020      -5.873       0.811
  q+dip:        5.929      -7.280      -8.936      17.679      -4.119       3.007
   full:        6.212      -7.448      -9.265      17.850      -3.923       3.053

SCC energy    :     -50.7460352
rep           :       0.2805035
ES            :       0.2672439
AES           :      -0.0720983
AXC           :      -0.0087420
disp          :      -0.0203688
XB            :       0.0000000
fix           :       0.0000000
total E       :     -50.4652162
atomizationE  :       4.9955204     3134.74
(atE without considering molecular charge,
 total energy contains solvation terms)
H-L gap (eV)  :          9.3366
optimized geometry written to: xtbopt.xyz


------------------------------------------------------------------------
 * finished run on 2019/09/16 at 11:23:27.412     
------------------------------------------------------------------------
 total:
 * wall-time:     0 d,  0 h,  0 min,  2.328 sec
 *  cpu-time:     0 d,  0 h,  0 min,  2.057 sec
 * ratio c/w:     0.883 speedup
 SCF:
 * wall-time:     0 d,  0 h,  0 min,  0.151 sec
 *  cpu-time:     0 d,  0 h,  0 min,  0.147 sec
 * ratio c/w:     0.976 speedup
 ANC optimizer:
 * wall-time:     0 d,  0 h,  0 min,  2.151 sec
 *  cpu-time:     0 d,  0 h,  0 min,  1.886 sec
 * ratio c/w:     0.877 speedup

