      -----------------------------------------------------------      
     |                   =====================                   |     
     |                           x T B                           |     
     |                   =====================                   |     
     |                         S. Grimme                         |     
     |          Mulliken Center for Theoretical Chemistry        |     
     |                    University of Bonn                     |     
     |                 Version 6.0.1 (SAW181210)                 |     
      -----------------------------------------------------------      

   This program is distributed in the hope that it will be useful,
   but WITHOUT ANY WARRANTY; without even the implied warranty of
   MERCHANTABILITY or FITNESS FOR A PARTICULAR PURPOSE.
   
   FOR NON-COMMERCIAL, ACADEMIA USE ONLY.
   
   Cite this work as:
   S. Grimme, C. Bannwarth, P. Shushkov, J. Comput. Theory Chem., 2017,
   13, 1989-2009.
   C. Bannwarth, S. Ehlert and S. Grimme., ChemRxiv, 2018, preprint.
   http://doi.org/10.26434/chemrxiv.7246238.v1
   
   for sTDA-xTB:
   S. Grimme and C. Bannwarth, J. Chem. Phys., 2016, 145, 054103.
   
   in the mass-spec context:
   V. Asgeirsson, C. Bauer and S. Grimme, Chem. Sci., 2017, 8, 4879.
   
   if GBSA is used:
   P. Shushkov, F. März and S. Grimme, unpublished.
   
   for ANC optimizer:
   S. Grimme, unpublished.
   Rational Function algorithm used in ANCopt:
   F. Eckert, P. Pulay, H.-J. Werner, J. Comput. Chem., 1997, 18, 1473.
   
   with help from (in alphabetical order)
   C. Bannwarth, F. Bohle, G. Brandenburg, E. Caldeweyher, M. Checinski,
   S. Dohm, S. Ehlert, S. Ehrlich, F. März, H. Neugebauer, J. Pisarek,
   P. Pracht, P. Shushkov, and S. Spicher.
   
 * started run on 2019/09/16 at 12:15:07.407     
========================================================================
 # omp threads = 1
========================================================================
number of atoms            : 26
number of electrons        : 80
charge                     : 0
spin                       : .0
first test random number   : .2195

########################################################################
# WARNING! Please study the warnings concerning your input carefully
#  - XTBPATH is not set, using XTBHOME instead
#  - the use of '-opt' is discouraged, please use '--opt' next time
#  - the use of '-chrg' is discouraged, please use '--chrg' next time
#  - the use of '-uhf' is discouraged, please use '--uhf' next time
########################################################################

           ------------------------------------------------- 
          |                 G F N 2 - x T B                 |
          | Geometry, Frequencies, Noncovalent interactions |
          |            JCTC 2018 parametrisation            |
           ------------------------------------------------- 
      method parameters     
 k(s)        :  1.8500
 k(p)        :  2.2300
 k(d)        :  2.2300
 k(f)        :  2.0000
 kEN (H0ij)  : -2.0000
 D4 a1       :  0.5200
 D4 a2       :  5.0000
 D4 s6       :  1.0000
 D4 s8       :  2.7000
 D4 s9       :  5.0000
 alphaj      :  2.0000


            Z     q(EN)     CN     RAES       Cart. coordinates
     1  S   6.0    0.68    4.11    3.87     1.37732     0.15312    -0.35303
     2  O   6.0   -0.31    1.22    1.80     4.10929    -0.43044    -0.00103
     3  O   6.0   -0.34    1.26    1.80    -0.01462    -2.21282    -0.97985
     4  O   6.0   -0.32    1.22    1.80     0.33866     1.25188     2.02227
     5  O   6.0   -0.31    1.23    1.80     1.07596     2.00388    -2.45350
     6  O   6.0   -0.29    2.04    1.83    -4.89799    -0.52787    -0.59379
     7  H   1.0    0.17    1.04    1.43    -3.41737    -1.57338    -0.76488
     8  H   1.0    0.16    1.00    1.43    -5.01481    -0.14560     1.18240
     9  O   6.0   -0.29    2.03    1.83     8.06014    -3.40209    -0.24338
    10  H   1.0    0.17    1.06    1.44     6.81894    -2.08448    -0.04858
    11  H   1.0    0.15    0.97    1.43     9.65013    -2.63547     0.20252
    12  O   6.0   -0.30    2.04    1.83    -4.07228     1.99201     4.08949
    13  H   1.0    0.15    0.97    1.43    -4.03440     1.38143     5.80424
    14  H   1.0    0.18    1.07    1.44    -2.37811     1.76873     3.46138
    15  O   6.0   -0.29    2.05    1.83    -4.35353     6.27994     1.37489
    16  H   1.0    0.16    1.03    1.43    -4.41364     4.86927     2.52425
    17  H   1.0    0.15    0.97    1.43    -3.95224     7.72508     2.40695
    18  O   6.0   -0.22    2.91    2.55    -3.46923     3.68257    -2.68039
    19  H   1.0    0.15    1.08    1.44    -1.64422     3.38172    -2.94243
    20  H   1.0    0.14    1.04    1.43    -4.39484     2.10086    -2.31785
    21  H   1.0    0.14    1.05    1.44    -3.78318     4.98920    -1.38206
    22  N   5.0   -0.14    3.93    2.69     3.68200    -5.71351    -1.66153
    23  H   1.0    0.08    0.99    1.43     3.77400    -6.20915    -3.54044
    24  H   1.0    0.11    1.07    1.44     5.35859    -4.88431    -1.12679
    25  H   1.0    0.12    1.11    1.45     2.22213    -4.45601    -1.39334
    26  H   1.0    0.08    0.99    1.43     3.37330    -7.30455    -0.58555

  Z AO/shell   Hii/eV     exponent
  1     Wed Apr 25 08:07:45 CEST 2018   EN: 2.200 GM2: 0.406  GM3: 0.0800  RAES: 1.40
     1s    -10.707211    1.230000
  7     Wed Apr 25 08:07:45 CEST 2018   EN: 3.040 GM2: 0.461  GM3:-0.0640  RAES: 1.90
     2s    -16.686243    2.339881
     2p    -12.523956    2.014332
  8     Wed Apr 25 08:07:45 CEST 2018   EN: 3.440 GM2: 0.452  GM3:-0.0517  RAES: 1.80
     2s    -20.229985    2.439742
     2p    -15.503117    2.137023
 16     Tue Apr 24 11:44:34 CEST 2018   EN: 2.580 GM2: 0.340  GM3:-0.0502  RAES: 3.10
     3s    -20.029654    1.981333
     3p    -11.377694    2.025643
     3d     -0.420282    1.702555
 no old-style atom pair restraining (fixing) potential

molecular fragmentation (1/2 indicates fragments):
11111222222222222222222222
# atoms in fragment 1/2:     5    21
 fragment masses (1/2) :       96.06      109.12
CMA distance (Bohr)    :   2.261
constraining FC (au)   :  0.0500
           ------------------------------------------------- 
          |        Self-Consistent Charge Iterations        |
           ------------------------------------------------- 

 Ncao       : 65
 Nao        : 64
 Nshell     : 38
 Nel        : 80
 T(el)      :   300.0
 intcut     :    25.0
 scfconv/Eh :  0.100E-05
   qconv/e  :  0.100E-03
 intneglect :  0.100E-07
 broydamp   :      0.250
 iter      E             dE          RMSdq      gap      omega  full diag
   1    -50.6156289 -0.506156E+02  0.698E+00   10.32       0.0  T
   2    -50.6546843 -0.390554E-01  0.502E+00    9.90       1.0  T
   3    -50.6881613 -0.334771E-01  0.107E+00    7.47       1.0  T
   4    -50.6919132 -0.375192E-02  0.537E-01    7.45       1.0  T
   5    -50.6927760 -0.862712E-03  0.219E-01    7.31       1.0  T
   6    -50.6929897 -0.213724E-03  0.112E-01    7.34       1.0  T
   7    -50.6930639 -0.741905E-04  0.416E-02    7.41       1.0  T
   8    -50.6930704 -0.652887E-05  0.260E-02    7.41       1.0  T
   9    -50.6930746 -0.422287E-05  0.781E-03    7.40       2.5  T
  10    -50.6930749 -0.229271E-06  0.160E-03    7.40      12.3  T
  11    -50.6930749 -0.146552E-07  0.760E-04    7.40      25.8  T
  12    -50.6930749 -0.323938E-08  0.336E-04    7.40      58.3  T
speedup  0.99
cpu  time for SCC    0.01 s
wall time for SCC    0.01 s

   *** convergence criteria satisfied after 12 iterations ***

          eigenvalues
 #    :          28         29         30         31         32         33         34         35
 occ. :        2.000      2.000      2.000      2.000      2.000      2.000      2.000      2.000
 eps  :       -11.869    -11.812    -11.780    -11.764    -11.603    -10.504    -10.342     -9.699
 #    :          36         37         38         39         40         41         42         43
 occ. :        2.000      2.000      2.000      2.000      2.000      0.000      0.000      0.000
 eps  :        -9.587     -9.533     -9.290     -9.186     -9.087     -1.688     -0.648      0.566
 #    :          44         45         46         47         48         49         50         51
 occ. :        0.000      0.000      0.000      0.000      0.000      0.000      0.000      0.000
 eps  :         1.902      2.132      2.817      2.888      3.125      3.191      3.356      5.237


   #   Z            q   n(s)   n(p)   n(d)      C6AA      α(0)
   1  16 S      1.484  1.605  1.903  1.008    93.836    16.304
   2   8 O     -0.798  1.777  5.021  0.000    31.514     7.527
   3   8 O     -0.805  1.777  5.028  0.000    31.731     7.552
   4   8 O     -0.789  1.778  5.011  0.000    31.253     7.495
   5   8 O     -0.782  1.778  5.004  0.000    31.042     7.470
   6   8 O     -0.623  1.739  4.885  0.000    25.749     6.849
   7   1 H      0.324  0.676  0.000  0.000     0.652     1.269
   8   1 H      0.315  0.685  0.000  0.000     0.678     1.293
   9   8 O     -0.632  1.730  4.902  0.000    25.953     6.876
  10   1 H      0.343  0.657  0.000  0.000     0.605     1.222
  11   1 H      0.286  0.714  0.000  0.000     0.764     1.373
  12   8 O     -0.631  1.742  4.889  0.000    25.945     6.875
  13   1 H      0.279  0.721  0.000  0.000     0.789     1.395
  14   1 H      0.348  0.652  0.000  0.000     0.592     1.209
  15   8 O     -0.610  1.729  4.880  0.000    25.419     6.805
  16   1 H      0.341  0.659  0.000  0.000     0.611     1.228
  17   1 H      0.290  0.710  0.000  0.000     0.753     1.363
  18   8 O     -0.431  1.645  4.786  0.000    21.396     6.247
  19   1 H      0.409  0.591  0.000  0.000     0.468     1.075
  20   1 H      0.404  0.596  0.000  0.000     0.478     1.086
  21   1 H      0.407  0.593  0.000  0.000     0.472     1.079
  22   7 N     -0.272  1.243  4.029  0.000    27.021     7.720
  23   1 H      0.251  0.749  0.000  0.000     0.881     1.470
  24   1 H      0.325  0.675  0.000  0.000     0.642     1.255
  25   1 H      0.318  0.682  0.000  0.000     0.662     1.275
  26   1 H      0.248  0.752  0.000  0.000     0.890     1.478

 Mol. C6AA /au·bohr⁶  :       5480.399127
 Mol. C8AA /au·bohr⁸  :     119261.005062
 Mol. α(0) /au        :        106.789589

 
 Wiberg/Mayer (AO) data. WBOs > 0.1 written file <wbo>
 largest (>0.05) Wiberg bond orders for each atom
           total WBO             WBO to atom ...
     1  S   5.023    O    2 1.276    O    4 1.268    O    5 1.243    O    3 1.195
     2  O   1.644    S    1 1.276    O    3 0.093    O    4 0.089    O    5 0.086    H   10 0.057
     3  O   1.681    S    1 1.195    H   25 0.102    O    2 0.093    O    4 0.093    O    5 0.092
     4  O   1.656    S    1 1.268    O    5 0.101    O    3 0.093    O    2 0.089    H   14 0.071
     5  O   1.685    S    1 1.243    H   19 0.115    O    4 0.101    O    3 0.092    O    2 0.086
     6  O   1.888    H    8 0.873    H    7 0.850    H   20 0.091
     7  H   0.895    O    6 0.850
     8  H   0.901    O    6 0.873
     9  O   1.825    H   11 0.902    H   10 0.815    H   24 0.054
    10  H   0.882    O    9 0.815    O    2 0.057
    11  H   0.918    O    9 0.902
    12  O   1.852    H   13 0.913    H   14 0.799
    13  H   0.922    O   12 0.913
    14  H   0.879    O   12 0.799    O    4 0.071
    15  O   1.870    H   17 0.905    H   16 0.833    H   21 0.078
    16  H   0.884    O   15 0.833
    17  H   0.916    O   15 0.905
    18  O   2.316    H   21 0.750    H   20 0.742    H   19 0.709
    19  H   0.832    O   18 0.709    O    5 0.115
    20  H   0.837    O   18 0.742    O    6 0.091
    21  H   0.834    O   18 0.750    O   15 0.078
    22  N   3.568    H   26 0.935    H   23 0.933    H   24 0.826    H   25 0.787
    23  H   0.937    N   22 0.933
    24  H   0.894    N   22 0.826    O    9 0.054
    25  H   0.899    N   22 0.787    O    3 0.102
    26  H   0.938    N   22 0.935
 MOs/occ written to file <molden.input>
 
molecular dipole:
                 x           y           z       tot (Debye)
 q only:       -0.593      -2.083      -0.702
   full:       -0.048      -2.105       0.046       5.352
molecular quadrupole (traceless):
                xx          xy          yy          xz          yz          zz
 q only:      -10.593     -27.453      22.699      -4.557       9.314     -12.106
  q+dip:      -13.118     -23.103      22.251      -7.703      12.511      -9.134
   full:      -13.117     -23.155      22.304      -7.806      12.609      -9.187

SCC energy    :     -50.6930749
rep           :       0.2958012
ES            :       0.3688990
AES           :      -0.0844378
AXC           :      -0.0102437
disp          :      -0.0178365
XB            :       0.0000000
fix           :       0.0000000
total E       :     -50.3972015
atomizationE  :       4.9275057     3092.06
(atE without considering molecular charge,
 total energy contains solvation terms)
H-L gap (eV)  :          7.3988
           ------------------------------------------------- 
          |                 ===============                 |
          |                   A N C O P T                   |
          |                 ===============                 |
          |          Approximate Normal Coordinate          |
          |           Rational Function Optimizer           |
           ------------------------------------------------- 
dumping coords to <xtbopt.coord> and <xtbopt.log>
 optlevel               2
 Maxcycle             520
 Maxmicro              25
 Econv         1.000000000000000E-007
 Gconv         2.000000000000000E-004
 Maxdispl       1.00000000000000     
 Hlow          5.000000000000000E-003
 S6             20.0000000000000     
 Nvar               72

generating ANC from model Hessian ...
 Shifting diagonal of input Hessian by   5.069205057512867E-003
 Lowest  eigenvalues of input Hessian
    0.005000    0.005026   -0.000000   -0.000000   -0.000000   -0.000000
    0.000000    0.000000    0.005329    0.005811    0.005841    0.006416
    0.006714    0.007138    0.007613    0.007914    0.008120    0.008385
 Highest eigenvalues
    1.441086    1.559731    1.560236    3.080593    3.083491    3.099859
 
cpu  time for ANC gen    0.01 s
wall time for ANC gen    0.01 s
................................................................................
.............................. CYCLE    1 ......................................
................................................................................
   1    -50.6930749 -0.506931E+02  0.680E-05    7.40       0.0  T
   2    -50.6930749 -0.104947E-10  0.510E-05    7.40     384.3  T
   3    -50.6930749 -0.844835E-11  0.249E-05    7.40     787.2  T
speedup  1.03
cpu  time for SCC    0.00 s
wall time for SCC    0.00 s
speedup  0.99
cpu  time for grad    0.01 s
wall time for grad    0.01 s
 E :    -50.39720149  G :  0.129856    pred/act E change:  0.000D+00  0.790D-08
Maxdispl :   0.3020   ||displ|| :   0.4900   Lambda : -0.277D-01
Largest |displ|/coords:  0.3020 (  21)  0.1567 (  28)  0.1531 (  27)
................................................................................
.............................. CYCLE    2 ......................................
................................................................................
   1    -50.6944486 -0.506944E+02  0.396E-01    7.77       0.0  T
   2    -50.6946744 -0.225839E-03  0.295E-01    7.86       1.0  T
   3    -50.6947775 -0.103118E-03  0.794E-02    8.07       1.0  T
   4    -50.6948032 -0.256844E-04  0.212E-02    8.07       1.0  T
   5    -50.6948042 -0.976806E-06  0.744E-03    8.06       2.6  T
   6    -50.6948043 -0.106250E-06  0.404E-03    8.06       4.8  T
   7    -50.6948043 -0.496802E-07  0.156E-03    8.06      12.5  T
speedup  0.95
cpu  time for SCC    0.01 s
wall time for SCC    0.01 s
speedup  0.94
cpu  time for grad    0.01 s
wall time for grad    0.01 s
 E :    -50.42020629  G :  0.079780    pred/act E change:  0.000D+00 -0.230D-01
Maxdispl :   0.3218   ||displ|| :   0.4992   Lambda : -0.170D-01
Largest |displ|/coords:  0.3218 (  21)  0.1737 (  35)  0.1439 (  30)
................................................................................
.............................. CYCLE    3 ......................................
................................................................................
   1    -50.6973933 -0.506974E+02  0.292E-01    8.32       0.0  T
   2    -50.6977589 -0.365595E-03  0.212E-01    8.40       1.0  T
   3    -50.6979226 -0.163729E-03  0.879E-02    8.53       1.0  T
   4    -50.6979370 -0.143634E-04  0.236E-02    8.56       1.0  T
   5    -50.6979381 -0.110040E-05  0.869E-03    8.56       2.3  T
   6    -50.6979383 -0.164224E-06  0.449E-03    8.56       4.4  T
   7    -50.6979383 -0.661658E-07  0.180E-03    8.55      10.9  T
speedup  0.95
cpu  time for SCC    0.01 s
wall time for SCC    0.01 s
speedup  1.01
cpu  time for grad    0.01 s
wall time for grad    0.01 s
 E :    -50.43355158  G :  0.055167    pred/act E change: -0.172D-01 -0.133D-01
Maxdispl :   0.2318   ||displ|| :   0.4155   Lambda : -0.742D-02
Largest |displ|/coords:  0.2318 (  21)  0.1480 (  12)  0.1114 (  35)
................................................................................
.............................. CYCLE    4 ......................................
................................................................................
   1    -50.7003129 -0.507003E+02  0.224E-01    8.70       0.0  T
   2    -50.7005797 -0.266837E-03  0.159E-01    8.75       1.0  T
   3    -50.7006992 -0.119437E-03  0.708E-02    8.83       1.0  T
   4    -50.7007072 -0.809150E-05  0.188E-02    8.85       1.0  T
   5    -50.7007080 -0.708154E-06  0.684E-03    8.85       2.9  T
   6    -50.7007081 -0.107795E-06  0.355E-03    8.85       5.5  T
   7    -50.7007081 -0.396259E-07  0.138E-03    8.85      14.2  T
speedup  1.13
cpu  time for SCC    0.01 s
wall time for SCC    0.01 s
speedup  1.01
cpu  time for grad    0.01 s
wall time for grad    0.01 s
 E :    -50.43892508  G :  0.044622    pred/act E change: -0.106D-01 -0.537D-02
Maxdispl :   0.1682   ||displ|| :   0.4086   Lambda : -0.478D-02
Largest |displ|/coords:  0.1682 (   4)  0.1505 (   8)  0.1454 (  21)
................................................................................
.............................. CYCLE    5 ......................................
................................................................................
   1    -50.7037657 -0.507038E+02  0.242E-01    8.97       0.0  T
   2    -50.7039526 -0.186823E-03  0.178E-01    9.01       1.0  T
   3    -50.7040364 -0.838034E-04  0.642E-02    9.09       1.0  T
   4    -50.7040474 -0.110383E-04  0.151E-02    9.10       1.3  T
   5    -50.7040481 -0.684182E-06  0.542E-03    9.09       3.6  T
   6    -50.7040482 -0.706131E-07  0.293E-03    9.09       6.7  T
speedup  0.93
cpu  time for SCC    0.00 s
wall time for SCC    0.01 s
speedup  0.99
cpu  time for grad    0.01 s
wall time for grad    0.01 s
 E :    -50.44229614  G :  0.030445    pred/act E change: -0.435D-02 -0.337D-02
Maxdispl :   0.1664   ||displ|| :   0.4041   Lambda : -0.289D-02
Largest |displ|/coords:  0.1664 (   9)  0.1561 (  12)  0.1490 (   4)
................................................................................
.............................. CYCLE    6 ......................................
................................................................................
   1    -50.7104760 -0.507105E+02  0.206E-01    9.13       0.0  T
   2    -50.7106127 -0.136657E-03  0.149E-01    9.17       1.0  T
   3    -50.7106741 -0.613590E-04  0.542E-02    9.24       1.0  T
   4    -50.7106815 -0.748077E-05  0.104E-02    9.24       1.9  T
   5    -50.7106820 -0.420450E-06  0.432E-03    9.24       4.5  T
   6    -50.7106820 -0.444151E-07  0.247E-03    9.24       7.9  T
speedup  1.11
cpu  time for SCC    0.01 s
wall time for SCC    0.01 s
speedup  1.14
cpu  time for grad    0.01 s
wall time for grad    0.01 s
 E :    -50.44431588  G :  0.023268    pred/act E change: -0.279D-02 -0.202D-02
Maxdispl :   0.2883   ||displ|| :   0.5503   Lambda : -0.317D-02
Largest |displ|/coords:  0.2883 (   4)  0.1976 (   9)  0.1820 (   6)
................................................................................
.............................. CYCLE    7 ......................................
................................................................................
   1    -50.7079305 -0.507079E+02  0.462E-01    9.27       0.0  T
   2    -50.7081643 -0.233868E-03  0.345E-01    9.30       1.0  T
   3    -50.7082663 -0.101940E-03  0.784E-02    9.38       1.0  T
   4    -50.7083002 -0.338883E-04  0.189E-02    9.38       1.0  T
   5    -50.7083012 -0.104701E-05  0.796E-03    9.38       2.5  T
   6    -50.7083013 -0.888077E-07  0.433E-03    9.38       4.5  T
   7    -50.7083013 -0.246722E-07  0.107E-03    9.38      18.3  T
speedup  0.97
cpu  time for SCC    0.01 s
wall time for SCC    0.01 s
speedup  1.01
cpu  time for grad    0.01 s
wall time for grad    0.01 s
 E :    -50.44526252  G :  0.052847    pred/act E change: -0.168D-02 -0.947D-03
Maxdispl :   0.1310   ||displ|| :   0.3817   Lambda : -0.755D-02
Largest |displ|/coords:  0.1310 (  21)  0.1257 (   2)  0.1121 (   4)
................................................................................
.............................. CYCLE    8 ......................................
................................................................................
   1    -50.7230955 -0.507231E+02  0.530E-01    9.32       0.0  T
   2    -50.7233078 -0.212264E-03  0.398E-01    9.32       1.0  T
   3    -50.7234539 -0.146066E-03  0.827E-02    9.33       1.0  T
   4    -50.7234804 -0.265895E-04  0.181E-02    9.34       1.1  T
   5    -50.7234811 -0.626045E-06  0.947E-03    9.34       2.1  T
   6    -50.7234811 -0.575450E-07  0.441E-03    9.33       4.4  T
   7    -50.7234812 -0.478309E-07  0.797E-04    9.34      24.6  T
speedup  1.13
cpu  time for SCC    0.01 s
wall time for SCC    0.01 s
speedup  1.01
cpu  time for grad    0.01 s
wall time for grad    0.01 s
 E :    -50.44474245  G :  0.073017    pred/act E change: -0.207D-02  0.520D-03
Maxdispl :   0.0898   ||displ|| :   0.3000   Lambda : -0.672D-02
Largest |displ|/coords:  0.0898 (  24)  0.0868 (  22)  0.0821 (  19)
................................................................................
.............................. CYCLE    9 ......................................
................................................................................
   1    -50.7187858 -0.507188E+02  0.404E-01    9.29       0.0  T
   2    -50.7188874 -0.101545E-03  0.303E-01    9.29       1.0  T
   3    -50.7189563 -0.689946E-04  0.572E-02    9.30       1.0  T
   4    -50.7189699 -0.135257E-04  0.117E-02    9.30       1.7  T
   5    -50.7189700 -0.118587E-06  0.588E-03    9.30       3.3  T
   6    -50.7189701 -0.614009E-07  0.219E-03    9.30       9.0  T
speedup  0.89
cpu  time for SCC    0.01 s
wall time for SCC    0.01 s
speedup  0.98
cpu  time for grad    0.01 s
wall time for grad    0.01 s
 E :    -50.44747731  G :  0.032380    pred/act E change: -0.432D-02 -0.273D-02
Maxdispl :   0.1613   ||displ|| :   0.3229   Lambda : -0.220D-02
Largest |displ|/coords:  0.1613 (   7)  0.1275 (   9)  0.0955 (   5)
................................................................................
.............................. CYCLE   10 ......................................
................................................................................
   1    -50.7202010 -0.507202E+02  0.330E-01    9.28       0.0  T
   2    -50.7202790 -0.780604E-04  0.250E-01    9.28       1.0  T
   3    -50.7203210 -0.420051E-04  0.476E-02    9.30       1.0  T
   4    -50.7203337 -0.126497E-04  0.130E-02    9.31       1.5  T
   5    -50.7203342 -0.510221E-06  0.483E-03    9.31       4.1  T
   6    -50.7203342 -0.229601E-07  0.268E-03    9.30       7.3  T
speedup  0.91
cpu  time for SCC    0.00 s
wall time for SCC    0.01 s
speedup  0.98
cpu  time for grad    0.01 s
wall time for grad    0.01 s
 E :    -50.44815059  G :  0.033047    pred/act E change: -0.366D-02 -0.673D-03
Maxdispl :   0.1535   ||displ|| :   0.4393   Lambda : -0.360D-02
Largest |displ|/coords:  0.1535 (   9)  0.1495 (  11)  0.1318 (  16)
................................................................................
.............................. CYCLE   11 ......................................
................................................................................
   1    -50.7217825 -0.507218E+02  0.442E-01    9.28       0.0  T
   2    -50.7219592 -0.176775E-03  0.333E-01    9.28       1.0  T
   3    -50.7220523 -0.931036E-04  0.705E-02    9.25       1.0  T
   4    -50.7220790 -0.266475E-04  0.196E-02    9.25       1.0  T
   5    -50.7220800 -0.104110E-05  0.727E-03    9.26       2.7  T
   6    -50.7220801 -0.670228E-07  0.406E-03    9.26       4.8  T
   7    -50.7220801 -0.238000E-07  0.103E-03    9.26      19.0  T
speedup  1.11
cpu  time for SCC    0.01 s
wall time for SCC    0.01 s
speedup  1.01
cpu  time for grad    0.01 s
wall time for grad    0.01 s
 E :    -50.44850940  G :  0.046513    pred/act E change: -0.122D-02 -0.359D-03
Maxdispl :   0.1127   ||displ|| :   0.2472   Lambda : -0.375D-02
Largest |displ|/coords:  0.1127 (  16)  0.0819 (   7)  0.0617 (  18)
................................................................................
.............................. CYCLE   12 ......................................
................................................................................
   1    -50.7355587 -0.507356E+02  0.263E-01    9.25       0.0  T
   2    -50.7356198 -0.610790E-04  0.198E-01    9.24       1.0  T
   3    -50.7356608 -0.410393E-04  0.450E-02    9.16       1.0  T
   4    -50.7356686 -0.784607E-05  0.118E-02    9.18       1.7  T
   5    -50.7356690 -0.321116E-06  0.535E-03    9.18       3.7  T
   6    -50.7356690 -0.200227E-07  0.274E-03    9.18       7.1  T
speedup  0.91
cpu  time for SCC    0.00 s
wall time for SCC    0.01 s
speedup  0.98
cpu  time for grad    0.01 s
wall time for grad    0.01 s
 E :    -50.45018469  G :  0.023148    pred/act E change: -0.215D-02 -0.168D-02
Maxdispl :   0.1583   ||displ|| :   0.3123   Lambda : -0.202D-02
Largest |displ|/coords:  0.1583 (   4)  0.1043 (   9)  0.0907 (   1)
................................................................................
.............................. CYCLE   13 ......................................
................................................................................
   1    -50.7271692 -0.507272E+02  0.279E-01    9.12       0.0  T
   2    -50.7272108 -0.415540E-04  0.208E-01    9.11       1.0  T
   3    -50.7272352 -0.244271E-04  0.378E-02    9.09       1.0  T
   4    -50.7272409 -0.571903E-05  0.987E-03    9.09       2.0  T
   5    -50.7272411 -0.209457E-06  0.385E-03    9.10       5.1  T
   6    -50.7272411 -0.165648E-07  0.223E-03    9.10       8.8  T
speedup  1.11
cpu  time for SCC    0.01 s
wall time for SCC    0.01 s
speedup  1.00
cpu  time for grad    0.01 s
wall time for grad    0.01 s
 E :    -50.45048617  G :  0.033128    pred/act E change: -0.199D-02 -0.301D-03
Maxdispl :   0.0890   ||displ|| :   0.1796   Lambda : -0.150D-02
Largest |displ|/coords:  0.0890 (   3)  0.0684 (   9)  0.0617 (   5)
................................................................................
.............................. CYCLE   14 ......................................
................................................................................
   1    -50.7324486 -0.507324E+02  0.154E-01    9.06       0.0  T
   2    -50.7324674 -0.187511E-04  0.115E-01    9.06       1.0  T
   3    -50.7324792 -0.117591E-04  0.252E-02    9.05       1.0  T
   4    -50.7324815 -0.235860E-05  0.774E-03    9.05       2.5  T
   5    -50.7324816 -0.119448E-06  0.262E-03    9.05       7.5  T
   6    -50.7324816 -0.578715E-08  0.142E-03    9.05      13.8  T
speedup  0.94
cpu  time for SCC    0.00 s
wall time for SCC    0.01 s
speedup  1.00
cpu  time for grad    0.01 s
wall time for grad    0.01 s
 E :    -50.45127434  G :  0.011220    pred/act E change: -0.111D-02 -0.788D-03
Maxdispl :   0.0953   ||displ|| :   0.2792   Lambda : -0.770D-03
Largest |displ|/coords:  0.0953 (   1)  0.0905 (   6)  0.0848 (   9)
................................................................................
.............................. CYCLE   15 ......................................
................................................................................
   1    -50.7356924 -0.507357E+02  0.196E-01    9.01       0.0  T
   2    -50.7357349 -0.425438E-04  0.146E-01    8.98       1.0  T
   3    -50.7357573 -0.223796E-04  0.378E-02    8.92       1.0  T
   4    -50.7357626 -0.525032E-05  0.113E-02    8.92       1.7  T
   5    -50.7357629 -0.301673E-06  0.411E-03    8.92       4.8  T
   6    -50.7357629 -0.223833E-07  0.226E-03    8.92       8.7  T
   7    -50.7357629 -0.923625E-08  0.645E-04    8.92      30.4  T
speedup  1.11
cpu  time for SCC    0.01 s
wall time for SCC    0.01 s
speedup  1.00
cpu  time for grad    0.01 s
wall time for grad    0.01 s
 E :    -50.45128678  G :  0.023711    pred/act E change: -0.775D-03 -0.124D-04
Maxdispl :   0.0901   ||displ|| :   0.1766   Lambda : -0.936D-03
Largest |displ|/coords:  0.0901 (   5)  0.0860 (   3)  0.0654 (   4)
................................................................................
.............................. CYCLE   16 ......................................
................................................................................
   1    -50.7358512 -0.507359E+02  0.131E-01    8.94       0.0  T
   2    -50.7358594 -0.820211E-05  0.979E-02    8.94       1.0  T
   3    -50.7358650 -0.562198E-05  0.169E-02    8.95       1.2  T
   4    -50.7358661 -0.102502E-05  0.531E-03    8.95       3.7  T
   5    -50.7358661 -0.504825E-07  0.186E-03    8.95      10.6  T
speedup  0.89
cpu  time for SCC    0.00 s
wall time for SCC    0.00 s
speedup  0.98
cpu  time for grad    0.01 s
wall time for grad    0.01 s
 E :    -50.45176676  G :  0.011650    pred/act E change: -0.415D-03 -0.480D-03
Maxdispl :   0.1005   ||displ|| :   0.1943   Lambda : -0.521D-03
Largest |displ|/coords:  0.1005 (  12)  0.0803 (   3)  0.0593 (   9)
................................................................................
.............................. CYCLE   17 ......................................
................................................................................
   1    -50.7346185 -0.507346E+02  0.118E-01    8.99       0.0  T
   2    -50.7346251 -0.660140E-05  0.877E-02    8.99       1.0  T
   3    -50.7346278 -0.272017E-05  0.155E-02    9.01       1.3  T
   4    -50.7346289 -0.113147E-05  0.386E-03    9.01       5.1  T
   5    -50.7346290 -0.251355E-07  0.154E-03    9.01      12.8  T
   6    -50.7346290 -0.302727E-08  0.779E-04    9.01      25.2  T
speedup  1.11
cpu  time for SCC    0.01 s
wall time for SCC    0.01 s
speedup  1.07
cpu  time for grad    0.01 s
wall time for grad    0.01 s
 E :    -50.45198021  G :  0.010440    pred/act E change: -0.483D-03 -0.213D-03
Maxdispl :   0.1300   ||displ|| :   0.2478   Lambda : -0.480D-03
Largest |displ|/coords:  0.1300 (   3)  0.0980 (   4)  0.0815 (  12)
................................................................................
.............................. CYCLE   18 ......................................
................................................................................
   1    -50.7347999 -0.507348E+02  0.126E-01    9.00       0.0  T
   2    -50.7348106 -0.106230E-04  0.925E-02    8.99       1.0  T
   3    -50.7348177 -0.719073E-05  0.231E-02    8.98       1.0  T
   4    -50.7348189 -0.119381E-05  0.698E-03    8.97       2.8  T
   5    -50.7348190 -0.969414E-07  0.238E-03    8.97       8.2  T
   6    -50.7348190 -0.830180E-08  0.139E-03    8.97      14.1  T
speedup  1.09
cpu  time for SCC    0.01 s
wall time for SCC    0.01 s
speedup  0.98
cpu  time for grad    0.01 s
wall time for grad    0.01 s
 E :    -50.45222410  G :  0.013778    pred/act E change: -0.270D-03 -0.244D-03
Maxdispl :   0.1456   ||displ|| :   0.3672   Lambda : -0.821D-03
Largest |displ|/coords:  0.1456 (   4)  0.1312 (  12)  0.1239 (   3)
................................................................................
.............................. CYCLE   19 ......................................
................................................................................
   1    -50.7354062 -0.507354E+02  0.230E-01    9.03       0.0  T
   2    -50.7354193 -0.130157E-04  0.168E-01    9.02       1.0  T
   3    -50.7354286 -0.938459E-05  0.301E-02    9.02       1.0  T
   4    -50.7354300 -0.136452E-05  0.932E-03    9.02       2.1  T
   5    -50.7354301 -0.105960E-06  0.215E-03    9.02       9.1  T
   6    -50.7354301 -0.649235E-08  0.138E-03    9.02      14.2  T
speedup  0.91
cpu  time for SCC    0.01 s
wall time for SCC    0.01 s
speedup  0.97
cpu  time for grad    0.01 s
wall time for grad    0.01 s
 E :    -50.45265094  G :  0.014899    pred/act E change: -0.255D-03 -0.427D-03
Maxdispl :   0.1477   ||displ|| :   0.2834   Lambda : -0.473D-03
Largest |displ|/coords:  0.1477 (   3)  0.1183 (  12)  0.0988 (   4)
................................................................................
.............................. CYCLE   20 ......................................
................................................................................
   1    -50.7361411 -0.507361E+02  0.158E-01    8.98       0.0  T
   2    -50.7361660 -0.249008E-04  0.116E-01    8.98       1.0  T
   3    -50.7361751 -0.909306E-05  0.321E-02    8.97       1.0  T
   4    -50.7361781 -0.303074E-05  0.848E-03    8.97       2.3  T
   5    -50.7361782 -0.102279E-06  0.254E-03    8.97       7.7  T
   6    -50.7361782 -0.112822E-07  0.150E-03    8.97      13.1  T
speedup  0.96
cpu  time for SCC    0.00 s
wall time for SCC    0.01 s
speedup  1.01
cpu  time for grad    0.01 s
wall time for grad    0.01 s
 E :    -50.45294343  G :  0.012233    pred/act E change: -0.466D-03 -0.292D-03
Maxdispl :   0.1814   ||displ|| :   0.3757   Lambda : -0.745D-03
Largest |displ|/coords:  0.1814 (   3)  0.1759 (  12)  0.1017 (   4)
................................................................................
.............................. CYCLE   21 ......................................
................................................................................
   1    -50.7358800 -0.507359E+02  0.191E-01    9.06       0.0  T
   2    -50.7359393 -0.593064E-04  0.138E-01    9.08       1.0  T
   3    -50.7359590 -0.197000E-04  0.484E-02    9.11       1.0  T
   4    -50.7359639 -0.491960E-05  0.106E-02    9.11       1.9  T
   5    -50.7359641 -0.196539E-06  0.308E-03    9.11       6.4  T
   6    -50.7359641 -0.144290E-07  0.178E-03    9.11      11.0  T
   7    -50.7359641 -0.575563E-08  0.567E-04    9.11      34.6  T
speedup  1.13
cpu  time for SCC    0.01 s
wall time for SCC    0.01 s
speedup  1.00
cpu  time for grad    0.01 s
wall time for grad    0.01 s
 E :    -50.45332979  G :  0.014394    pred/act E change: -0.255D-03 -0.386D-03
Maxdispl :   0.1912   ||displ|| :   0.3796   Lambda : -0.698D-03
Largest |displ|/coords:  0.1912 (  12)  0.1527 (   3)  0.1461 (   4)
................................................................................
.............................. CYCLE   22 ......................................
................................................................................
   1    -50.7357562 -0.507358E+02  0.193E-01    9.15       0.0  T
   2    -50.7358042 -0.479425E-04  0.142E-01    9.15       1.0  T
   3    -50.7358216 -0.174506E-04  0.441E-02    9.16       1.0  T
   4    -50.7358265 -0.488215E-05  0.117E-02    9.16       1.7  T
   5    -50.7358267 -0.217300E-06  0.317E-03    9.16       6.2  T
   6    -50.7358268 -0.158544E-07  0.190E-03    9.16      10.3  T
   7    -50.7358268 -0.717545E-08  0.634E-04    9.16      30.9  T
speedup  0.95
cpu  time for SCC    0.01 s
wall time for SCC    0.01 s
speedup  1.00
cpu  time for grad    0.01 s
wall time for grad    0.01 s
 E :    -50.45384743  G :  0.012519    pred/act E change: -0.425D-03 -0.518D-03
Maxdispl :   0.2637   ||displ|| :   0.5744   Lambda : -0.107D-02
Largest |displ|/coords:  0.2637 (   3)  0.2411 (   4)  0.2390 (  12)
................................................................................
.............................. CYCLE   23 ......................................
................................................................................
   1    -50.7306786 -0.507307E+02  0.309E-01    9.01       0.0  T
   2    -50.7308004 -0.121802E-03  0.230E-01    9.01       1.0  T
   3    -50.7308424 -0.419746E-04  0.691E-02    9.01       1.0  T
   4    -50.7308562 -0.137889E-04  0.202E-02    9.01       1.0  T
   5    -50.7308568 -0.681135E-06  0.512E-03    9.01       3.8  T
   6    -50.7308569 -0.466201E-07  0.308E-03    9.01       6.4  T
   7    -50.7308569 -0.188785E-07  0.111E-03    9.01      17.6  T
   8    -50.7308569 -0.261827E-08  0.263E-04    9.01      74.5  T
speedup  1.00
cpu  time for SCC    0.01 s
wall time for SCC    0.01 s
speedup  1.01
cpu  time for grad    0.01 s
wall time for grad    0.01 s
 E :    -50.45454960  G :  0.020106    pred/act E change: -0.399D-03 -0.702D-03
Maxdispl :   0.1478   ||displ|| :   0.4083   Lambda : -0.138D-02
Largest |displ|/coords:  0.1478 (   2)  0.1361 (  30)  0.1350 (   3)
................................................................................
.............................. CYCLE   24 ......................................
................................................................................
   1    -50.7383341 -0.507383E+02  0.199E-01    9.18       0.0  T
   2    -50.7384409 -0.106842E-03  0.145E-01    9.17       1.0  T
   3    -50.7384774 -0.364823E-04  0.716E-02    9.15       1.0  T
   4    -50.7384821 -0.467641E-05  0.189E-02    9.15       1.0  T
   5    -50.7384824 -0.372602E-06  0.376E-03    9.15       5.2  T
   6    -50.7384825 -0.226198E-07  0.207E-03    9.15       9.5  T
speedup  0.93
cpu  time for SCC    0.00 s
wall time for SCC    0.01 s
speedup  0.98
cpu  time for grad    0.01 s
wall time for grad    0.01 s
 E :    -50.45502071  G :  0.030077    pred/act E change: -0.711D-03 -0.471D-03
Maxdispl :   0.2191   ||displ|| :   0.3873   Lambda : -0.117D-02
Largest |displ|/coords:  0.2191 (   3)  0.1712 (   9)  0.1613 (   4)
................................................................................
.............................. CYCLE   25 ......................................
................................................................................
   1    -50.7323468 -0.507323E+02  0.181E-01    9.02       0.0  T
   2    -50.7323557 -0.887285E-05  0.135E-01    9.02       1.0  T
   3    -50.7323615 -0.585036E-05  0.194E-02    9.01       1.0  T
   4    -50.7323627 -0.118536E-05  0.664E-03    9.01       3.0  T
   5    -50.7323628 -0.761741E-07  0.221E-03    9.01       8.9  T
   6    -50.7323628 -0.501197E-08  0.123E-03    9.01      16.0  T
speedup  0.93
cpu  time for SCC    0.00 s
wall time for SCC    0.01 s
speedup  0.98
cpu  time for grad    0.01 s
wall time for grad    0.01 s
 E :    -50.45569872  G :  0.023550    pred/act E change: -0.803D-03 -0.678D-03
Maxdispl :   0.1566   ||displ|| :   0.3290   Lambda : -0.172D-02
Largest |displ|/coords:  0.1566 (   3)  0.1476 (  13)  0.1239 (   6)

generating ANC from model Hessian ...
 Shifting diagonal of input Hessian by   4.871451495577465E-003
 Lowest  eigenvalues of input Hessian
   -0.000000   -0.000000   -0.000000   -0.000000    0.000000    0.000000
    0.005000    0.005047    0.005341    0.005836    0.006477    0.006810
    0.007188    0.007792    0.008187    0.008944    0.010183    0.011365
 Highest eigenvalues
    1.425691    1.432418    1.471198    2.786088    3.271067    3.685331
 
cpu  time for ANC gen    0.02 s
wall time for ANC gen    0.02 s
................................................................................
.............................. CYCLE   26 ......................................
................................................................................
   1    -50.7373249 -0.507373E+02  0.185E-01    9.13       0.0  T
   2    -50.7373864 -0.614902E-04  0.136E-01    9.16       1.0  T
   3    -50.7374117 -0.253392E-04  0.471E-02    9.19       1.0  T
   4    -50.7374174 -0.564445E-05  0.132E-02    9.19       1.5  T
   5    -50.7374177 -0.295218E-06  0.391E-03    9.19       5.0  T
   6    -50.7374177 -0.323551E-07  0.225E-03    9.19       8.7  T
   7    -50.7374177 -0.121806E-07  0.859E-04    9.19      22.8  T
   8    -50.7374177 -0.326539E-08  0.308E-04    9.19      63.6  T
speedup  1.00
cpu  time for SCC    0.01 s
wall time for SCC    0.01 s
speedup  0.98
cpu  time for grad    0.01 s
wall time for grad    0.02 s
 E :    -50.45551110  G :  0.028726    pred/act E change:  0.000D+00  0.188D-03
Maxdispl :   0.1195   ||displ|| :   0.2555   Lambda : -0.183D-02
Largest |displ|/coords:  0.1195 (   1)  0.0928 (   9)  0.0806 (  10)
................................................................................
.............................. CYCLE   27 ......................................
................................................................................
   1    -50.7376000 -0.507376E+02  0.201E-01    9.19       0.0  T
   2    -50.7376114 -0.113599E-04  0.153E-01    9.18       1.0  T
   3    -50.7376200 -0.859138E-05  0.178E-02    9.16       1.1  T
   4    -50.7376218 -0.178329E-05  0.643E-03    9.16       3.0  T
   5    -50.7376218 -0.671031E-07  0.231E-03    9.17       8.5  T
   6    -50.7376218 -0.528021E-08  0.121E-03    9.17      16.2  T
speedup  0.94
cpu  time for SCC    0.00 s
wall time for SCC    0.01 s
speedup  1.03
cpu  time for grad    0.01 s
wall time for grad    0.01 s
 E :    -50.45682865  G :  0.009434    pred/act E change:  0.000D+00 -0.132D-02
Maxdispl :   0.2115   ||displ|| :   0.4013   Lambda : -0.116D-02
Largest |displ|/coords:  0.2115 (   1)  0.1170 (   9)  0.1166 (   5)
................................................................................
.............................. CYCLE   28 ......................................
................................................................................
   1    -50.7350844 -0.507351E+02  0.287E-01    9.18       0.0  T
   2    -50.7351002 -0.158365E-04  0.216E-01    9.17       1.0  T
   3    -50.7351129 -0.126311E-04  0.213E-02    9.15       1.0  T
   4    -50.7351153 -0.237640E-05  0.836E-03    9.16       2.3  T
   5    -50.7351153 -0.866099E-07  0.323E-03    9.16       6.1  T
   6    -50.7351154 -0.116185E-07  0.145E-03    9.16      13.5  T
   7    -50.7351154 -0.709382E-08  0.376E-04    9.16      52.1  T
speedup  0.97
cpu  time for SCC    0.01 s
wall time for SCC    0.01 s
speedup  1.00
cpu  time for grad    0.01 s
wall time for grad    0.01 s
 E :    -50.45734057  G :  0.022843    pred/act E change: -0.973D-03 -0.512D-03
Maxdispl :   0.1026   ||displ|| :   0.1942   Lambda : -0.687D-03
Largest |displ|/coords:  0.1026 (   9)  0.0799 (  10)  0.0602 (   3)
................................................................................
.............................. CYCLE   29 ......................................
................................................................................
   1    -50.7371833 -0.507372E+02  0.149E-01    9.15       0.0  T
   2    -50.7371913 -0.803737E-05  0.113E-01    9.14       1.0  T
   3    -50.7371977 -0.641536E-05  0.151E-02    9.13       1.3  T
   4    -50.7371989 -0.113455E-05  0.464E-03    9.14       4.2  T
   5    -50.7371989 -0.348097E-07  0.201E-03    9.14       9.8  T
speedup  0.87
cpu  time for SCC    0.00 s
wall time for SCC    0.00 s
speedup  0.97
cpu  time for grad    0.01 s
wall time for grad    0.01 s
 E :    -50.45771143  G :  0.013506    pred/act E change: -0.674D-03 -0.371D-03
Maxdispl :   0.1377   ||displ|| :   0.2413   Lambda : -0.517D-03
Largest |displ|/coords:  0.1377 (   1)  0.1264 (   9)  0.0655 (   3)
................................................................................
.............................. CYCLE   30 ......................................
................................................................................
   1    -50.7380913 -0.507381E+02  0.123E-01    9.15       0.0  T
   2    -50.7380943 -0.300417E-05  0.928E-02    9.15       1.0  T
   3    -50.7380968 -0.253470E-05  0.974E-03    9.15       2.0  T
   4    -50.7380972 -0.404625E-06  0.354E-03    9.15       5.5  T
   5    -50.7380972 -0.155896E-07  0.118E-03    9.15      16.6  T
   6    -50.7380972 -0.178495E-08  0.542E-04    9.15      36.2  T
speedup  0.94
cpu  time for SCC    0.00 s
wall time for SCC    0.01 s
speedup  0.99
cpu  time for grad    0.01 s
wall time for grad    0.01 s
 E :    -50.45814595  G :  0.007729    pred/act E change: -0.357D-03 -0.435D-03
Maxdispl :   0.3608   ||displ|| :   0.6419   Lambda : -0.112D-02
Largest |displ|/coords:  0.3608 (   1)  0.3025 (   9)  0.2065 (   3)
................................................................................
.............................. CYCLE   31 ......................................
................................................................................
   1    -50.7351896 -0.507352E+02  0.350E-01    9.14       0.0  T
   2    -50.7352090 -0.194808E-04  0.264E-01    9.14       1.0  T
   3    -50.7352251 -0.160851E-04  0.267E-02    9.15       1.0  T
   4    -50.7352277 -0.252826E-05  0.101E-02    9.14       1.9  T
   5    -50.7352278 -0.121628E-06  0.334E-03    9.14       5.9  T
   6    -50.7352278 -0.700057E-08  0.154E-03    9.14      12.8  T
   7    -50.7352278 -0.596236E-08  0.378E-04    9.14      51.9  T
speedup  0.97
cpu  time for SCC    0.01 s
wall time for SCC    0.01 s
speedup  0.98
cpu  time for grad    0.01 s
wall time for grad    0.01 s
 E :    -50.45898391  G :  0.015001    pred/act E change: -0.274D-03 -0.838D-03
Maxdispl :   0.3149   ||displ|| :   0.5563   Lambda : -0.936D-03
Largest |displ|/coords:  0.3149 (   1)  0.2534 (   9)  0.1999 (  12)
................................................................................
.............................. CYCLE   32 ......................................
................................................................................
   1    -50.7364626 -0.507365E+02  0.245E-01    9.12       0.0  T
   2    -50.7364772 -0.146103E-04  0.184E-01    9.13       1.0  T
   3    -50.7364857 -0.848323E-05  0.249E-02    9.14       1.0  T
   4    -50.7364881 -0.238553E-05  0.884E-03    9.14       2.2  T
   5    -50.7364881 -0.874304E-07  0.216E-03    9.14       9.1  T
   6    -50.7364881 -0.340591E-08  0.113E-03    9.14      17.3  T
speedup  0.93
cpu  time for SCC    0.00 s
wall time for SCC    0.01 s
speedup  0.98
cpu  time for grad    0.01 s
wall time for grad    0.01 s
 E :    -50.45961453  G :  0.017204    pred/act E change: -0.788D-03 -0.631D-03
Maxdispl :   0.2924   ||displ|| :   0.5823   Lambda : -0.107D-02
Largest |displ|/coords:  0.2924 (   1)  0.2691 (   9)  0.2379 (   3)
................................................................................
.............................. CYCLE   33 ......................................
................................................................................
   1    -50.7335399 -0.507335E+02  0.295E-01    9.11       0.0  T
   2    -50.7335656 -0.257260E-04  0.222E-01    9.12       1.0  T
   3    -50.7335799 -0.143087E-04  0.297E-02    9.12       1.0  T
   4    -50.7335843 -0.434687E-05  0.118E-02    9.12       1.7  T
   5    -50.7335845 -0.253828E-06  0.301E-03    9.12       6.5  T
   6    -50.7335845 -0.624325E-08  0.180E-03    9.12      10.9  T
   7    -50.7335845 -0.590846E-08  0.430E-04    9.12      45.6  T
speedup  0.95
cpu  time for SCC    0.01 s
wall time for SCC    0.01 s
speedup  0.99
cpu  time for grad    0.01 s
wall time for grad    0.01 s
 E :    -50.46026027  G :  0.018718    pred/act E change: -0.613D-03 -0.646D-03
Maxdispl :   0.1794   ||displ|| :   0.3962   Lambda : -0.137D-02
Largest |displ|/coords:  0.1794 (   9)  0.1787 (   1)  0.1177 (   5)
................................................................................
.............................. CYCLE   34 ......................................
................................................................................
   1    -50.7420115 -0.507420E+02  0.187E-01    9.22       0.0  T
   2    -50.7420325 -0.209571E-04  0.139E-01    9.22       1.0  T
   3    -50.7420426 -0.101266E-04  0.253E-02    9.23       1.0  T
   4    -50.7420454 -0.281994E-05  0.106E-02    9.24       1.9  T
   5    -50.7420455 -0.150440E-06  0.205E-03    9.24       9.6  T
   6    -50.7420456 -0.524816E-08  0.124E-03    9.24      15.8  T
speedup  0.93
cpu  time for SCC    0.01 s
wall time for SCC    0.01 s
speedup  0.97
cpu  time for grad    0.01 s
wall time for grad    0.01 s
 E :    -50.46075008  G :  0.018868    pred/act E change: -0.718D-03 -0.490D-03
Maxdispl :   0.2972   ||displ|| :   0.5311   Lambda : -0.149D-02
Largest |displ|/coords:  0.2972 (   9)  0.2266 (   1)  0.1797 (  10)
................................................................................
.............................. CYCLE   35 ......................................
................................................................................
   1    -50.7326715 -0.507327E+02  0.241E-01    9.10       0.0  T
   2    -50.7326886 -0.171285E-04  0.181E-01    9.09       1.0  T
   3    -50.7327001 -0.114688E-04  0.251E-02    9.08       1.0  T
   4    -50.7327027 -0.266205E-05  0.110E-02    9.08       1.8  T
   5    -50.7327029 -0.150930E-06  0.262E-03    9.08       7.5  T
   6    -50.7327029 -0.683623E-08  0.158E-03    9.08      12.4  T
speedup  0.93
cpu  time for SCC    0.00 s
wall time for SCC    0.01 s
speedup  0.97
cpu  time for grad    0.01 s
wall time for grad    0.01 s
 E :    -50.46114163  G :  0.027764    pred/act E change: -0.793D-03 -0.392D-03
Maxdispl :   0.1619   ||displ|| :   0.3055   Lambda : -0.189D-02
Largest |displ|/coords:  0.1619 (   3)  0.1150 (   6)  0.1136 (   8)
................................................................................
.............................. CYCLE   36 ......................................
................................................................................
   1    -50.7473606 -0.507474E+02  0.205E-01    9.28       0.0  T
   2    -50.7473846 -0.239478E-04  0.153E-01    9.28       1.0  T
   3    -50.7474017 -0.171680E-04  0.282E-02    9.28       1.0  T
   4    -50.7474046 -0.288006E-05  0.702E-03    9.28       2.8  T
   5    -50.7474047 -0.559467E-07  0.339E-03    9.28       5.8  T
   6    -50.7474047 -0.713742E-08  0.154E-03    9.28      12.7  T
speedup  0.93
cpu  time for SCC    0.01 s
wall time for SCC    0.01 s
speedup  0.96
cpu  time for grad    0.01 s
wall time for grad    0.01 s
 E :    -50.46065136  G :  0.037457    pred/act E change: -0.952D-03  0.490D-03
Maxdispl :   0.1532   ||displ|| :   0.3014   Lambda : -0.294D-02
Largest |displ|/coords:  0.1532 (   1)  0.0962 (   3)  0.0888 (   5)
................................................................................
.............................. CYCLE   37 ......................................
................................................................................
   1    -50.7409705 -0.507410E+02  0.199E-01    9.28       0.0  T
   2    -50.7409949 -0.244278E-04  0.148E-01    9.30       1.0  T
   3    -50.7410099 -0.149971E-04  0.282E-02    9.33       1.0  T
   4    -50.7410132 -0.328583E-05  0.803E-03    9.32       2.4  T
   5    -50.7410133 -0.107805E-06  0.344E-03    9.31       5.7  T
   6    -50.7410133 -0.101445E-07  0.178E-03    9.31      11.0  T
speedup  0.93
cpu  time for SCC    0.00 s
wall time for SCC    0.01 s
speedup  0.97
cpu  time for grad    0.01 s
wall time for grad    0.01 s
 E :    -50.46155983  G :  0.025581    pred/act E change: -0.103D-02 -0.908D-03
Maxdispl :   0.1108   ||displ|| :   0.2575   Lambda : -0.189D-02
Largest |displ|/coords:  0.1108 (   2)  0.1001 (  10)  0.0869 (   9)
................................................................................
.............................. CYCLE   38 ......................................
................................................................................
   1    -50.7356467 -0.507356E+02  0.203E-01    9.24       0.0  T
   2    -50.7356699 -0.232162E-04  0.152E-01    9.24       1.0  T
   3    -50.7356870 -0.170134E-04  0.275E-02    9.24       1.0  T
   4    -50.7356900 -0.301763E-05  0.835E-03    9.24       2.3  T
   5    -50.7356901 -0.113733E-06  0.328E-03    9.24       6.0  T
   6    -50.7356901 -0.111001E-07  0.175E-03    9.24      11.2  T
speedup  1.07
cpu  time for SCC    0.01 s
wall time for SCC    0.01 s
speedup  1.03
cpu  time for grad    0.01 s
wall time for grad    0.01 s
 E :    -50.46146468  G :  0.031255    pred/act E change: -0.160D-02  0.952D-04
Maxdispl :   0.1201   ||displ|| :   0.2291   Lambda : -0.174D-02
Largest |displ|/coords:  0.1201 (   8)  0.0995 (   3)  0.0596 (   1)
................................................................................
.............................. CYCLE   39 ......................................
................................................................................
   1    -50.7411104 -0.507411E+02  0.164E-01    9.29       0.0  T
   2    -50.7411227 -0.123627E-04  0.124E-01    9.29       1.0  T
   3    -50.7411341 -0.113615E-04  0.205E-02    9.28       1.0  T
   4    -50.7411354 -0.132195E-05  0.773E-03    9.28       2.5  T
   5    -50.7411355 -0.879352E-07  0.255E-03    9.29       7.7  T
   6    -50.7411355 -0.719577E-08  0.143E-03    9.28      13.7  T
speedup  1.11
cpu  time for SCC    0.01 s
wall time for SCC    0.01 s
speedup  1.04
cpu  time for grad    0.01 s
wall time for grad    0.01 s
 E :    -50.46223779  G :  0.012040    pred/act E change: -0.101D-02 -0.773D-03
Maxdispl :   0.2075   ||displ|| :   0.3701   Lambda : -0.629D-03
Largest |displ|/coords:  0.2075 (   3)  0.1669 (   9)  0.1583 (   1)
................................................................................
.............................. CYCLE   40 ......................................
................................................................................
   1    -50.7379324 -0.507379E+02  0.185E-01    9.26       0.0  T
   2    -50.7379410 -0.859651E-05  0.139E-01    9.27       1.0  T
   3    -50.7379466 -0.556908E-05  0.172E-02    9.27       1.1  T
   4    -50.7379478 -0.121787E-05  0.694E-03    9.27       2.8  T
   5    -50.7379479 -0.812271E-07  0.181E-03    9.27      10.8  T
   6    -50.7379479 -0.288970E-08  0.105E-03    9.27      18.6  T
speedup  0.93
cpu  time for SCC    0.01 s
wall time for SCC    0.01 s
speedup  0.96
cpu  time for grad    0.01 s
wall time for grad    0.01 s
 E :    -50.46222154  G :  0.021655    pred/act E change: -0.915D-03  0.162D-04
Maxdispl :   0.0372   ||displ|| :   0.1017   Lambda : -0.744D-03
Largest |displ|/coords:  0.0372 (  13)  0.0339 (   8)  0.0316 (   6)
................................................................................
.............................. CYCLE   41 ......................................
................................................................................
   1    -50.7414783 -0.507415E+02  0.750E-02    9.35       0.0  T
   2    -50.7414813 -0.295810E-05  0.564E-02    9.36       1.0  T
   3    -50.7414835 -0.225357E-05  0.103E-02    9.36       1.9  T
   4    -50.7414838 -0.311147E-06  0.371E-03    9.36       5.3  T
   5    -50.7414838 -0.224302E-07  0.935E-04    9.36      21.0  T
speedup  0.87
cpu  time for SCC    0.00 s
wall time for SCC    0.00 s
speedup  1.02
cpu  time for grad    0.01 s
wall time for grad    0.01 s
 E :    -50.46256897  G :  0.009401    pred/act E change: -0.357D-03 -0.347D-03
Maxdispl :   0.0844   ||displ|| :   0.2165   Lambda : -0.438D-03
Largest |displ|/coords:  0.0844 (   8)  0.0689 (  14)  0.0676 (   9)
................................................................................
.............................. CYCLE   42 ......................................
................................................................................
   1    -50.7418106 -0.507418E+02  0.102E-01    9.34       0.0  T
   2    -50.7418149 -0.426178E-05  0.760E-02    9.34       1.0  T
   3    -50.7418180 -0.307704E-05  0.122E-02    9.33       1.6  T
   4    -50.7418185 -0.543205E-06  0.352E-03    9.34       5.6  T
   5    -50.7418185 -0.151894E-07  0.138E-03    9.34      14.2  T
   6    -50.7418185 -0.215328E-08  0.672E-04    9.34      29.2  T
speedup  1.11
cpu  time for SCC    0.01 s
wall time for SCC    0.01 s
speedup  1.04
cpu  time for grad    0.01 s
wall time for grad    0.01 s
 E :    -50.46262879  G :  0.014193    pred/act E change: -0.376D-03 -0.598D-04
Maxdispl :   0.1261   ||displ|| :   0.1822   Lambda : -0.451D-03
Largest |displ|/coords:  0.1261 (   3)  0.0735 (   9)  0.0531 (  14)
................................................................................
.............................. CYCLE   43 ......................................
................................................................................
   1    -50.7418590 -0.507419E+02  0.962E-02    9.36       0.0  T
   2    -50.7418624 -0.334105E-05  0.718E-02    9.36       1.0  T
   3    -50.7418648 -0.247750E-05  0.127E-02    9.35       1.5  T
   4    -50.7418653 -0.414194E-06  0.412E-03    9.35       4.8  T
   5    -50.7418653 -0.258063E-07  0.125E-03    9.35      15.7  T
   6    -50.7418653 -0.156264E-08  0.726E-04    9.35      27.0  T
speedup  0.93
cpu  time for SCC    0.00 s
wall time for SCC    0.01 s
speedup  0.96
cpu  time for grad    0.01 s
wall time for grad    0.01 s
 E :    -50.46286278  G :  0.011007    pred/act E change: -0.229D-03 -0.234D-03
Maxdispl :   0.1534   ||displ|| :   0.2575   Lambda : -0.491D-03
Largest |displ|/coords:  0.1534 (   3)  0.0992 (   9)  0.0781 (  14)
................................................................................
.............................. CYCLE   44 ......................................
................................................................................
   1    -50.7433138 -0.507433E+02  0.135E-01    9.40       0.0  T
   2    -50.7433194 -0.559052E-05  0.101E-01    9.40       1.0  T
   3    -50.7433238 -0.446403E-05  0.141E-02    9.39       1.4  T
   4    -50.7433245 -0.717338E-06  0.567E-03    9.39       3.5  T
   5    -50.7433246 -0.523038E-07  0.154E-03    9.39      12.7  T
   6    -50.7433246 -0.257338E-08  0.936E-04    9.39      21.0  T
speedup  0.93
cpu  time for SCC    0.00 s
wall time for SCC    0.01 s
speedup  1.02
cpu  time for grad    0.01 s
wall time for grad    0.01 s
 E :    -50.46305433  G :  0.013322    pred/act E change: -0.233D-03 -0.192D-03
Maxdispl :   0.1924   ||displ|| :   0.3846   Lambda : -0.353D-03
Largest |displ|/coords:  0.1924 (   3)  0.1731 (   9)  0.1571 (   1)
................................................................................
.............................. CYCLE   45 ......................................
................................................................................
   1    -50.7397682 -0.507398E+02  0.137E-01    9.33       0.0  T
   2    -50.7397738 -0.560504E-05  0.102E-01    9.33       1.0  T
   3    -50.7397773 -0.357213E-05  0.164E-02    9.33       1.2  T
   4    -50.7397782 -0.812808E-06  0.597E-03    9.33       3.3  T
   5    -50.7397782 -0.476039E-07  0.164E-03    9.33      12.0  T
   6    -50.7397782 -0.321861E-08  0.922E-04    9.33      21.3  T
speedup  1.09
cpu  time for SCC    0.01 s
wall time for SCC    0.01 s
speedup  1.03
cpu  time for grad    0.01 s
wall time for grad    0.01 s
 E :    -50.46324992  G :  0.011591    pred/act E change: -0.262D-03 -0.196D-03
Maxdispl :   0.1625   ||displ|| :   0.3417   Lambda : -0.654D-03
Largest |displ|/coords:  0.1625 (  14)  0.1372 (   3)  0.0939 (   2)
................................................................................
.............................. CYCLE   46 ......................................
................................................................................
   1    -50.7447194 -0.507447E+02  0.167E-01    9.35       0.0  T
   2    -50.7447335 -0.140690E-04  0.125E-01    9.35       1.0  T
   3    -50.7447433 -0.981314E-05  0.248E-02    9.34       1.0  T
   4    -50.7447451 -0.176383E-05  0.719E-03    9.34       2.7  T
   5    -50.7447452 -0.101249E-06  0.232E-03    9.34       8.4  T
   6    -50.7447452 -0.428214E-08  0.133E-03    9.34      14.7  T
speedup  0.91
cpu  time for SCC    0.00 s
wall time for SCC    0.01 s
speedup  0.96
cpu  time for grad    0.01 s
wall time for grad    0.01 s
 E :    -50.46336981  G :  0.015328    pred/act E change: -0.203D-03 -0.120D-03
Maxdispl :   0.1032   ||displ|| :   0.2094   Lambda : -0.410D-03
Largest |displ|/coords:  0.1032 (   1)  0.1026 (   3)  0.0998 (   9)
................................................................................
.............................. CYCLE   47 ......................................
................................................................................
   1    -50.7424567 -0.507425E+02  0.963E-02    9.33       0.0  T
   2    -50.7424607 -0.400798E-05  0.726E-02    9.33       1.0  T
   3    -50.7424637 -0.308346E-05  0.116E-02    9.33       1.7  T
   4    -50.7424643 -0.548122E-06  0.486E-03    9.33       4.0  T
   5    -50.7424643 -0.440060E-07  0.137E-03    9.33      14.4  T
   6    -50.7424643 -0.232961E-08  0.793E-04    9.33      24.7  T
speedup  1.11
cpu  time for SCC    0.01 s
wall time for SCC    0.01 s
speedup  1.02
cpu  time for grad    0.01 s
wall time for grad    0.01 s
 E :    -50.46361429  G :  0.006943    pred/act E change: -0.365D-03 -0.244D-03
Maxdispl :   0.1054   ||displ|| :   0.2074   Lambda : -0.221D-03
Largest |displ|/coords:  0.1054 (   3)  0.0867 (   1)  0.0788 (   9)
................................................................................
.............................. CYCLE   48 ......................................
................................................................................
   1    -50.7435449 -0.507435E+02  0.886E-02    9.34       0.0  T
   2    -50.7435469 -0.202829E-05  0.668E-02    9.34       1.0  T
   3    -50.7435482 -0.131956E-05  0.834E-03    9.34       2.4  T
   4    -50.7435486 -0.340574E-06  0.329E-03    9.34       6.0  T
   5    -50.7435486 -0.180530E-07  0.925E-04    9.34      21.2  T
   6    -50.7435486 -0.102583E-08  0.529E-04    9.34      37.1  T
speedup  0.91
cpu  time for SCC    0.00 s
wall time for SCC    0.01 s
speedup  0.96
cpu  time for grad    0.01 s
wall time for grad    0.01 s
 E :    -50.46369767  G :  0.009740    pred/act E change: -0.214D-03 -0.834D-04
Maxdispl :   0.1497   ||displ|| :   0.2863   Lambda : -0.189D-03
Largest |displ|/coords:  0.1497 (   1)  0.1269 (   9)  0.1046 (   3)
................................................................................
.............................. CYCLE   49 ......................................
................................................................................
   1    -50.7426398 -0.507426E+02  0.101E-01    9.31       0.0  T
   2    -50.7426426 -0.281298E-05  0.759E-02    9.31       1.0  T
   3    -50.7426448 -0.221603E-05  0.984E-03    9.30       2.0  T
   4    -50.7426452 -0.393766E-06  0.400E-03    9.30       4.9  T
   5    -50.7426452 -0.279853E-07  0.122E-03    9.30      16.1  T
   6    -50.7426452 -0.179869E-08  0.643E-04    9.30      30.5  T
speedup  0.94
cpu  time for SCC    0.00 s
wall time for SCC    0.01 s
speedup  1.04
cpu  time for grad    0.01 s
wall time for grad    0.01 s
 E :    -50.46380077  G :  0.009005    pred/act E change: -0.115D-03 -0.103D-03
Maxdispl :   0.1325   ||displ|| :   0.2258   Lambda : -0.302D-03
Largest |displ|/coords:  0.1325 (   1)  0.0877 (   2)  0.0545 (  15)
................................................................................
.............................. CYCLE   50 ......................................
................................................................................
   1    -50.7463054 -0.507463E+02  0.103E-01    9.33       0.0  T
   2    -50.7463095 -0.412855E-05  0.778E-02    9.33       1.0  T
   3    -50.7463129 -0.340190E-05  0.117E-02    9.31       1.7  T
   4    -50.7463134 -0.503727E-06  0.425E-03    9.32       4.6  T
   5    -50.7463134 -0.306031E-07  0.135E-03    9.32      14.5  T
   6    -50.7463134 -0.198235E-08  0.778E-04    9.32      25.2  T
speedup  1.11
cpu  time for SCC    0.01 s
wall time for SCC    0.01 s
speedup  1.04
cpu  time for grad    0.01 s
wall time for grad    0.01 s
 E :    -50.46387506  G :  0.011211    pred/act E change: -0.102D-03 -0.743D-04
Maxdispl :   0.1177   ||displ|| :   0.2432   Lambda : -0.263D-03
Largest |displ|/coords:  0.1177 (   3)  0.1117 (   1)  0.0801 (   9)
................................................................................
.............................. CYCLE   51 ......................................
................................................................................
   1    -50.7433545 -0.507434E+02  0.111E-01    9.32       0.0  T
   2    -50.7433584 -0.388260E-05  0.831E-02    9.32       1.0  T
   3    -50.7433613 -0.292885E-05  0.115E-02    9.32       1.7  T
   4    -50.7433618 -0.532708E-06  0.410E-03    9.32       4.8  T
   5    -50.7433619 -0.307209E-07  0.143E-03    9.32      13.7  T
   6    -50.7433619 -0.210049E-08  0.821E-04    9.32      23.9  T
speedup  0.88
cpu  time for SCC    0.00 s
wall time for SCC    0.01 s
speedup  1.01
cpu  time for grad    0.01 s
wall time for grad    0.01 s
 E :    -50.46396537  G :  0.011577    pred/act E change: -0.159D-03 -0.903D-04
Maxdispl :   0.0545   ||displ|| :   0.1244   Lambda : -0.284D-03
Largest |displ|/coords:  0.0545 (   3)  0.0525 (  20)  0.0436 (   6)
................................................................................
.............................. CYCLE   52 ......................................
................................................................................
   1    -50.7450446 -0.507450E+02  0.654E-02    9.29       0.0  T
   2    -50.7450473 -0.267834E-05  0.482E-02    9.29       1.0  T
   3    -50.7450488 -0.147718E-05  0.112E-02    9.29       1.7  T
   4    -50.7450491 -0.312220E-06  0.335E-03    9.29       5.8  T
   5    -50.7450491 -0.177401E-07  0.889E-04    9.29      22.1  T
   6    -50.7450491 -0.811156E-09  0.517E-04    9.29      37.9  T
speedup  1.11
cpu  time for SCC    0.01 s
wall time for SCC    0.01 s
speedup  1.04
cpu  time for grad    0.01 s
wall time for grad    0.01 s
 E :    -50.46406357  G :  0.008159    pred/act E change: -0.139D-03 -0.982D-04
Maxdispl :   0.1062   ||displ|| :   0.1631   Lambda : -0.138D-03
Largest |displ|/coords:  0.1062 (   1)  0.0502 (   3)  0.0496 (   2)

generating ANC from model Hessian ...
 Shifting diagonal of input Hessian by   4.418037933344146E-003
 Lowest  eigenvalues of input Hessian
   -0.000000   -0.000000   -0.000000   -0.000000   -0.000000    0.000000
    0.005000    0.005207    0.005418    0.005995    0.006509    0.006907
    0.007056    0.008221    0.008344    0.008678    0.010497    0.010860
 Highest eigenvalues
    1.386128    1.401650    1.467474    2.674686    3.357122    3.708167
 
cpu  time for ANC gen    0.02 s
wall time for ANC gen    0.02 s
................................................................................
.............................. CYCLE   53 ......................................
................................................................................
   1    -50.7452091 -0.507452E+02  0.620E-02    9.29       0.0  T
   2    -50.7452104 -0.128734E-05  0.469E-02    9.29       1.0  T
   3    -50.7452117 -0.134100E-05  0.627E-03    9.29       3.1  T
   4    -50.7452119 -0.137165E-06  0.267E-03    9.29       7.4  T
   5    -50.7452119 -0.114834E-07  0.794E-04    9.29      24.7  T
   6    -50.7452119 -0.970260E-09  0.411E-04    9.29      47.8  T
speedup  0.91
cpu  time for SCC    0.00 s
wall time for SCC    0.01 s
speedup  0.99
cpu  time for grad    0.01 s
wall time for grad    0.01 s
 E :    -50.46416095  G :  0.004724    pred/act E change:  0.000D+00 -0.974D-04
Maxdispl :   0.0830   ||displ|| :   0.1544   Lambda : -0.246D-03
Largest |displ|/coords:  0.0830 (   1)  0.0588 (  10)  0.0435 (   7)
................................................................................
.............................. CYCLE   54 ......................................
................................................................................
   1    -50.7448228 -0.507448E+02  0.110E-01    9.28       0.0  T
   2    -50.7448243 -0.144646E-05  0.831E-02    9.28       1.0  T
   3    -50.7448263 -0.200506E-05  0.582E-03    9.27       3.4  T
   4    -50.7448263 -0.554575E-07  0.271E-03    9.27       7.2  T
   5    -50.7448264 -0.104044E-07  0.751E-04    9.28      26.1  T
speedup  0.89
cpu  time for SCC    0.00 s
wall time for SCC    0.00 s
speedup  0.94
cpu  time for grad    0.01 s
wall time for grad    0.01 s
 E :    -50.46433752  G :  0.003315    pred/act E change:  0.000D+00 -0.177D-03
Maxdispl :   0.1242   ||displ|| :   0.2171   Lambda : -0.218D-03
Largest |displ|/coords:  0.1242 (   1)  0.0760 (   4)  0.0625 (   5)
................................................................................
.............................. CYCLE   55 ......................................
................................................................................
   1    -50.7434233 -0.507434E+02  0.153E-01    9.26       0.0  T
   2    -50.7434267 -0.344213E-05  0.115E-01    9.25       1.0  T
   3    -50.7434308 -0.404262E-05  0.946E-03    9.25       2.1  T
   4    -50.7434311 -0.277715E-06  0.449E-03    9.25       4.4  T
   5    -50.7434311 -0.256029E-07  0.147E-03    9.25      13.3  T
   6    -50.7434311 -0.422632E-08  0.781E-04    9.25      25.1  T
   7    -50.7434311 -0.138987E-08  0.172E-04    9.25     113.8  T
speedup  0.94
cpu  time for SCC    0.01 s
wall time for SCC    0.01 s
speedup  1.00
cpu  time for grad    0.01 s
wall time for grad    0.01 s
 E :    -50.46448216  G :  0.006201    pred/act E change: -0.126D-03 -0.145D-03
Maxdispl :   0.1067   ||displ|| :   0.1817   Lambda : -0.135D-03
Largest |displ|/coords:  0.1067 (   1)  0.0811 (   5)  0.0607 (   4)
................................................................................
.............................. CYCLE   56 ......................................
................................................................................
   1    -50.7430834 -0.507431E+02  0.108E-01    9.23       0.0  T
   2    -50.7430858 -0.238598E-05  0.816E-02    9.23       1.0  T
   3    -50.7430881 -0.229342E-05  0.823E-03    9.23       2.4  T
   4    -50.7430884 -0.306129E-06  0.357E-03    9.23       5.5  T
   5    -50.7430884 -0.167199E-07  0.127E-03    9.23      15.5  T
   6    -50.7430884 -0.301232E-08  0.663E-04    9.23      29.6  T
speedup  1.07
cpu  time for SCC    0.01 s
wall time for SCC    0.01 s
speedup  1.00
cpu  time for grad    0.01 s
wall time for grad    0.01 s
 E :    -50.46458196  G :  0.006507    pred/act E change: -0.114D-03 -0.998D-04
Maxdispl :   0.1310   ||displ|| :   0.2436   Lambda : -0.178D-03
Largest |displ|/coords:  0.1310 (   5)  0.1270 (   1)  0.0742 (   4)
................................................................................
.............................. CYCLE   57 ......................................
................................................................................
   1    -50.7441239 -0.507441E+02  0.110E-01    9.22       0.0  T
   2    -50.7441272 -0.331878E-05  0.824E-02    9.22       1.0  T
   3    -50.7441295 -0.235405E-05  0.101E-02    9.22       1.9  T
   4    -50.7441301 -0.537599E-06  0.394E-03    9.22       5.0  T
   5    -50.7441301 -0.259995E-07  0.142E-03    9.22      13.8  T
   6    -50.7441301 -0.273219E-08  0.764E-04    9.22      25.7  T
speedup  1.09
cpu  time for SCC    0.01 s
wall time for SCC    0.01 s
speedup  1.02
cpu  time for grad    0.01 s
wall time for grad    0.01 s
 E :    -50.46469444  G :  0.003189    pred/act E change: -0.696D-04 -0.112D-03
Maxdispl :   0.1637   ||displ|| :   0.2836   Lambda : -0.119D-03
Largest |displ|/coords:  0.1637 (   1)  0.1630 (   5)  0.0989 (   3)
................................................................................
.............................. CYCLE   58 ......................................
................................................................................
   1    -50.7430243 -0.507430E+02  0.139E-01    9.21       0.0  T
   2    -50.7430280 -0.368112E-05  0.105E-01    9.21       1.0  T
   3    -50.7430322 -0.425246E-05  0.990E-03    9.22       2.0  T
   4    -50.7430326 -0.343800E-06  0.435E-03    9.22       4.5  T
   5    -50.7430326 -0.236561E-07  0.145E-03    9.22      13.5  T
   6    -50.7430326 -0.397692E-08  0.724E-04    9.22      27.1  T
   7    -50.7430326 -0.144156E-08  0.160E-04    9.22     122.6  T
speedup  0.95
cpu  time for SCC    0.01 s
wall time for SCC    0.01 s
speedup  1.01
cpu  time for grad    0.01 s
wall time for grad    0.01 s
 E :    -50.46475624  G :  0.005733    pred/act E change: -0.942D-04 -0.618D-04
Maxdispl :   0.0887   ||displ|| :   0.1516   Lambda : -0.100D-03
Largest |displ|/coords:  0.0887 (   5)  0.0664 (   1)  0.0609 (   3)
................................................................................
.............................. CYCLE   59 ......................................
................................................................................
   1    -50.7444838 -0.507445E+02  0.572E-02    9.23       0.0  T
   2    -50.7444846 -0.851563E-06  0.430E-02    9.23       1.0  T
   3    -50.7444854 -0.765692E-06  0.504E-03    9.24       3.9  T
   4    -50.7444855 -0.933186E-07  0.167E-03    9.24      11.7  T
   5    -50.7444855 -0.380582E-08  0.640E-04    9.24      30.6  T
speedup  1.09
cpu  time for SCC    0.00 s
wall time for SCC    0.00 s
speedup  1.02
cpu  time for grad    0.01 s
wall time for grad    0.01 s
 E :    -50.46481231  G :  0.002904    pred/act E change: -0.643D-04 -0.561D-04
Maxdispl :   0.1270   ||displ|| :   0.2210   Lambda : -0.708D-04
Largest |displ|/coords:  0.1270 (   1)  0.1065 (   5)  0.0717 (   3)
................................................................................
.............................. CYCLE   60 ......................................
................................................................................
   1    -50.7431603 -0.507432E+02  0.102E-01    9.23       0.0  T
   2    -50.7431619 -0.162247E-05  0.771E-02    9.23       1.0  T
   3    -50.7431639 -0.199696E-05  0.670E-03    9.23       2.9  T
   4    -50.7431640 -0.113498E-06  0.298E-03    9.23       6.6  T
   5    -50.7431640 -0.117051E-07  0.968E-04    9.23      20.3  T
   6    -50.7431640 -0.125900E-08  0.491E-04    9.23      40.0  T
speedup  1.09
cpu  time for SCC    0.01 s
wall time for SCC    0.01 s
speedup  0.99
cpu  time for grad    0.01 s
wall time for grad    0.01 s
 E :    -50.46483201  G :  0.003810    pred/act E change: -0.512D-04 -0.197D-04
Maxdispl :   0.0184   ||displ|| :   0.0344   Lambda : -0.372D-04
Largest |displ|/coords:  0.0184 (  14)  0.0153 (  11)  0.0092 (   5)
................................................................................
.............................. CYCLE   61 ......................................
................................................................................
   1    -50.7440214 -0.507440E+02  0.304E-02    9.24       0.0  T
   2    -50.7440218 -0.348183E-06  0.230E-02    9.24       1.0  T
   3    -50.7440220 -0.273179E-06  0.315E-03    9.24       6.2  T
   4    -50.7440221 -0.493531E-07  0.861E-04    9.24      22.8  T
   5    -50.7440221 -0.947409E-09  0.351E-04    9.24      55.9  T
speedup  0.87
cpu  time for SCC    0.00 s
wall time for SCC    0.00 s
speedup  0.98
cpu  time for grad    0.01 s
wall time for grad    0.01 s
 E :    -50.46485010  G :  0.002015    pred/act E change: -0.371D-04 -0.181D-04
Maxdispl :   0.0279   ||displ|| :   0.0543   Lambda : -0.240D-04
Largest |displ|/coords:  0.0279 (   1)  0.0252 (   8)  0.0242 (   3)
................................................................................
.............................. CYCLE   62 ......................................
................................................................................
   1    -50.7443631 -0.507444E+02  0.358E-02    9.24       0.0  T
   2    -50.7443635 -0.452684E-06  0.271E-02    9.24       1.0  T
   3    -50.7443639 -0.431680E-06  0.360E-03    9.23       5.5  T
   4    -50.7443640 -0.514316E-07  0.135E-03    9.23      14.5  T
   5    -50.7443640 -0.229461E-08  0.453E-04    9.23      43.2  T
   6    -50.7443640 -0.258460E-09  0.242E-04    9.23      80.9  T
speedup  1.09
cpu  time for SCC    0.01 s
wall time for SCC    0.01 s
speedup  1.04
cpu  time for grad    0.01 s
wall time for grad    0.01 s
 E :    -50.46484696  G :  0.003888    pred/act E change: -0.186D-04  0.315D-05
Maxdispl :   0.0145   ||displ|| :   0.0330   Lambda : -0.255D-04
Largest |displ|/coords:  0.0145 (   7)  0.0133 (   1)  0.0129 (   8)
................................................................................
.............................. CYCLE   63 ......................................
................................................................................
   1    -50.7443971 -0.507444E+02  0.222E-02    9.23       0.0  T
   2    -50.7443973 -0.164071E-06  0.167E-02    9.23       1.2  T
   3    -50.7443974 -0.125731E-06  0.230E-03    9.23       8.5  T
   4    -50.7443974 -0.210490E-07  0.735E-04    9.23      26.7  T
   5    -50.7443974 -0.948567E-09  0.262E-04    9.23      75.0  T
speedup  1.11
cpu  time for SCC    0.00 s
wall time for SCC    0.00 s
speedup  0.99
cpu  time for grad    0.01 s
wall time for grad    0.01 s
 E :    -50.46485952  G :  0.001153    pred/act E change: -0.121D-04 -0.126D-04
Maxdispl :   0.0287   ||displ|| :   0.0474   Lambda : -0.676D-05
Largest |displ|/coords:  0.0287 (   1)  0.0176 (   5)  0.0169 (   4)
................................................................................
.............................. CYCLE   64 ......................................
................................................................................
   1    -50.7439679 -0.507440E+02  0.248E-02    9.23       0.0  T
   2    -50.7439680 -0.120833E-06  0.188E-02    9.23       1.0  T
   3    -50.7439682 -0.158446E-06  0.165E-03    9.23      11.9  T
   4    -50.7439682 -0.712988E-08  0.804E-04    9.23      24.4  T
   5    -50.7439682 -0.773987E-09  0.238E-04    9.23      82.4  T
speedup  0.89
cpu  time for SCC    0.00 s
wall time for SCC    0.00 s
speedup  0.98
cpu  time for grad    0.01 s
wall time for grad    0.01 s
 E :    -50.46486122  G :  0.001290    pred/act E change: -0.128D-04 -0.170D-05
Maxdispl :   0.0096   ||displ|| :   0.0141   Lambda : -0.372D-05
Largest |displ|/coords:  0.0096 (   1)  0.0046 (   6)  0.0041 (   8)
................................................................................
.............................. CYCLE   65 ......................................
................................................................................
   1    -50.7442730 -0.507443E+02  0.834E-03    9.23       0.0  T
   2    -50.7442730 -0.197445E-07  0.630E-03    9.23       3.1  T
   3    -50.7442730 -0.183013E-07  0.865E-04    9.23      22.7  T
[...]
wall time for SCC    0.00 s
speedup  0.97
cpu  time for grad    0.01 s
wall time for grad    0.01 s
 E :    -50.46486951  G :  0.000384    pred/act E change: -0.525D-06 -0.477D-06
Maxdispl :   0.0129   ||displ|| :   0.0163   Lambda : -0.588D-06
Largest |displ|/coords:  0.0129 (   2)  0.0055 (   5)  0.0031 (   3)
................................................................................
.............................. CYCLE   72 ......................................
................................................................................
   1    -50.7444130 -0.507444E+02  0.646E-03    9.22       0.0  T
   2    -50.7444130 -0.105032E-07  0.490E-03    9.22       4.0  T
   3    -50.7444130 -0.107455E-07  0.502E-04    9.22      39.1  T
   4    -50.7444130 -0.119126E-08  0.220E-04    9.22      89.2  T
speedup  1.05
cpu  time for SCC    0.00 s
wall time for SCC    0.00 s
speedup  1.04
cpu  time for grad    0.01 s
wall time for grad    0.01 s
 E :    -50.46486996  G :  0.000362    pred/act E change: -0.386D-06 -0.443D-06
Maxdispl :   0.0201   ||displ|| :   0.0229   Lambda : -0.701D-06
Largest |displ|/coords:  0.0201 (   2)  0.0048 (   7)  0.0046 (   3)
................................................................................
.............................. CYCLE   73 ......................................
................................................................................
   1    -50.7444053 -0.507444E+02  0.832E-03    9.22       0.0  T
   2    -50.7444053 -0.158371E-07  0.628E-03    9.22       3.1  T
   3    -50.7444053 -0.129670E-07  0.699E-04    9.22      28.1  T
   4    -50.7444053 -0.209995E-08  0.256E-04    9.22      76.6  T
speedup  1.05
cpu  time for SCC    0.00 s
wall time for SCC    0.00 s
speedup  0.96
cpu  time for grad    0.01 s
wall time for grad    0.01 s
 E :    -50.46487046  G :  0.000353    pred/act E change: -0.294D-06 -0.505D-06
Maxdispl :   0.0227   ||displ|| :   0.0274   Lambda : -0.658D-06
Largest |displ|/coords:  0.0227 (   2)  0.0081 (   7)  0.0059 (   3)
................................................................................
.............................. CYCLE   74 ......................................
................................................................................
   1    -50.7443775 -0.507444E+02  0.951E-03    9.22       0.0  T
   2    -50.7443775 -0.185339E-07  0.715E-03    9.22       2.7  T
   3    -50.7443775 -0.142826E-07  0.775E-04    9.22      25.3  T
   4    -50.7443775 -0.248088E-08  0.282E-04    9.22      69.5  T
speedup  0.79
cpu  time for SCC    0.00 s
wall time for SCC    0.00 s
speedup  0.96
cpu  time for grad    0.01 s
wall time for grad    0.01 s
 E :    -50.46487096  G :  0.000330    pred/act E change: -0.351D-06 -0.497D-06
Maxdispl :   0.0285   ||displ|| :   0.0361   Lambda : -0.720D-06
Largest |displ|/coords:  0.0285 (   2)  0.0108 (   7)  0.0101 (   3)
................................................................................
.............................. CYCLE   75 ......................................
................................................................................
   1    -50.7443147 -0.507443E+02  0.121E-02    9.23       0.0  T
   2    -50.7443147 -0.288910E-07  0.914E-03    9.23       2.1  T
   3    -50.7443147 -0.227839E-07  0.935E-04    9.23      21.0  T
   4    -50.7443147 -0.380837E-08  0.368E-04    9.23      53.4  T
speedup  1.05
cpu  time for SCC    0.00 s
wall time for SCC    0.00 s
speedup  1.04
cpu  time for grad    0.01 s
wall time for grad    0.01 s
 E :    -50.46487149  G :  0.000356    pred/act E change: -0.330D-06 -0.528D-06
Maxdispl :   0.0257   ||displ|| :   0.0356   Lambda : -0.582D-06
Largest |displ|/coords:  0.0257 (   2)  0.0120 (   1)  0.0119 (   7)
................................................................................
.............................. CYCLE   76 ......................................
................................................................................
   1    -50.7442422 -0.507442E+02  0.122E-02    9.23       0.0  T
   2    -50.7442423 -0.288677E-07  0.922E-03    9.23       2.1  T
   3    -50.7442423 -0.231518E-07  0.906E-04    9.23      21.6  T
   4    -50.7442423 -0.381844E-08  0.379E-04    9.23      51.7  T
speedup  1.05
cpu  time for SCC    0.00 s
wall time for SCC    0.00 s
speedup  0.96
cpu  time for grad    0.01 s
wall time for grad    0.01 s
 E :    -50.46487193  G :  0.000359    pred/act E change: -0.360D-06 -0.441D-06
Maxdispl :   0.0212   ||displ|| :   0.0313   Lambda : -0.540D-06
Largest |displ|/coords:  0.0212 (   2)  0.0126 (   3)  0.0109 (   7)
................................................................................
.............................. CYCLE   77 ......................................
................................................................................
   1    -50.7441982 -0.507442E+02  0.100E-02    9.23       0.0  T
   2    -50.7441982 -0.220739E-07  0.754E-03    9.23       2.6  T
   3    -50.7441982 -0.167391E-07  0.817E-04    9.23      24.0  T
   4    -50.7441982 -0.303653E-08  0.345E-04    9.23      56.9  T
speedup  1.03
cpu  time for SCC    0.00 s
wall time for SCC    0.00 s
speedup  1.03
cpu  time for grad    0.01 s
wall time for grad    0.01 s
 E :    -50.46487232  G :  0.000444    pred/act E change: -0.291D-06 -0.393D-06
Maxdispl :   0.0192   ||displ|| :   0.0287   Lambda : -0.434D-06
Largest |displ|/coords:  0.0192 (   2)  0.0109 (   3)  0.0105 (   7)
................................................................................
.............................. CYCLE   78 ......................................
................................................................................
   1    -50.7441657 -0.507442E+02  0.947E-03    9.23       0.0  T
   2    -50.7441657 -0.182475E-07  0.713E-03    9.23       2.8  T
   3    -50.7441657 -0.140756E-07  0.707E-04    9.23      27.7  T
   4    -50.7441657 -0.251126E-08  0.325E-04    9.23      60.3  T
speedup  1.08
cpu  time for SCC    0.00 s
wall time for SCC    0.00 s
speedup  0.97
cpu  time for grad    0.01 s
wall time for grad    0.01 s
 E :    -50.46487263  G :  0.000342    pred/act E change: -0.270D-06 -0.310D-06
Maxdispl :   0.0092   ||displ|| :   0.0147   Lambda : -0.323D-06
Largest |displ|/coords:  0.0092 (   3)  0.0075 (   2)  0.0057 (   7)
................................................................................
.............................. CYCLE   79 ......................................
................................................................................
   1    -50.7441964 -0.507442E+02  0.523E-03    9.23       0.0  T
   2    -50.7441964 -0.596880E-08  0.394E-03    9.23       5.0  T
   3    -50.7441964 -0.543881E-08  0.400E-04    9.23      49.0  T
   4    -50.7441964 -0.733600E-09  0.213E-04    9.23      92.2  T
speedup  1.05
cpu  time for SCC    0.00 s
wall time for SCC    0.00 s
speedup  1.04
cpu  time for grad    0.01 s
wall time for grad    0.01 s
 E :    -50.46487285  G :  0.000273    pred/act E change: -0.217D-06 -0.224D-06
Maxdispl :   0.0036   ||displ|| :   0.0063   Lambda : -0.172D-06
Largest |displ|/coords:  0.0036 (   3)  0.0034 (   2)  0.0025 (   7)
................................................................................
.............................. CYCLE   80 ......................................
................................................................................
   1    -50.7442105 -0.507442E+02  0.240E-03    9.23       0.0  T
   2    -50.7442105 -0.160058E-08  0.181E-03    9.23      10.8  T
   3    -50.7442105 -0.150822E-08  0.231E-04    9.23      84.7  T
   4    -50.7442105 -0.190326E-09  0.102E-04    9.23     191.6  T
speedup  1.08
cpu  time for SCC    0.00 s
wall time for SCC    0.00 s
speedup  0.97
cpu  time for grad    0.01 s
wall time for grad    0.01 s
 E :    -50.46487297  G :  0.000161    pred/act E change: -0.162D-06 -0.120D-06
Maxdispl :   0.0075   ||displ|| :   0.0111   Lambda : -0.113D-06
Largest |displ|/coords:  0.0075 (   2)  0.0058 (   3)  0.0042 (   7)
................................................................................
.............................. CYCLE   81 ......................................
................................................................................
   1    -50.7442142 -0.507442E+02  0.358E-03    9.23       0.0  T
   2    -50.7442142 -0.260661E-08  0.269E-03    9.23       7.3  T
   3    -50.7442142 -0.260228E-08  0.307E-04    9.23      63.9  T
   4    -50.7442142 -0.283038E-09  0.127E-04    9.23     154.4  T
speedup  0.83
cpu  time for SCC    0.00 s
wall time for SCC    0.00 s
speedup  0.98
cpu  time for grad    0.01 s
wall time for grad    0.01 s
 E :    -50.46487305  G :  0.000123    pred/act E change: -0.861D-07 -0.759D-07
Maxdispl :   0.0019   ||displ|| :   0.0030   Lambda : -0.425D-07
Largest |displ|/coords:  0.0019 (   1)  0.0013 (   3)  0.0009 (  15)

   *** GEOMETRY OPTIMIZATION CONVERGED AFTER 81 ITERATIONS ***

------------------------------------------------------------------------
 total energy gain (kcal):     -0.4469
------------------------------------------------------------------------
================
 final structure:
================
$coord
        1.76026402280204        0.20808813515957        1.57013243098757      S 
        4.24516348461744       -0.17636875791085        2.61244251327519      O 
        0.29502449676404       -2.18629079024222        1.49777849950638      O 
        0.29177879943551        2.19385249741959        2.74557587522348      O 
        2.19568344758245        0.90364686182227       -1.26168777186339      O 
       -4.45742734850811       -1.45820204395729       -0.07046334672287      O 
       -2.85200790815826       -2.01303363396236        0.64647248059475      H 
       -5.14018306924612       -0.31878737750828        1.19783774456560      H 
        6.62237064859701       -2.03203918816458       -1.20194362786955      O 
        5.94459548577223       -1.37234269414951        0.42880999340016      H 
        6.91684337480817       -0.54640676858294       -2.20253110896337      H 
       -4.63231792429518        1.94343270546503        3.85116725701615      O 
       -4.90799716654993        1.53638095323786        5.59284075742104      H 
       -2.79418769722305        1.99168387532984        3.61686541449916      H 
       -2.61842104842988        5.50457377105852        0.05376493481712      O 
       -4.13077022621270        5.21020393946934        1.02156204553623      H 
       -1.27288000243641        4.74133423144910        1.04761490967190      H 
       -2.08041812593103        1.65962863319607       -3.16225288535418      O 
        0.46581636866569        1.27168659590251       -2.10230587366000      H 
       -3.18910729904749        0.44708297872508       -2.26149355237236      H 
       -2.45537443583803        3.31093595853644       -2.39388975149386      H 
        2.35005762763830       -4.22296587723869       -2.30482261734005      N 
        1.50024935748345       -3.48124211457333       -3.86053158532837      H 
        4.22328983703053       -3.44924821814811       -2.07655708550919      H 
        1.35242177142061       -3.52516002560874       -0.61176226564884      H 
        2.36753352926447       -6.14044362776340       -2.37262340328801      H 
$end
 
 Bond Distances (Angstroems)
 ---------------------------
S1-O2=1.4404         S1-O3=1.4860         S1-O4=1.4474         S1-O5=1.5602         O2-S1=1.4404         O3-S1=1.4860         
O4-S1=1.4474         O5-S1=1.5602         O5-H19=1.0362        O6-H7=0.9756         O6-H8=0.9719         H7-O6=0.9756         
H8-O6=0.9719         O9-H10=0.9976        O9-H11=0.9606        H10-O9=0.9976        H11-O9=0.9606        O12-H13=0.9577       
O12-H14=0.9809       H13-O12=0.9577       H14-O12=0.9809       O15-H16=0.9628       O15-H17=0.9730       H16-O15=0.9628       
H17-O15=0.9730       O18-H20=0.9915       O18-H21=0.9840       H19-O5=1.0362        H20-O18=0.9915       H21-O18=0.9840       
N22-H23=1.0169       N22-H24=1.0793       N22-H25=1.1035       N22-H26=1.0154       H23-N22=1.0169       H24-N22=1.0793       
H25-N22=1.1035       H26-N22=1.0154       
 N  H  Rav=1.0538 sigma=0.0386  Rmin=1.0154  Rmax=1.1035     4
 O  H  Rav=0.9811 sigma=0.0211  Rmin=0.9577  Rmax=1.0362    11
 S  O  Rav=1.4835 sigma=0.0476  Rmin=1.4404  Rmax=1.5602     4
 
 selected bond angles (degree)
 --------------------
O3-S1-O2=111.46                O4-S1-O2=115.35                O4-S1-O3=110.49                O5-S1-O2=105.44                
O5-S1-O3=104.68                O5-S1-O4=108.71                H19-O5-S1=109.04               H8-O6-H7=104.00                
H11-O9-H10=104.40              
 
 selected dihedral angles (degree)
 ---------------------------------
H19-O5-S1-O2=182.14           H19-O5-S1-O3= 64.45           H19-O5-S1-O4=306.37           
 
 CMA Distance (Angstroems)
 ---------------------------
R(CMA):  1.6709

========================================================================
 FINAL SINGLEPOINT CALCULATION ON OPTIMIZED GEOMETRY
========================================================================

 Ncao       : 65
 Nao        : 64
 Nshell     : 38
 Nel        : 80
 T(el)      :   300.0
 intcut     :    25.0
 scfconv/Eh :  0.100E-05
   qconv/e  :  0.100E-03
 intneglect :  0.100E-07
 broydamp   :      0.250
 iter      E             dE          RMSdq      gap      omega  full diag
   1    -50.7442142 -0.507442E+02  0.364E-05    9.23       0.0  T
   2    -50.7442142 -0.110845E-11  0.238E-05    9.23     824.8  T
   3    -50.7442142 -0.582645E-12  0.573E-06    9.23    3422.0  T
speedup  1.07
cpu  time for SCC    0.00 s
wall time for SCC    0.00 s

   *** convergence criteria satisfied after 3 iterations ***

          eigenvalues
 #    :          28         29         30         31         32         33         34         35
 occ. :        2.000      2.000      2.000      2.000      2.000      2.000      2.000      2.000
 eps  :       -13.574    -13.159    -12.670    -12.577    -12.526    -12.366    -12.127    -12.080
 #    :          36         37         38         39         40         41         42         43
 occ. :        2.000      2.000      2.000      2.000      2.000      0.000      0.000      0.000
 eps  :       -11.985    -11.901    -11.843    -11.761    -11.697     -2.469     -1.250     -0.233
 #    :          44         45         46         47         48         49         50         51
 occ. :        0.000      0.000      0.000      0.000      0.000      0.000      0.000      0.000
 eps  :         0.786      1.042      1.313      2.090      2.747      3.406      3.892      4.706


   #   Z            q   n(s)   n(p)   n(d)      C6AA      α(0)
   1  16 S      1.696  1.583  1.778  0.943    88.864    15.866
   2   8 O     -0.719  1.770  4.949  0.000    29.227     7.248
   3   8 O     -0.761  1.781  4.980  0.000    30.373     7.391
   4   8 O     -0.738  1.763  4.975  0.000    29.755     7.313
   5   8 O     -0.676  1.771  4.906  0.000    27.057     7.022
   6   8 O     -0.631  1.758  4.872  0.000    25.935     6.873
   7   1 H      0.311  0.689  0.000  0.000     0.689     1.304
   8   1 H      0.317  0.683  0.000  0.000     0.672     1.287
   9   8 O     -0.599  1.744  4.855  0.000    25.150     6.769
  10   1 H      0.341  0.659  0.000  0.000     0.611     1.228
  11   1 H      0.301  0.699  0.000  0.000     0.717     1.330
  12   8 O     -0.619  1.743  4.876  0.000    25.639     6.834
  13   1 H      0.281  0.719  0.000  0.000     0.782     1.389
  14   1 H      0.326  0.674  0.000  0.000     0.648     1.264
  15   8 O     -0.606  1.748  4.858  0.000    25.322     6.792
  16   1 H      0.305  0.695  0.000  0.000     0.707     1.320
  17   1 H      0.318  0.682  0.000  0.000     0.670     1.286
  18   8 O     -0.636  1.771  4.865  0.000    26.052     6.890
  19   1 H      0.381  0.619  0.000  0.000     0.517     1.127
  20   1 H      0.333  0.667  0.000  0.000     0.630     1.247
  21   1 H      0.333  0.667  0.000  0.000     0.629     1.246
  22   7 N     -0.345  1.276  4.069  0.000    28.862     7.979
  23   1 H      0.244  0.756  0.000  0.000     0.909     1.493
  24   1 H      0.300  0.700  0.000  0.000     0.712     1.322
  25   1 H      0.307  0.693  0.000  0.000     0.688     1.298
  26   1 H      0.234  0.766  0.000  0.000     0.948     1.525

 Mol. C6AA /au·bohr⁶  :       5457.050220
 Mol. C8AA /au·bohr⁸  :     118088.984687
 Mol. α(0) /au        :        106.642983

 
 Wiberg/Mayer (AO) data. WBOs > 0.1 written file <wbo>
 largest (>0.05) Wiberg bond orders for each atom
           total WBO             WBO to atom ...
     1  S   4.844    O    2 1.353    O    4 1.320    O    3 1.164    O    5 0.961
     2  O   1.760    S    1 1.353    O    4 0.103    O    3 0.099    H   10 0.086    O    5 0.069
     3  O   1.760    S    1 1.164    H   25 0.184    O    2 0.099    O    4 0.095    O    5 0.078    N   22 0.069
     4  O   1.730    S    1 1.320    O    2 0.103    O    3 0.095    O    5 0.082    H   14 0.054
     5  O   1.912    S    1 0.961    H   19 0.651    O    4 0.082    O    3 0.078    O    2 0.069    O   18 0.060
     6  O   1.879    H    8 0.863    H    7 0.851    H   20 0.080
     7  H   0.903    O    6 0.851
     8  H   0.899    O    6 0.863
     9  O   1.953    H   11 0.905    H   10 0.793    H   24 0.145    N   22 0.067
    10  H   0.884    O    9 0.793    O    2 0.086
    11  H   0.909    O    9 0.905
    12  O   1.842    H   13 0.917    H   14 0.834
    13  H   0.921    O   12 0.917
    14  H   0.894    O   12 0.834    O    4 0.054
    15  O   1.878    H   16 0.898    H   17 0.860    H   21 0.062
    16  H   0.907    O   15 0.898
    17  H   0.899    O   15 0.860
    18  O   1.956    H   21 0.825    H   20 0.806    H   19 0.187    O    5 0.060
    19  H   0.855    O    5 0.651    O   18 0.187
    20  H   0.889    O   18 0.806    O    6 0.080
    21  H   0.889    O   18 0.825    O   15 0.062
    22  N   3.505    H   26 0.942    H   23 0.937    H   24 0.760    H   25 0.713    O    3 0.069    O    9 0.067
    23  H   0.941    N   22 0.937
    24  H   0.910    N   22 0.760    O    9 0.145
    25  H   0.906    N   22 0.713    O    3 0.184
    26  H   0.945    N   22 0.942
 MOs/occ written to file <molden.input>
 
molecular dipole:
                 x           y           z       tot (Debye)
 q only:        0.362      -1.934      -1.575
   full:        0.365      -1.742      -0.905       5.075
molecular quadrupole (traceless):
                xx          xy          yy          xz          yz          zz
 q only:       -7.792      -5.682       5.875     -14.330       9.667       1.918
  q+dip:       -9.881      -3.118       4.597     -16.884      11.045       5.284
   full:       -9.769      -3.299       4.235     -17.090      10.899       5.534

SCC energy    :     -50.7442142
rep           :       0.2791310
ES            :       0.2671412
AES           :      -0.0743116
AXC           :      -0.0091536
disp          :      -0.0203481
XB            :       0.0000000
fix           :       0.0000000
total E       :     -50.4648731
atomizationE  :       4.9951772     3134.52
(atE without considering molecular charge,
 total energy contains solvation terms)
H-L gap (eV)  :          9.2284
optimized geometry written to: xtbopt.xyz


------------------------------------------------------------------------
 * finished run on 2019/09/16 at 12:15:09.427     
------------------------------------------------------------------------
 total:
 * wall-time:     0 d,  0 h,  0 min,  2.018 sec
 *  cpu-time:     0 d,  0 h,  0 min,  1.911 sec
 * ratio c/w:     0.947 speedup
 SCF:
 * wall-time:     0 d,  0 h,  0 min,  0.151 sec
 *  cpu-time:     0 d,  0 h,  0 min,  0.146 sec
 * ratio c/w:     0.968 speedup
 ANC optimizer:
 * wall-time:     0 d,  0 h,  0 min,  1.841 sec
 *  cpu-time:     0 d,  0 h,  0 min,  1.742 sec
 * ratio c/w:     0.946 speedup

