      -----------------------------------------------------------      
     |                   =====================                   |     
     |                           x T B                           |     
     |                   =====================                   |     
     |                         S. Grimme                         |     
     |          Mulliken Center for Theoretical Chemistry        |     
     |                    University of Bonn                     |     
     |                 Version 6.0.1 (SAW181210)                 |     
      -----------------------------------------------------------      

   This program is distributed in the hope that it will be useful,
   but WITHOUT ANY WARRANTY; without even the implied warranty of
   MERCHANTABILITY or FITNESS FOR A PARTICULAR PURPOSE.
   
   FOR NON-COMMERCIAL, ACADEMIA USE ONLY.
   
   Cite this work as:
   S. Grimme, C. Bannwarth, P. Shushkov, J. Comput. Theory Chem., 2017,
   13, 1989-2009.
   C. Bannwarth, S. Ehlert and S. Grimme., ChemRxiv, 2018, preprint.
   http://doi.org/10.26434/chemrxiv.7246238.v1
   
   for sTDA-xTB:
   S. Grimme and C. Bannwarth, J. Chem. Phys., 2016, 145, 054103.
   
   in the mass-spec context:
   V. Asgeirsson, C. Bauer and S. Grimme, Chem. Sci., 2017, 8, 4879.
   
   if GBSA is used:
   P. Shushkov, F. März and S. Grimme, unpublished.
   
   for ANC optimizer:
   S. Grimme, unpublished.
   Rational Function algorithm used in ANCopt:
   F. Eckert, P. Pulay, H.-J. Werner, J. Comput. Chem., 1997, 18, 1473.
   
   with help from (in alphabetical order)
   C. Bannwarth, F. Bohle, G. Brandenburg, E. Caldeweyher, M. Checinski,
   S. Dohm, S. Ehlert, S. Ehrlich, F. März, H. Neugebauer, J. Pisarek,
   P. Pracht, P. Shushkov, and S. Spicher.
   
 * started run on 2019/09/16 at 11:48:55.705     
========================================================================
 # omp threads = 1
========================================================================
number of atoms            : 26
number of electrons        : 80
charge                     : 0
spin                       : .0
first test random number   : .3826

########################################################################
# WARNING! Please study the warnings concerning your input carefully
#  - XTBPATH is not set, using XTBHOME instead
#  - the use of '-opt' is discouraged, please use '--opt' next time
#  - the use of '-chrg' is discouraged, please use '--chrg' next time
#  - the use of '-uhf' is discouraged, please use '--uhf' next time
########################################################################

           ------------------------------------------------- 
          |                 G F N 2 - x T B                 |
          | Geometry, Frequencies, Noncovalent interactions |
          |            JCTC 2018 parametrisation            |
           ------------------------------------------------- 
      method parameters     
 k(s)        :  1.8500
 k(p)        :  2.2300
 k(d)        :  2.2300
 k(f)        :  2.0000
 kEN (H0ij)  : -2.0000
 D4 a1       :  0.5200
 D4 a2       :  5.0000
 D4 s6       :  1.0000
 D4 s8       :  2.7000
 D4 s9       :  5.0000
 alphaj      :  2.0000


            Z     q(EN)     CN     RAES       Cart. coordinates
     1  S   6.0    0.61    4.50    4.57     2.81970     2.64881     0.06290
     2  O   6.0   -0.27    1.12    1.80     4.72172     4.08733     1.55994
     3  O   6.0   -0.33    1.24    1.80     0.80417     1.69018     1.77953
     4  O   6.0   -0.27    2.11    1.84     4.06015     0.50632    -1.19549
     5  O   6.0   -0.25    2.10    1.84     1.69122     4.31796    -1.84837
     6  H   1.0    0.16    1.27    1.48     2.00963     3.64601    -3.50311
     7  H   1.0    0.16    1.27    1.49     4.79762    -0.58459     0.05236
     8  O   6.0   -0.29    2.02    1.83    -0.84708    -1.94724    -3.23955
     9  H   1.0    0.15    0.97    1.43     0.10047    -3.22501    -2.35407
    10  H   1.0    0.16    1.02    1.43    -2.41618    -1.79386    -2.32903
    11  O   6.0   -0.28    2.01    1.83     1.43964     1.54443    -6.07202
    12  H   1.0    0.17    1.04    1.43     0.52143     0.17861    -5.29354
    13  H   1.0    0.15    0.97    1.43     1.41341     1.18649    -7.85690
    14  O   6.0   -0.30    2.02    1.83    -0.20973    -3.23633     2.27174
    15  H   1.0    0.15    1.00    1.43    -1.95061    -3.42211     1.77231
    16  H   1.0    0.17    1.04    1.43     0.05199    -1.44323     2.44751
    17  O   6.0   -0.31    2.04    1.83    -4.77093    -1.93850     0.06726
    18  H   1.0    0.14    0.97    1.43    -6.53152    -2.39125    -0.03247
    19  H   1.0    0.15    1.05    1.44    -4.71829    -0.43214     1.08839
    20  O   6.0   -0.28    2.01    1.83     4.85748    -3.01604     2.32940
    21  H   1.0    0.15    0.97    1.43     5.62587    -3.44910     3.92208
    22  H   1.0    0.16    1.03    1.43     3.11071    -3.50375     2.48916
    23  N   5.0   -0.23    3.02    1.93    -4.43559     2.25544     3.18338
    24  H   1.0    0.11    0.99    1.43    -4.98738     4.05630     2.77906
    25  H   1.0    0.13    1.03    1.43    -2.54336     2.19564     2.82706
    26  H   1.0    0.10    0.99    1.43    -4.61454     2.06963     5.09244

  Z AO/shell   Hii/eV     exponent
  1     Wed Apr 25 08:07:45 CEST 2018   EN: 2.200 GM2: 0.406  GM3: 0.0800  RAES: 1.40
     1s    -10.707211    1.230000
  7     Wed Apr 25 08:07:45 CEST 2018   EN: 3.040 GM2: 0.461  GM3:-0.0640  RAES: 1.90
     2s    -16.686243    2.339881
     2p    -12.523956    2.014332
  8     Wed Apr 25 08:07:45 CEST 2018   EN: 3.440 GM2: 0.452  GM3:-0.0517  RAES: 1.80
     2s    -20.229985    2.439742
     2p    -15.503117    2.137023
 16     Tue Apr 24 11:44:34 CEST 2018   EN: 2.580 GM2: 0.340  GM3:-0.0502  RAES: 3.10
     3s    -20.029654    1.981333
     3p    -11.377694    2.025643
     3d     -0.420282    1.702555
 no old-style atom pair restraining (fixing) potential

molecular fragmentation (1/2 indicates fragments):
11111112222222222222222222
# atoms in fragment 1/2:     7    19
 fragment masses (1/2) :       98.07      107.11
CMA distance (Bohr)    :   5.108
constraining FC (au)   :  0.0500
           ------------------------------------------------- 
          |        Self-Consistent Charge Iterations        |
           ------------------------------------------------- 

 Ncao       : 65
 Nao        : 64
 Nshell     : 38
 Nel        : 80
 T(el)      :   300.0
 intcut     :    25.0
 scfconv/Eh :  0.100E-05
   qconv/e  :  0.100E-03
 intneglect :  0.100E-07
 broydamp   :      0.250
 iter      E             dE          RMSdq      gap      omega  full diag
   1    -50.6243683 -0.506244E+02  0.703E+00   10.28       0.0  T
   2    -50.6800734 -0.557051E-01  0.505E+00    9.62       1.0  T
   3    -50.7186537 -0.385803E-01  0.143E+00    8.50       1.0  T
   4    -50.7248865 -0.623284E-02  0.575E-01    8.73       1.0  T
   5    -50.7254839 -0.597383E-03  0.367E-01    8.63       1.0  T
   6    -50.7261266 -0.642687E-03  0.164E-01    8.61       1.0  T
   7    -50.7262988 -0.172162E-03  0.640E-02    8.60       1.0  T
   8    -50.7263208 -0.219937E-04  0.377E-02    8.60       1.0  T
   9    -50.7263292 -0.844164E-05  0.164E-02    8.61       1.2  T
  10    -50.7263311 -0.191565E-05  0.289E-03    8.61       6.8  T
  11    -50.7263311 -0.293702E-07  0.137E-03    8.61      14.3  T
  12    -50.7263311 -0.639835E-08  0.647E-04    8.61      30.3  T
  13    -50.7263311 -0.224475E-08  0.158E-04    8.61     124.5  T
speedup  0.99
cpu  time for SCC    0.01 s
wall time for SCC    0.02 s

   *** convergence criteria satisfied after 13 iterations ***

          eigenvalues
 #    :          28         29         30         31         32         33         34         35
 occ. :        2.000      2.000      2.000      2.000      2.000      2.000      2.000      2.000
 eps  :       -13.346    -13.259    -12.577    -12.298    -12.198    -12.146    -12.115    -12.033
 #    :          36         37         38         39         40         41         42         43
 occ. :        2.000      2.000      2.000      2.000      2.000      0.000      0.000      0.000
 eps  :       -11.888    -11.558    -11.522    -11.243    -10.909     -2.298     -1.087     -0.117
 #    :          44         45         46         47         48         49         50         51
 occ. :        0.000      0.000      0.000      0.000      0.000      0.000      0.000      0.000
 eps  :         0.253      0.996      1.665      1.931      2.562      4.068      4.695      5.316


   #   Z            q   n(s)   n(p)   n(d)      C6AA      α(0)
   1  16 S      1.690  1.574  1.788  0.947    88.995    15.878
   2   8 O     -0.704  1.779  4.925  0.000    28.817     7.197
   3   8 O     -0.731  1.765  4.966  0.000    29.566     7.290
   4   8 O     -0.561  1.712  4.848  0.000    24.231     6.645
   5   8 O     -0.543  1.713  4.830  0.000    23.835     6.591
   6   1 H      0.412  0.588  0.000  0.000     0.455     1.056
   7   1 H      0.416  0.584  0.000  0.000     0.449     1.049
   8   8 O     -0.626  1.743  4.884  0.000    25.825     6.859
   9   1 H      0.301  0.699  0.000  0.000     0.718     1.331
  10   1 H      0.328  0.672  0.000  0.000     0.644     1.260
  11   8 O     -0.628  1.743  4.885  0.000    25.866     6.864
  12   1 H      0.335  0.665  0.000  0.000     0.624     1.241
  13   1 H      0.290  0.710  0.000  0.000     0.751     1.361
  14   8 O     -0.649  1.745  4.905  0.000    26.397     6.934
  15   1 H      0.311  0.689  0.000  0.000     0.688     1.303
  16   1 H      0.319  0.681  0.000  0.000     0.666     1.282
  17   8 O     -0.608  1.736  4.872  0.000    25.390     6.801
  18   1 H      0.282  0.718  0.000  0.000     0.776     1.384
  19   1 H      0.328  0.672  0.000  0.000     0.643     1.259
  20   8 O     -0.621  1.744  4.877  0.000    25.688     6.841
  21   1 H      0.295  0.705  0.000  0.000     0.735     1.347
  22   1 H      0.338  0.662  0.000  0.000     0.618     1.234
  23   7 N     -0.465  1.392  4.073  0.000    32.264     8.436
  24   1 H      0.146  0.854  0.000  0.000     1.429     1.872
  25   1 H      0.196  0.804  0.000  0.000     1.129     1.665
  26   1 H      0.149  0.851  0.000  0.000     1.411     1.861

 Mol. C6AA /au·bohr⁶  :       5455.933735
 Mol. C8AA /au·bohr⁸  :     117752.294014
 Mol. α(0) /au        :        106.839763

 
 Wiberg/Mayer (AO) data. WBOs > 0.1 written file <wbo>
 largest (>0.05) Wiberg bond orders for each atom
           total WBO             WBO to atom ...
     1  S   4.836    O    2 1.388    O    3 1.302    O    5 1.066    O    4 1.040
     2  O   1.705    S    1 1.388    O    3 0.132    O    4 0.092    O    5 0.082
     3  O   1.697    S    1 1.302    O    2 0.132    O    4 0.086    O    5 0.077
     4  O   2.043    S    1 1.040    H    7 0.750    O    2 0.092    O    3 0.086
     5  O   2.061    S    1 1.066    H    6 0.759    O    2 0.082    O    3 0.077
     6  H   0.830    O    5 0.759
     7  H   0.827    O    4 0.750    O   20 0.054
     8  O   1.839    H    9 0.899    H   10 0.846
     9  H   0.909    O    8 0.899
    10  H   0.893    O    8 0.846
    11  O   1.831    H   13 0.906    H   12 0.837
    12  H   0.888    O   11 0.837
    13  H   0.915    O   11 0.906
    14  O   1.816    H   15 0.865    H   16 0.851
    15  H   0.903    O   14 0.865
    16  H   0.898    O   14 0.851
    17  O   1.866    H   18 0.911    H   19 0.831
    18  H   0.920    O   17 0.911
    19  H   0.893    O   17 0.831    N   23 0.056
    20  O   1.846    H   21 0.905    H   22 0.846    H    7 0.054
    21  H   0.912    O   20 0.905
    22  H   0.886    O   20 0.846
    23  N   2.983    H   26 0.974    H   24 0.974    H   25 0.930    H   19 0.056
    24  H   0.979    N   23 0.974
    25  H   0.962    N   23 0.930
    26  H   0.978    N   23 0.974
 MOs/occ written to file <molden.input>
 
molecular dipole:
                 x           y           z       tot (Debye)
 q only:       -1.160      -1.021      -0.773
   full:       -1.514      -1.034      -0.718       5.006
molecular quadrupole (traceless):
                xx          xy          yy          xz          yz          zz
 q only:        2.553      -8.815      -8.641      -4.978      -6.346       6.088
  q+dip:        1.484     -10.737     -10.529      -6.674      -5.915       9.045
   full:        1.461     -11.131     -10.576      -6.618      -6.217       9.115

SCC energy    :     -50.7263311
rep           :       0.3158378
ES            :       0.2466144
AES           :      -0.0490334
AXC           :      -0.0066490
disp          :      -0.0177802
XB            :       0.0000000
fix           :       0.0000000
total E       :     -50.4101310
atomizationE  :       4.9404352     3100.17
(atE without considering molecular charge,
 total energy contains solvation terms)
H-L gap (eV)  :          8.6110
           ------------------------------------------------- 
          |                 ===============                 |
          |                   A N C O P T                   |
          |                 ===============                 |
          |          Approximate Normal Coordinate          |
          |           Rational Function Optimizer           |
           ------------------------------------------------- 
dumping coords to <xtbopt.coord> and <xtbopt.log>
 optlevel               2
 Maxcycle             520
 Maxmicro              25
 Econv         1.000000000000000E-007
 Gconv         2.000000000000000E-004
 Maxdispl       1.00000000000000     
 Hlow          5.000000000000000E-003
 S6             20.0000000000000     
 Nvar               72

generating ANC from model Hessian ...
 Shifting diagonal of input Hessian by   4.976915681003244E-003
 Lowest  eigenvalues of input Hessian
   -0.000000   -0.000000    0.000000    0.000000    0.000000    0.000000
    0.005000    0.005094    0.005137    0.005511    0.005713    0.005760
    0.005961    0.006321    0.006708    0.006881    0.007162    0.008037
 Highest eigenvalues
    1.427490    1.449906    1.553053    3.212409    3.409166    3.462846
 
cpu  time for ANC gen    0.01 s
wall time for ANC gen    0.01 s
................................................................................
.............................. CYCLE    1 ......................................
................................................................................
   1    -50.7263311 -0.507263E+02  0.733E-05    8.61       0.0  T
   2    -50.7263311 -0.139622E-10  0.556E-05    8.61     352.8  T
   3    -50.7263311 -0.104308E-10  0.332E-05    8.61     591.2  T
speedup  1.07
cpu  time for SCC    0.00 s
wall time for SCC    0.00 s
speedup  1.08
cpu  time for grad    0.01 s
wall time for grad    0.01 s
 E :    -50.41013098  G :  0.185782    pred/act E change:  0.000D+00  0.381D-07
Maxdispl :   0.1297   ||displ|| :   0.3575   Lambda : -0.169D-01
Largest |displ|/coords:  0.1297 (  31)  0.1231 (  12)  0.1026 (  29)
................................................................................
.............................. CYCLE    2 ......................................
................................................................................
   1    -50.7256648 -0.507257E+02  0.510E-01    8.49       0.0  T
   2    -50.7259494 -0.284625E-03  0.388E-01    8.49       1.0  T
   3    -50.7260232 -0.738084E-04  0.142E-01    8.48       1.0  T
   4    -50.7260548 -0.315271E-04  0.237E-02    8.48       1.0  T
   5    -50.7260560 -0.122496E-05  0.748E-03    8.49       2.6  T
   6    -50.7260560 -0.449702E-07  0.263E-03    8.49       7.4  T
   7    -50.7260561 -0.157755E-07  0.131E-03    8.49      15.0  T
speedup  1.13
cpu  time for SCC    0.01 s
wall time for SCC    0.01 s
speedup  1.01
cpu  time for grad    0.01 s
wall time for grad    0.01 s
 E :    -50.42305605  G :  0.125880    pred/act E change:  0.000D+00 -0.129D-01
Maxdispl :   0.0948   ||displ|| :   0.2900   Lambda : -0.101D-01
Largest |displ|/coords:  0.0948 (  19)  0.0908 (  17)  0.0847 (  32)
................................................................................
.............................. CYCLE    3 ......................................
................................................................................
   1    -50.7350840 -0.507351E+02  0.318E-01    8.44       0.0  T
   2    -50.7352924 -0.208401E-03  0.247E-01    8.46       1.0  T
   3    -50.7353473 -0.548642E-04  0.115E-01    8.48       1.0  T
   4    -50.7353595 -0.122465E-04  0.229E-02    8.49       1.0  T
   5    -50.7353604 -0.887240E-06  0.488E-03    8.48       4.0  T
   6    -50.7353604 -0.294069E-07  0.211E-03    8.48       9.3  T
speedup  0.94
cpu  time for SCC    0.00 s
wall time for SCC    0.01 s
speedup  1.00
cpu  time for grad    0.01 s
wall time for grad    0.01 s
 E :    -50.43019803  G :  0.065004    pred/act E change: -0.952D-02 -0.714D-02
Maxdispl :   0.1792   ||displ|| :   0.3440   Lambda : -0.539D-02
Largest |displ|/coords:  0.1792 (  12)  0.1105 (  17)  0.0930 (  15)
................................................................................
.............................. CYCLE    4 ......................................
................................................................................
   1    -50.7313793 -0.507314E+02  0.456E-01    8.33       0.0  T
   2    -50.7315681 -0.188738E-03  0.347E-01    8.35       1.0  T
   3    -50.7316194 -0.513445E-04  0.101E-01    8.37       1.0  T
   4    -50.7316459 -0.265057E-04  0.239E-02    8.37       1.0  T
   5    -50.7316471 -0.116723E-05  0.541E-03    8.37       3.6  T
   6    -50.7316471 -0.222452E-07  0.248E-03    8.37       7.9  T
speedup  0.96
cpu  time for SCC    0.00 s
wall time for SCC    0.01 s
speedup  1.01
cpu  time for grad    0.01 s
wall time for grad    0.01 s
 E :    -50.43311764  G :  0.042058    pred/act E change: -0.547D-02 -0.292D-02
Maxdispl :   0.2104   ||displ|| :   0.3983   Lambda : -0.537D-02
Largest |displ|/coords:  0.2104 (   8)  0.1199 (  32)  0.1126 (  14)
................................................................................
.............................. CYCLE    5 ......................................
................................................................................
   1    -50.7376949 -0.507377E+02  0.437E-01    8.15       0.0  T
   2    -50.7379383 -0.243341E-03  0.335E-01    8.17       1.0  T
   3    -50.7380063 -0.679978E-04  0.108E-01    8.21       1.0  T
   4    -50.7380357 -0.294728E-04  0.317E-02    8.21       1.0  T
   5    -50.7380372 -0.145185E-05  0.598E-03    8.21       3.3  T
   6    -50.7380372 -0.401543E-07  0.305E-03    8.21       6.4  T
speedup  0.96
cpu  time for SCC    0.00 s
wall time for SCC    0.01 s
speedup  1.01
cpu  time for grad    0.01 s
wall time for grad    0.01 s
 E :    -50.43441361  G :  0.041880    pred/act E change: -0.301D-02 -0.130D-02
Maxdispl :   0.0982   ||displ|| :   0.1950   Lambda : -0.177D-02
Largest |displ|/coords:  0.0982 (  12)  0.0735 (   3)  0.0674 (   7)
................................................................................
.............................. CYCLE    6 ......................................
................................................................................
   1    -50.7327777 -0.507328E+02  0.209E-01    8.13       0.0  T
   2    -50.7328059 -0.281376E-04  0.156E-01    8.13       1.0  T
   3    -50.7328154 -0.950883E-05  0.416E-02    8.13       1.0  T
   4    -50.7328193 -0.397198E-05  0.774E-03    8.13       2.5  T
   5    -50.7328195 -0.154944E-06  0.215E-03    8.13       9.1  T
   6    -50.7328195 -0.208264E-08  0.119E-03    8.13      16.5  T
speedup  1.13
cpu  time for SCC    0.01 s
wall time for SCC    0.01 s
speedup  1.00
cpu  time for grad    0.01 s
wall time for grad    0.01 s
 E :    -50.43551238  G :  0.029083    pred/act E change: -0.311D-02 -0.110D-02
Maxdispl :   0.1775   ||displ|| :   0.4291   Lambda : -0.338D-02
Largest |displ|/coords:  0.1775 (   2)  0.1469 (   3)  0.1419 (  12)
................................................................................
.............................. CYCLE    7 ......................................
................................................................................
   1    -50.7306976 -0.507307E+02  0.469E-01    8.01       0.0  T
   2    -50.7308757 -0.178035E-03  0.351E-01    8.01       1.0  T
   3    -50.7309641 -0.884220E-04  0.867E-02    8.02       1.0  T
   4    -50.7309864 -0.222913E-04  0.247E-02    8.02       1.0  T
   5    -50.7309881 -0.176643E-05  0.738E-03    8.02       2.7  T
   6    -50.7309882 -0.284228E-07  0.424E-03    8.02       4.6  T
   7    -50.7309882 -0.331262E-07  0.953E-04    8.02      20.6  T
speedup  0.98
cpu  time for SCC    0.01 s
wall time for SCC    0.01 s
speedup  1.01
cpu  time for grad    0.01 s
wall time for grad    0.01 s
 E :    -50.43312382  G :  0.076493    pred/act E change: -0.917D-03  0.239D-02
Maxdispl :   0.1701   ||displ|| :   0.4199   Lambda : -0.118D-01
Largest |displ|/coords:  0.1701 (  21)  0.1224 (  15)  0.1215 (  12)
................................................................................
.............................. CYCLE    8 ......................................
................................................................................
   1    -50.7311481 -0.507311E+02  0.583E-01    8.16       0.0  T
   2    -50.7315180 -0.369908E-03  0.436E-01    8.17       1.0  T
   3    -50.7316813 -0.163277E-03  0.126E-01    8.18       1.0  T
   4    -50.7317217 -0.404242E-04  0.330E-02    8.18       1.0  T
   5    -50.7317249 -0.322740E-05  0.889E-03    8.18       2.2  T
   6    -50.7317250 -0.764839E-07  0.561E-03    8.18       3.5  T
   7    -50.7317251 -0.495352E-07  0.140E-03    8.18      14.0  T
speedup  0.97
cpu  time for SCC    0.01 s
wall time for SCC    0.01 s
speedup  1.01
cpu  time for grad    0.01 s
wall time for grad    0.01 s
 E :    -50.43409022  G :  0.064315    pred/act E change: -0.200D-02 -0.966D-03
Maxdispl :   0.1201   ||displ|| :   0.3395   Lambda : -0.841D-02
Largest |displ|/coords:  0.1201 (  21)  0.1097 (   2)  0.0905 (  24)
................................................................................
.............................. CYCLE    9 ......................................
................................................................................
   1    -50.7371869 -0.507372E+02  0.451E-01    8.12       0.0  T
   2    -50.7374047 -0.217776E-03  0.337E-01    8.12       1.0  T
   3    -50.7375124 -0.107650E-03  0.932E-02    8.12       1.0  T
   4    -50.7375358 -0.234519E-04  0.275E-02    8.12       1.0  T
   5    -50.7375379 -0.210429E-05  0.771E-03    8.12       2.5  T
   6    -50.7375380 -0.385212E-07  0.416E-03    8.12       4.7  T
   7    -50.7375380 -0.318796E-07  0.109E-03    8.12      18.0  T
speedup  0.98
cpu  time for SCC    0.01 s
wall time for SCC    0.01 s
speedup  1.02
cpu  time for grad    0.01 s
wall time for grad    0.01 s
 E :    -50.43540098  G :  0.041891    pred/act E change: -0.696D-02 -0.131D-02
Maxdispl :   0.1091   ||displ|| :   0.2250   Lambda : -0.223D-02
Largest |displ|/coords:  0.1091 (   3)  0.0942 (  11)  0.0752 (  10)
................................................................................
.............................. CYCLE   10 ......................................
................................................................................
   1    -50.7300945 -0.507301E+02  0.309E-01    8.15       0.0  T
   2    -50.7301554 -0.609546E-04  0.232E-01    8.15       1.0  T
   3    -50.7301902 -0.347382E-04  0.488E-02    8.15       1.0  T
   4    -50.7301984 -0.825636E-05  0.123E-02    8.15       1.6  T
   5    -50.7301989 -0.446270E-06  0.380E-03    8.15       5.2  T
   6    -50.7301989 -0.139917E-07  0.236E-03    8.15       8.3  T
speedup  1.13
cpu  time for SCC    0.01 s
wall time for SCC    0.01 s
speedup  1.00
cpu  time for grad    0.01 s
wall time for grad    0.01 s
 E :    -50.43619913  G :  0.036617    pred/act E change: -0.469D-02 -0.798D-03
Maxdispl :   0.1863   ||displ|| :   0.4745   Lambda : -0.567D-02
Largest |displ|/coords:  0.1863 (   7)  0.1667 (  10)  0.1635 (  21)
................................................................................
.............................. CYCLE   11 ......................................
................................................................................
   1    -50.7237387 -0.507237E+02  0.694E-01    8.13       0.0  T
   2    -50.7242264 -0.487743E-03  0.519E-01    8.15       1.0  T
   3    -50.7244431 -0.216624E-03  0.141E-01    8.18       1.0  T
   4    -50.7245011 -0.580284E-04  0.371E-02    8.17       1.0  T
   5    -50.7245051 -0.402390E-05  0.101E-02    8.17       1.9  T
   6    -50.7245052 -0.111951E-06  0.656E-03    8.17       3.0  T
   7    -50.7245053 -0.662149E-07  0.165E-03    8.17      11.9  T
   8    -50.7245053 -0.640637E-08  0.525E-04    8.17      37.4  T
speedup  0.86
cpu  time for SCC    0.01 s
wall time for SCC    0.01 s
speedup  0.88
cpu  time for grad    0.01 s
wall time for grad    0.01 s
 E :    -50.42954058  G :  0.105462    pred/act E change: -0.117D-02  0.666D-02
Maxdispl :   0.2040   ||displ|| :   0.5184   Lambda : -0.279D-01
Largest |displ|/coords:  0.2040 (  21)  0.1744 (  29)  0.1646 (  24)
................................................................................
.............................. CYCLE   12 ......................................
................................................................................
   1    -50.7327479 -0.507327E+02  0.789E-01    8.11       0.0  T
   2    -50.7334822 -0.734276E-03  0.591E-01    8.11       1.0  T
   3    -50.7338377 -0.355472E-03  0.178E-01    8.09       1.0  T
   4    -50.7339095 -0.718555E-04  0.524E-02    8.09       1.0  T
   5    -50.7339172 -0.767557E-05  0.144E-02    8.09       1.4  T
   6    -50.7339174 -0.162205E-06  0.742E-03    8.09       2.6  T
   7    -50.7339175 -0.103451E-06  0.243E-03    8.09       8.1  T
   8    -50.7339175 -0.110660E-07  0.770E-04    8.09      25.5  T
speedup  1.01
cpu  time for SCC    0.01 s
wall time for SCC    0.01 s
speedup  0.95
cpu  time for grad    0.01 s
wall time for grad    0.01 s
 E :    -50.43308887  G :  0.081763    pred/act E change: -0.347D-02 -0.355D-02
Maxdispl :   0.0993   ||displ|| :   0.3026   Lambda : -0.103D-01
Largest |displ|/coords:  0.0993 (  11)  0.0897 (   7)  0.0882 (  10)
................................................................................
.............................. CYCLE   13 ......................................
................................................................................
   1    -50.7365040 -0.507365E+02  0.456E-01    8.21       0.0  T
   2    -50.7367394 -0.235397E-03  0.343E-01    8.22       1.0  T
   3    -50.7368388 -0.994315E-04  0.107E-01    8.23       1.0  T
   4    -50.7368633 -0.245061E-04  0.266E-02    8.23       1.0  T
   5    -50.7368655 -0.219126E-05  0.674E-03    8.23       2.9  T
   6    -50.7368655 -0.366246E-07  0.413E-03    8.23       4.7  T
   7    -50.7368656 -0.258150E-07  0.119E-03    8.23      16.5  T
speedup  0.95
cpu  time for SCC    0.01 s
wall time for SCC    0.01 s
speedup  1.00
cpu  time for grad    0.01 s
wall time for grad    0.01 s
 E :    -50.43624171  G :  0.035617    pred/act E change: -0.177D-01 -0.315D-02
Maxdispl :   0.1159   ||displ|| :   0.1862   Lambda : -0.156D-02
Largest |displ|/coords:  0.1159 (   3)  0.0627 (   2)  0.0574 (  12)
................................................................................
.............................. CYCLE   14 ......................................
................................................................................
   1    -50.7343698 -0.507344E+02  0.171E-01    8.18       0.0  T
   2    -50.7343866 -0.167913E-04  0.129E-01    8.17       1.0  T
   3    -50.7343942 -0.762994E-05  0.285E-02    8.17       1.0  T
   4    -50.7343967 -0.246914E-05  0.704E-03    8.17       2.8  T
   5    -50.7343968 -0.133515E-06  0.202E-03    8.17       9.7  T
   6    -50.7343968 -0.157442E-08  0.118E-03    8.17      16.6  T
speedup  1.11
cpu  time for SCC    0.01 s
wall time for SCC    0.01 s
speedup  0.99
cpu  time for grad    0.01 s
wall time for grad    0.01 s
 E :    -50.43717966  G :  0.016492    pred/act E change: -0.562D-02 -0.938D-03
Maxdispl :   0.0952   ||displ|| :   0.2273   Lambda : -0.741D-03
Largest |displ|/coords:  0.0952 (   5)  0.0772 (   3)  0.0763 (   2)
................................................................................
.............................. CYCLE   15 ......................................
................................................................................
   1    -50.7329912 -0.507330E+02  0.168E-01    8.16       0.0  T
   2    -50.7330017 -0.104931E-04  0.126E-01    8.16       1.0  T
   3    -50.7330076 -0.591057E-05  0.219E-02    8.16       1.0  T
   4    -50.7330093 -0.166514E-05  0.634E-03    8.16       3.1  T
   5    -50.7330093 -0.790028E-07  0.200E-03    8.16       9.8  T
   6    -50.7330093 -0.205895E-08  0.115E-03    8.16      17.1  T
speedup  1.15
cpu  time for SCC    0.01 s
wall time for SCC    0.01 s
speedup  1.01
cpu  time for grad    0.01 s
wall time for grad    0.01 s
 E :    -50.43753556  G :  0.016702    pred/act E change: -0.804D-03 -0.356D-03
Maxdispl :   0.1938   ||displ|| :   0.2660   Lambda : -0.591D-03
Largest |displ|/coords:  0.1938 (   3)  0.0809 (   6)  0.0670 (   2)
................................................................................
.............................. CYCLE   16 ......................................
................................................................................
   1    -50.7313490 -0.507313E+02  0.167E-01    8.16       0.0  T
   2    -50.7313556 -0.655364E-05  0.125E-01    8.16       1.0  T
   3    -50.7313602 -0.459717E-05  0.159E-02    8.17       1.2  T
   4    -50.7313611 -0.890774E-06  0.522E-03    8.17       3.8  T
   5    -50.7313611 -0.486509E-07  0.154E-03    8.17      12.7  T
   6    -50.7313611 -0.176757E-08  0.900E-04    8.17      21.8  T
speedup  0.96
cpu  time for SCC    0.00 s
wall time for SCC    0.01 s
speedup  1.01
cpu  time for grad    0.01 s
wall time for grad    0.01 s
 E :    -50.43790302  G :  0.022007    pred/act E change: -0.390D-03 -0.367D-03
Maxdispl :   0.2146   ||displ|| :   0.2937   Lambda : -0.759D-03
Largest |displ|/coords:  0.2146 (   3)  0.0867 (   2)  0.0827 (   8)
................................................................................
.............................. CYCLE   17 ......................................
................................................................................
   1    -50.7326827 -0.507327E+02  0.143E-01    8.20       0.0  T
   2    -50.7326909 -0.822268E-05  0.108E-01    8.20       1.0  T
   3    -50.7326967 -0.579313E-05  0.178E-02    8.22       1.1  T
   4    -50.7326979 -0.121463E-05  0.702E-03    8.22       2.8  T
   5    -50.7326980 -0.756316E-07  0.194E-03    8.22      10.1  T
   6    -50.7326980 -0.390196E-08  0.112E-03    8.22      17.5  T
speedup  0.96
cpu  time for SCC    0.01 s
wall time for SCC    0.01 s
speedup  1.01
cpu  time for grad    0.01 s
wall time for grad    0.01 s
 E :    -50.43844117  G :  0.015786    pred/act E change: -0.316D-03 -0.538D-03
Maxdispl :   0.3190   ||displ|| :   0.4842   Lambda : -0.111D-02
Largest |displ|/coords:  0.3190 (   3)  0.1246 (   8)  0.1232 (   2)
................................................................................
.............................. CYCLE   18 ......................................
................................................................................
   1    -50.7350293 -0.507350E+02  0.212E-01    8.28       0.0  T
   2    -50.7350444 -0.150748E-04  0.159E-01    8.28       1.0  T
   3    -50.7350510 -0.663529E-05  0.256E-02    8.31       1.0  T
   4    -50.7350536 -0.259509E-05  0.929E-03    8.31       2.1  T
   5    -50.7350537 -0.112586E-06  0.217E-03    8.31       9.1  T
   6    -50.7350537 -0.492532E-08  0.127E-03    8.31      15.5  T
speedup  1.13
cpu  time for SCC    0.01 s
wall time for SCC    0.01 s
speedup  0.99
cpu  time for grad    0.01 s
wall time for grad    0.01 s
 E :    -50.43914678  G :  0.014487    pred/act E change: -0.412D-03 -0.706D-03
Maxdispl :   0.3692   ||displ|| :   0.5495   Lambda : -0.104D-02
Largest |displ|/coords:  0.3692 (   3)  0.1630 (   2)  0.1603 (   8)
................................................................................
.............................. CYCLE   19 ......................................
................................................................................
   1    -50.7313332 -0.507313E+02  0.286E-01    8.32       0.0  T
   2    -50.7313502 -0.170093E-04  0.216E-01    8.32       1.0  T
   3    -50.7313653 -0.150552E-04  0.258E-02    8.34       1.0  T
   4    -50.7313673 -0.205321E-05  0.103E-02    8.34       1.9  T
   5    -50.7313675 -0.121757E-06  0.292E-03    8.34       6.7  T
   6    -50.7313675 -0.756051E-08  0.178E-03    8.34      11.0  T
speedup  0.96
cpu  time for SCC    0.01 s
wall time for SCC    0.01 s
speedup  1.01
cpu  time for grad    0.01 s
wall time for grad    0.01 s
 E :    -50.43977839  G :  0.017953    pred/act E change: -0.686D-03 -0.632D-03
Maxdispl :   0.2338   ||displ|| :   0.4034   Lambda : -0.891D-03
Largest |displ|/coords:  0.2338 (   3)  0.1551 (   7)  0.1312 (   2)
................................................................................
.............................. CYCLE   20 ......................................
................................................................................
   1    -50.7345623 -0.507346E+02  0.176E-01    8.33       0.0  T
   2    -50.7345772 -0.149203E-04  0.133E-01    8.33       1.0  T
   3    -50.7345904 -0.132191E-04  0.228E-02    8.34       1.0  T
   4    -50.7345923 -0.186153E-05  0.712E-03    8.34       2.8  T
   5    -50.7345924 -0.834370E-07  0.282E-03    8.34       7.0  T
   6    -50.7345924 -0.907824E-08  0.154E-03    8.34      12.8  T
speedup  0.96
cpu  time for SCC    0.00 s
wall time for SCC    0.01 s
speedup  1.00
cpu  time for grad    0.01 s
wall time for grad    0.01 s
 E :    -50.44012735  G :  0.018734    pred/act E change: -0.674D-03 -0.349D-03
Maxdispl :   0.3517   ||displ|| :   0.4510   Lambda : -0.846D-03
Largest |displ|/coords:  0.3517 (   3)  0.1026 (   7)  0.0929 (   5)
................................................................................
.............................. CYCLE   21 ......................................
................................................................................
   1    -50.7291113 -0.507291E+02  0.241E-01    8.30       0.0  T
   2    -50.7291248 -0.135052E-04  0.181E-01    8.30       1.0  T
   3    -50.7291346 -0.978168E-05  0.204E-02    8.30       1.0  T
   4    -50.7291367 -0.203841E-05  0.576E-03    8.30       3.4  T
   5    -50.7291367 -0.431342E-07  0.269E-03    8.30       7.3  T
   6    -50.7291367 -0.777802E-08  0.139E-03    8.30      14.1  T
speedup  0.94
cpu  time for SCC    0.00 s
wall time for SCC    0.01 s
speedup  1.00
cpu  time for grad    0.01 s
wall time for grad    0.01 s
 E :    -50.44040310  G :  0.021342    pred/act E change: -0.518D-03 -0.276D-03
Maxdispl :   0.1633   ||displ|| :   0.2242   Lambda : -0.969D-03
Largest |displ|/coords:  0.1633 (   3)  0.0632 (   1)  0.0508 (  12)
................................................................................
.............................. CYCLE   22 ......................................
................................................................................
   1    -50.7343934 -0.507344E+02  0.161E-01    8.37       0.0  T
   2    -50.7344154 -0.219825E-04  0.120E-01    8.37       1.0  T
   3    -50.7344269 -0.114970E-04  0.275E-02    8.36       1.0  T
   4    -50.7344297 -0.280335E-05  0.875E-03    8.36       2.2  T
   5    -50.7344299 -0.199019E-06  0.237E-03    8.36       8.3  T
   6    -50.7344299 -0.486725E-08  0.137E-03    8.36      14.3  T
speedup  0.94
cpu  time for SCC    0.00 s
wall time for SCC    0.01 s
speedup  1.00
cpu  time for grad    0.01 s
wall time for grad    0.01 s
 E :    -50.44066903  G :  0.019829    pred/act E change: -0.509D-03 -0.266D-03
Maxdispl :   0.1050   ||displ|| :   0.1964   Lambda : -0.643D-03
Largest |displ|/coords:  0.1050 (   3)  0.0845 (   7)  0.0612 (   6)
................................................................................
.............................. CYCLE   23 ......................................
................................................................................
   1    -50.7328249 -0.507328E+02  0.107E-01    8.34       0.0  T
   2    -50.7328297 -0.482215E-05  0.804E-02    8.34       1.0  T
   3    -50.7328330 -0.327608E-05  0.138E-02    8.36       1.4  T
   4    -50.7328337 -0.695251E-06  0.548E-03    8.35       3.6  T
   5    -50.7328338 -0.387759E-07  0.138E-03    8.35      14.2  T
   6    -50.7328338 -0.244436E-08  0.801E-04    8.35      24.5  T
speedup  1.11
cpu  time for SCC    0.01 s
wall time for SCC    0.01 s
speedup  1.06
cpu  time for grad    0.01 s
wall time for grad    0.01 s
 E :    -50.44108879  G :  0.011836    pred/act E change: -0.509D-03 -0.420D-03
Maxdispl :   0.1822   ||displ|| :   0.3160   Lambda : -0.732D-03
Largest |displ|/coords:  0.1822 (   3)  0.0886 (   4)  0.0880 (   7)
................................................................................
.............................. CYCLE   24 ......................................
................................................................................
   1    -50.7395776 -0.507396E+02  0.184E-01    8.38       0.0  T
   2    -50.7395955 -0.178475E-04  0.137E-01    8.37       1.0  T
   3    -50.7396064 -0.109213E-04  0.258E-02    8.34       1.0  T
   4    -50.7396088 -0.246713E-05  0.663E-03    8.35       3.0  T
   5    -50.7396089 -0.791504E-07  0.262E-03    8.35       7.5  T
   6    -50.7396089 -0.762290E-08  0.128E-03    8.35      15.3  T
speedup  0.93
cpu  time for SCC    0.01 s
wall time for SCC    0.01 s
speedup  0.98
cpu  time for grad    0.01 s
wall time for grad    0.01 s
 E :    -50.44131236  G :  0.023234    pred/act E change: -0.334D-03 -0.224D-03
Maxdispl :   0.3137   ||displ|| :   0.4667   Lambda : -0.836D-03
Largest |displ|/coords:  0.3137 (   3)  0.1568 (   2)  0.1337 (   7)
................................................................................
.............................. CYCLE   25 ......................................
................................................................................
   1    -50.7318011 -0.507318E+02  0.217E-01    8.28       0.0  T
   2    -50.7318136 -0.125089E-04  0.163E-01    8.28       1.0  T
   3    -50.7318237 -0.100072E-04  0.213E-02    8.28       1.0  T
   4    -50.7318251 -0.145707E-05  0.594E-03    8.28       3.3  T
   5    -50.7318252 -0.645822E-07  0.237E-03    8.28       8.3  T
speedup  0.91
cpu  time for SCC    0.00 s
wall time for SCC    0.00 s
speedup  0.98
cpu  time for grad    0.01 s
wall time for grad    0.01 s
 E :    -50.44174459  G :  0.016549    pred/act E change: -0.402D-03 -0.432D-03
Maxdispl :   0.1765   ||displ|| :   0.2705   Lambda : -0.896D-03
Largest |displ|/coords:  0.1765 (   3)  0.0953 (   2)  0.0681 (  16)

generating ANC from model Hessian ...
 Shifting diagonal of input Hessian by   5.060238802182880E-003
 Lowest  eigenvalues of input Hessian
    0.005000   -0.000000   -0.000000   -0.000000    0.000000    0.000000
    0.000000    0.005100    0.005329    0.005765    0.005892    0.006048
    0.006397    0.006959    0.007220    0.007351    0.008692    0.008842
 Highest eigenvalues
    1.410670    1.423670    1.440900    2.651809    3.268292    3.748102
 
cpu  time for ANC gen    0.02 s
wall time for ANC gen    0.02 s
................................................................................
.............................. CYCLE   26 ......................................
................................................................................
   1    -50.7334036 -0.507334E+02  0.176E-01    8.26       0.0  T
   2    -50.7334226 -0.190126E-04  0.129E-01    8.28       1.0  T
   3    -50.7334332 -0.105506E-04  0.252E-02    8.30       1.0  T
   4    -50.7334356 -0.241941E-05  0.731E-03    8.28       2.7  T
   5    -50.7334357 -0.864996E-07  0.275E-03    8.28       7.1  T
   6    -50.7334357 -0.902498E-08  0.136E-03    8.28      14.4  T
   7    -50.7334357 -0.336517E-08  0.417E-04    8.28      47.0  T
   8    -50.7334357 -0.399297E-09  0.120E-04    8.28     162.9  T
speedup  0.99
cpu  time for SCC    0.01 s
wall time for SCC    0.01 s
speedup  0.96
cpu  time for grad    0.01 s
wall time for grad    0.02 s
 E :    -50.44196146  G :  0.020699    pred/act E change:  0.000D+00 -0.217D-03
Maxdispl :   0.0840   ||displ|| :   0.1868   Lambda : -0.918D-03
Largest |displ|/coords:  0.0840 (   6)  0.0695 (  23)  0.0663 (   2)
................................................................................
.............................. CYCLE   27 ......................................
................................................................................
   1    -50.7364039 -0.507364E+02  0.169E-01    8.34       0.0  T
   2    -50.7364107 -0.687622E-05  0.128E-01    8.34       1.0  T
   3    -50.7364167 -0.595603E-05  0.145E-02    8.33       1.4  T
   4    -50.7364176 -0.906866E-06  0.403E-03    8.33       4.9  T
   5    -50.7364176 -0.213370E-07  0.180E-03    8.33      10.9  T
speedup  0.91
cpu  time for SCC    0.00 s
wall time for SCC    0.00 s
speedup  0.98
cpu  time for grad    0.01 s
wall time for grad    0.01 s
 E :    -50.44256692  G :  0.008268    pred/act E change:  0.000D+00 -0.605D-03
Maxdispl :   0.1505   ||displ|| :   0.2737   Lambda : -0.566D-03
Largest |displ|/coords:  0.1505 (   2)  0.1115 (   3)  0.0965 (   1)
................................................................................
.............................. CYCLE   28 ......................................
................................................................................
   1    -50.7386616 -0.507387E+02  0.158E-01    8.40       0.0  T
   2    -50.7386683 -0.670469E-05  0.118E-01    8.39       1.0  T
   3    -50.7386729 -0.454828E-05  0.178E-02    8.38       1.1  T
   4    -50.7386738 -0.988396E-06  0.455E-03    8.39       4.3  T
   5    -50.7386739 -0.357632E-07  0.167E-03    8.39      11.8  T
   6    -50.7386739 -0.223773E-08  0.875E-04    8.39      22.4  T
speedup  1.11
cpu  time for SCC    0.01 s
wall time for SCC    0.01 s
speedup  0.99
cpu  time for grad    0.01 s
wall time for grad    0.01 s
 E :    -50.44285394  G :  0.010294    pred/act E change: -0.475D-03 -0.287D-03
Maxdispl :   0.1632   ||displ|| :   0.3083   Lambda : -0.472D-03
Largest |displ|/coords:  0.1632 (   2)  0.1463 (   6)  0.1283 (   3)
................................................................................
.............................. CYCLE   29 ......................................
................................................................................
   1    -50.7391808 -0.507392E+02  0.162E-01    8.40       0.0  T
   2    -50.7391858 -0.502343E-05  0.122E-01    8.39       1.0  T
   3    -50.7391906 -0.479000E-05  0.148E-02    8.39       1.3  T
   4    -50.7391911 -0.547915E-06  0.498E-03    8.39       3.9  T
   5    -50.7391912 -0.219284E-07  0.151E-03    8.39      13.0  T
   6    -50.7391912 -0.233700E-08  0.793E-04    8.39      24.7  T
speedup  0.93
cpu  time for SCC    0.00 s
wall time for SCC    0.01 s
speedup  0.98
cpu  time for grad    0.01 s
wall time for grad    0.01 s
 E :    -50.44323941  G :  0.011951    pred/act E change: -0.304D-03 -0.385D-03
Maxdispl :   0.3730   ||displ|| :   0.6357   Lambda : -0.949D-03
Largest |displ|/coords:  0.3730 (   2)  0.2387 (   6)  0.2283 (   3)
................................................................................
.............................. CYCLE   30 ......................................
................................................................................
   1    -50.7359753 -0.507360E+02  0.349E-01    8.31       0.0  T
   2    -50.7360000 -0.246986E-04  0.264E-01    8.31       1.0  T
   3    -50.7360255 -0.255300E-04  0.317E-02    8.30       1.0  T
   4    -50.7360278 -0.228518E-05  0.106E-02    8.30       1.8  T
   5    -50.7360279 -0.100534E-06  0.324E-03    8.30       6.1  T
   6    -50.7360279 -0.110478E-07  0.167E-03    8.30      11.8  T
   7    -50.7360279 -0.386085E-08  0.341E-04    8.30      57.5  T
speedup  0.98
cpu  time for SCC    0.01 s
wall time for SCC    0.01 s
speedup  1.00
cpu  time for grad    0.01 s
wall time for grad    0.01 s
 E :    -50.44394689  G :  0.019101    pred/act E change: -0.259D-03 -0.707D-03
Maxdispl :   0.3294   ||displ|| :   0.5146   Lambda : -0.893D-03
Largest |displ|/coords:  0.3294 (   2)  0.2040 (   3)  0.1412 (   6)
................................................................................
.............................. CYCLE   31 ......................................
................................................................................
   1    -50.7331721 -0.507332E+02  0.246E-01    8.23       0.0  T
   2    -50.7331827 -0.106294E-04  0.185E-01    8.24       1.0  T
   3    -50.7331942 -0.115152E-04  0.200E-02    8.24       1.0  T
   4    -50.7331950 -0.831667E-06  0.614E-03    8.24       3.2  T
   5    -50.7331951 -0.478497E-07  0.251E-03    8.24       7.8  T
   6    -50.7331951 -0.108232E-07  0.124E-03    8.24      15.8  T
speedup  0.94
cpu  time for SCC    0.00 s
wall time for SCC    0.01 s
speedup  1.06
cpu  time for grad    0.01 s
wall time for grad    0.01 s
 E :    -50.44459878  G :  0.021283    pred/act E change: -0.666D-03 -0.652D-03
Maxdispl :   0.2483   ||displ|| :   0.3876   Lambda : -0.127D-02
Largest |displ|/coords:  0.2483 (   2)  0.1341 (   3)  0.1107 (  19)
................................................................................
.............................. CYCLE   32 ......................................
................................................................................
   1    -50.7365694 -0.507366E+02  0.194E-01    8.25       0.0  T
   2    -50.7365807 -0.113210E-04  0.145E-01    8.26       1.0  T
   3    -50.7365891 -0.844778E-05  0.205E-02    8.29       1.0  T
   4    -50.7365907 -0.160095E-05  0.717E-03    8.28       2.7  T
   5    -50.7365908 -0.659959E-07  0.224E-03    8.28       8.7  T
   6    -50.7365908 -0.514187E-08  0.126E-03    8.28      15.5  T
speedup  1.09
cpu  time for SCC    0.01 s
wall time for SCC    0.01 s
speedup  0.97
cpu  time for grad    0.01 s
wall time for grad    0.01 s
 E :    -50.44530509  G :  0.017233    pred/act E change: -0.565D-03 -0.706D-03
Maxdispl :   0.2652   ||displ|| :   0.5466   Lambda : -0.148D-02
Largest |displ|/coords:  0.2652 (   2)  0.2187 (   3)  0.1414 (   5)
................................................................................
.............................. CYCLE   33 ......................................
................................................................................
   1    -50.7274069 -0.507274E+02  0.407E-01    8.25       0.0  T
   2    -50.7274574 -0.504654E-04  0.306E-01    8.25       1.0  T
   3    -50.7274932 -0.358646E-04  0.400E-02    8.26       1.0  T
   4    -50.7275001 -0.690951E-05  0.126E-02    8.26       1.6  T
   5    -50.7275005 -0.317107E-06  0.402E-03    8.26       4.9  T
   6    -50.7275005 -0.145570E-07  0.242E-03    8.26       8.1  T
   7    -50.7275005 -0.108677E-07  0.632E-04    8.26      31.0  T
speedup  0.95
cpu  time for SCC    0.01 s
wall time for SCC    0.01 s
speedup  0.99
cpu  time for grad    0.01 s
wall time for grad    0.01 s
 E :    -50.44543601  G :  0.040507    pred/act E change: -0.733D-03 -0.131D-03
Maxdispl :   0.0991   ||displ|| :   0.2328   Lambda : -0.248D-02
Largest |displ|/coords:  0.0991 (   2)  0.0788 (   7)  0.0689 (  10)
................................................................................
.............................. CYCLE   34 ......................................
................................................................................
   1    -50.7383409 -0.507383E+02  0.179E-01    8.31       0.0  T
   2    -50.7383586 -0.177789E-04  0.134E-01    8.30       1.0  T
   3    -50.7383714 -0.127611E-04  0.234E-02    8.30       1.0  T
   4    -50.7383736 -0.215890E-05  0.843E-03    8.31       2.3  T
   5    -50.7383737 -0.108677E-06  0.278E-03    8.31       7.1  T
   6    -50.7383737 -0.622496E-08  0.148E-03    8.31      13.2  T
speedup  1.15
cpu  time for SCC    0.01 s
wall time for SCC    0.01 s
speedup  1.08
cpu  time for grad    0.01 s
wall time for grad    0.01 s
 E :    -50.44665642  G :  0.010228    pred/act E change: -0.964D-03 -0.122D-02
Maxdispl :   0.2630   ||displ|| :   0.4233   Lambda : -0.790D-03
Largest |displ|/coords:  0.2630 (   2)  0.1658 (   6)  0.1434 (   3)
................................................................................
.............................. CYCLE   35 ......................................
................................................................................
   1    -50.7371981 -0.507372E+02  0.197E-01    8.28       0.0  T
   2    -50.7372056 -0.741097E-05  0.148E-01    8.28       1.0  T
   3    -50.7372138 -0.822220E-05  0.168E-02    8.30       1.2  T
   4    -50.7372143 -0.543012E-06  0.755E-03    8.30       2.6  T
   5    -50.7372144 -0.539846E-07  0.196E-03    8.30      10.0  T
   6    -50.7372144 -0.407236E-08  0.128E-03    8.30      15.3  T
speedup  0.94
cpu  time for SCC    0.00 s
wall time for SCC    0.01 s
speedup  0.98
cpu  time for grad    0.01 s
wall time for grad    0.01 s
 E :    -50.44720506  G :  0.012801    pred/act E change: -0.131D-02 -0.549D-03
Maxdispl :   0.2578   ||displ|| :   0.4756   Lambda : -0.130D-02
Largest |displ|/coords:  0.2578 (  32)  0.1928 (   2)  0.1633 (   5)
................................................................................
.............................. CYCLE   36 ......................................
................................................................................
   1    -50.7398125 -0.507398E+02  0.300E-01    8.48       0.0  T
   2    -50.7398609 -0.484544E-04  0.224E-01    8.50       1.0  T
   3    -50.7398844 -0.234374E-04  0.482E-02    8.52       1.0  T
   4    -50.7398912 -0.680730E-05  0.136E-02    8.52       1.4  T
   5    -50.7398916 -0.401719E-06  0.370E-03    8.52       5.3  T
   6    -50.7398916 -0.113297E-07  0.236E-03    8.52       8.3  T
   7    -50.7398916 -0.115636E-07  0.779E-04    8.52      25.2  T
speedup  0.98
cpu  time for SCC    0.01 s
wall time for SCC    0.01 s
speedup  1.00
cpu  time for grad    0.01 s
wall time for grad    0.01 s
 E :    -50.44725246  G :  0.033940    pred/act E change: -0.466D-03 -0.474D-04
Maxdispl :   0.2130   ||displ|| :   0.3423   Lambda : -0.186D-02
Largest |displ|/coords:  0.2130 (   2)  0.1346 (   6)  0.1307 (   3)
................................................................................
.............................. CYCLE   37 ......................................
................................................................................
   1    -50.7356983 -0.507357E+02  0.221E-01    8.49       0.0  T
   2    -50.7357378 -0.395099E-04  0.163E-01    8.49       1.0  T
   3    -50.7357618 -0.240076E-04  0.378E-02    8.48       1.0  T
   4    -50.7357659 -0.408225E-05  0.936E-03    8.49       2.1  T
   5    -50.7357661 -0.170365E-06  0.389E-03    8.49       5.0  T
   6    -50.7357661 -0.904716E-08  0.201E-03    8.48       9.7  T
speedup  1.11
cpu  time for SCC    0.01 s
wall time for SCC    0.01 s
speedup  1.06
cpu  time for grad    0.01 s
wall time for grad    0.01 s
 E :    -50.44708309  G :  0.036657    pred/act E change: -0.799D-03  0.169D-03
Maxdispl :   0.1986   ||displ|| :   0.3885   Lambda : -0.333D-02
Largest |displ|/coords:  0.1986 (   7)  0.1673 (   2)  0.1031 (  13)
................................................................................
.............................. CYCLE   38 ......................................
................................................................................
   1    -50.7340298 -0.507340E+02  0.255E-01    8.22       0.0  T
   2    -50.7340877 -0.579612E-04  0.186E-01    8.20       1.0  T
   3    -50.7341147 -0.269616E-04  0.486E-02    8.17       1.0  T
   4    -50.7341201 -0.538494E-05  0.152E-02    8.17       1.3  T
   5    -50.7341206 -0.494056E-06  0.389E-03    8.18       5.0  T
   6    -50.7341206 -0.166461E-07  0.211E-03    8.18       9.3  T
speedup  0.93
cpu  time for SCC    0.00 s
wall time for SCC    0.01 s
speedup  0.98
cpu  time for grad    0.01 s
wall time for grad    0.01 s
 E :    -50.44692311  G :  0.031893    pred/act E change: -0.104D-02  0.160D-03
Maxdispl :   0.1141   ||displ|| :   0.2643   Lambda : -0.255D-02
Largest |displ|/coords:  0.1141 (   1)  0.0998 (  11)  0.0835 (  32)
................................................................................
.............................. CYCLE   39 ......................................
................................................................................
   1    -50.7417764 -0.507418E+02  0.200E-01    8.37       0.0  T
   2    -50.7417963 -0.199750E-04  0.148E-01    8.38       1.0  T
   3    -50.7418088 -0.124462E-04  0.307E-02    8.40       1.0  T
   4    -50.7418112 -0.245231E-05  0.989E-03    8.39       2.0  T
   5    -50.7418114 -0.155085E-06  0.261E-03    8.39       7.5  T
   6    -50.7418114 -0.690635E-08  0.152E-03    8.39      12.9  T
speedup  0.93
cpu  time for SCC    0.00 s
wall time for SCC    0.01 s
speedup  0.98
cpu  time for grad    0.01 s
wall time for grad    0.01 s
 E :    -50.44811085  G :  0.015143    pred/act E change: -0.192D-02 -0.119D-02
Maxdispl :   0.1917   ||displ|| :   0.3122   Lambda : -0.591D-03
Largest |displ|/coords:  0.1917 (   2)  0.1111 (  32)  0.1051 (   3)
................................................................................
.............................. CYCLE   40 ......................................
................................................................................
   1    -50.7358868 -0.507359E+02  0.176E-01    8.42       0.0  T
   2    -50.7358984 -0.116439E-04  0.132E-01    8.43       1.0  T
   3    -50.7359066 -0.814330E-05  0.202E-02    8.45       1.0  T
   4    -50.7359082 -0.164228E-05  0.767E-03    8.45       2.6  T
   5    -50.7359083 -0.957352E-07  0.227E-03    8.45       8.6  T
   6    -50.7359083 -0.462445E-08  0.139E-03    8.45      14.1  T
speedup  0.94
cpu  time for SCC    0.01 s
wall time for SCC    0.01 s
speedup  0.98
cpu  time for grad    0.01 s
wall time for grad    0.01 s
 E :    -50.44828674  G :  0.015919    pred/act E change: -0.136D-02 -0.176D-03
Maxdispl :   0.0596   ||displ|| :   0.1332   Lambda : -0.358D-03
Largest |displ|/coords:  0.0596 (  10)  0.0431 (   3)  0.0412 (  12)
................................................................................
.............................. CYCLE   41 ......................................
................................................................................
   1    -50.7401226 -0.507401E+02  0.845E-02    8.44       0.0  T
   2    -50.7401276 -0.497475E-05  0.625E-02    8.44       1.0  T
   3    -50.7401305 -0.293613E-05  0.134E-02    8.43       1.5  T
   4    -50.7401311 -0.555248E-06  0.408E-03    8.43       4.8  T
   5    -50.7401311 -0.465920E-07  0.125E-03    8.43      15.6  T
   6    -50.7401311 -0.143304E-08  0.674E-04    8.43      29.1  T
speedup  1.13
cpu  time for SCC    0.01 s
wall time for SCC    0.01 s
speedup  0.98
cpu  time for grad    0.01 s
wall time for grad    0.01 s
 E :    -50.44840750  G :  0.009539    pred/act E change: -0.324D-03 -0.121D-03
Maxdispl :   0.2125   ||displ|| :   0.2649   Lambda : -0.406D-03
Largest |displ|/coords:  0.2125 (   2)  0.0657 (   5)  0.0609 (   9)
................................................................................
.............................. CYCLE   42 ......................................
................................................................................
   1    -50.7386938 -0.507387E+02  0.123E-01    8.32       0.0  T
   2    -50.7387006 -0.670980E-05  0.907E-02    8.32       1.0  T
   3    -50.7387045 -0.393061E-05  0.166E-02    8.31       1.2  T
   4    -50.7387053 -0.774358E-06  0.552E-03    8.31       3.6  T
   5    -50.7387053 -0.587366E-07  0.165E-03    8.31      11.9  T
   6    -50.7387053 -0.340299E-08  0.932E-04    8.32      21.0  T
speedup  1.13
cpu  time for SCC    0.01 s
wall time for SCC    0.01 s
speedup  1.05
cpu  time for grad    0.01 s
wall time for grad    0.01 s
 E :    -50.44853228  G :  0.011943    pred/act E change: -0.182D-03 -0.125D-03
Maxdispl :   0.0869   ||displ|| :   0.1640   Lambda : -0.359D-03
Largest |displ|/coords:  0.0869 (   2)  0.0563 (   5)  0.0558 (  10)
................................................................................
.............................. CYCLE   43 ......................................
................................................................................
   1    -50.7393522 -0.507394E+02  0.968E-02    8.32       0.0  T
   2    -50.7393549 -0.268687E-05  0.729E-02    8.32       1.0  T
   3    -50.7393571 -0.225274E-05  0.941E-03    8.32       2.1  T
   4    -50.7393574 -0.334688E-06  0.269E-03    8.32       7.3  T
   5    -50.7393575 -0.131600E-07  0.114E-03    8.32      17.2  T
speedup  1.14
cpu  time for SCC    0.00 s
wall time for SCC    0.00 s
speedup  1.05
cpu  time for grad    0.01 s
wall time for grad    0.01 s
 E :    -50.44873187  G :  0.010500    pred/act E change: -0.217D-03 -0.200D-03
Maxdispl :   0.1690   ||displ|| :   0.3052   Lambda : -0.337D-03
Largest |displ|/coords:  0.1690 (   2)  0.1061 (   5)  0.1024 (  11)
................................................................................
.............................. CYCLE   44 ......................................
................................................................................
   1    -50.7370455 -0.507370E+02  0.149E-01    8.32       0.0  T
   2    -50.7370525 -0.700662E-05  0.112E-01    8.32       1.0  T
   3    -50.7370577 -0.526283E-05  0.161E-02    8.35       1.2  T
   4    -50.7370587 -0.100326E-05  0.594E-03    8.34       3.3  T
   5    -50.7370588 -0.538367E-07  0.189E-03    8.34      10.4  T
   6    -50.7370588 -0.516920E-08  0.113E-03    8.34      17.3  T
speedup  0.96
cpu  time for SCC    0.01 s
wall time for SCC    0.01 s
speedup  0.98
cpu  time for grad    0.01 s
wall time for grad    0.01 s
 E :    -50.44894000  G :  0.010188    pred/act E change: -0.184D-03 -0.208D-03
Maxdispl :   0.2057   ||displ|| :   0.3550   Lambda : -0.365D-03
Largest |displ|/coords:  0.2057 (   2)  0.1493 (   5)  0.1328 (  11)
................................................................................
.............................. CYCLE   45 ......................................
................................................................................
   1    -50.7365900 -0.507366E+02  0.157E-01    8.29       0.0  T
   2    -50.7365961 -0.606770E-05  0.117E-01    8.28       1.0  T
   3    -50.7366000 -0.390462E-05  0.170E-02    8.28       1.2  T
   4    -50.7366010 -0.949594E-06  0.554E-03    8.28       3.5  T
   5    -50.7366010 -0.419284E-07  0.168E-03    8.28      11.7  T
   6    -50.7366010 -0.467499E-08  0.941E-04    8.28      20.8  T
speedup  0.94
cpu  time for SCC    0.00 s
wall time for SCC    0.01 s
speedup  0.98
cpu  time for grad    0.01 s
wall time for grad    0.01 s
 E :    -50.44909782  G :  0.012159    pred/act E change: -0.184D-03 -0.158D-03
Maxdispl :   0.2639   ||displ|| :   0.4304   Lambda : -0.463D-03
Largest |displ|/coords:  0.2639 (   2)  0.1704 (  10)  0.1452 (  11)
................................................................................
.............................. CYCLE   46 ......................................
................................................................................
   1    -50.7336770 -0.507337E+02  0.189E-01    8.16       0.0  T
   2    -50.7336844 -0.735022E-05  0.141E-01    8.17       1.0  T
   3    -50.7336887 -0.432129E-05  0.172E-02    8.17       1.1  T
   4    -50.7336898 -0.110586E-05  0.550E-03    8.17       3.6  T
   5    -50.7336898 -0.376594E-07  0.194E-03    8.17      10.1  T
   6    -50.7336898 -0.466012E-08  0.962E-04    8.17      20.4  T
speedup  0.96
cpu  time for SCC    0.01 s
wall time for SCC    0.01 s
speedup  0.98
cpu  time for grad    0.01 s
wall time for grad    0.01 s
 E :    -50.44926276  G :  0.016778    pred/act E change: -0.206D-03 -0.165D-03
Maxdispl :   0.0924   ||displ|| :   0.1807   Lambda : -0.584D-03
Largest |displ|/coords:  0.0924 (  11)  0.0662 (   2)  0.0627 (   9)
................................................................................
.............................. CYCLE   47 ......................................
................................................................................
   1    -50.7396645 -0.507397E+02  0.110E-01    8.23       0.0  T
   2    -50.7396722 -0.771800E-05  0.810E-02    8.21       1.0  T
   3    -50.7396760 -0.382709E-05  0.186E-02    8.19       1.1  T
   4    -50.7396771 -0.103255E-05  0.419E-03    8.20       4.7  T
   5    -50.7396771 -0.310247E-07  0.154E-03    8.20      12.7  T
   6    -50.7396771 -0.233448E-08  0.738E-04    8.20      26.6  T
speedup  1.13
cpu  time for SCC    0.01 s
wall time for SCC    0.01 s
speedup  0.98
cpu  time for grad    0.01 s
wall time for grad    0.01 s
 E :    -50.44940685  G :  0.014964    pred/act E change: -0.274D-03 -0.144D-03
Maxdispl :   0.1243   ||displ|| :   0.1941   Lambda : -0.503D-03
Largest |displ|/coords:  0.1243 (   5)  0.0644 (   7)  0.0569 (   2)
................................................................................
.............................. CYCLE   48 ......................................
................................................................................
   1    -50.7386764 -0.507387E+02  0.104E-01    8.22       0.0  T
   2    -50.7386793 -0.290871E-05  0.769E-02    8.22       1.0  T
   3    -50.7386817 -0.236768E-05  0.122E-02    8.23       1.6  T
   4    -50.7386820 -0.291849E-06  0.323E-03    8.23       6.1  T
   5    -50.7386820 -0.163301E-07  0.121E-03    8.23      16.2  T
   6    -50.7386820 -0.239665E-08  0.698E-04    8.23      28.1  T
speedup  0.96
cpu  time for SCC    0.00 s
wall time for SCC    0.01 s
speedup  0.99
cpu  time for grad    0.01 s
wall time for grad    0.01 s
 E :    -50.44968059  G :  0.010195    pred/act E change: -0.301D-03 -0.274D-03
Maxdispl :   0.1623   ||displ|| :   0.3361   Lambda : -0.419D-03
Largest |displ|/coords:  0.1623 (  10)  0.1522 (   5)  0.0967 (  13)
................................................................................
.............................. CYCLE   49 ......................................
................................................................................
   1    -50.7356234 -0.507356E+02  0.161E-01    8.18       0.0  T
   2    -50.7356295 -0.601643E-05  0.119E-01    8.18       1.0  T
   3    -50.7356341 -0.461677E-05  0.179E-02    8.17       1.1  T
   4    -50.7356348 -0.680898E-06  0.376E-03    8.17       5.2  T
   5    -50.7356348 -0.232617E-07  0.189E-03    8.17      10.4  T
   6    -50.7356348 -0.520122E-08  0.960E-04    8.17      20.4  T
speedup  0.96
cpu  time for SCC    0.00 s
wall time for SCC    0.01 s
speedup  0.98
cpu  time for grad    0.01 s
wall time for grad    0.01 s
 E :    -50.44990464  G :  0.012396    pred/act E change: -0.261D-03 -0.224D-03
Maxdispl :   0.1670   ||displ|| :   0.3673   Lambda : -0.339D-03
Largest |displ|/coords:  0.1670 (   5)  0.1610 (   2)  0.1401 (  11)
................................................................................
.............................. CYCLE   50 ......................................
................................................................................
   1    -50.7339957 -0.507340E+02  0.159E-01    8.12       0.0  T
   2    -50.7340003 -0.456317E-05  0.117E-01    8.12       1.0  T
   3    -50.7340041 -0.380973E-05  0.175E-02    8.11       1.1  T
   4    -50.7340046 -0.465418E-06  0.473E-03    8.11       4.1  T
   5    -50.7340046 -0.364088E-07  0.164E-03    8.11      11.9  T
   6    -50.7340046 -0.369409E-08  0.963E-04    8.11      20.4  T
speedup  1.11
cpu  time for SCC    0.01 s
wall time for SCC    0.01 s
speedup  1.04
cpu  time for grad    0.01 s
wall time for grad    0.01 s
 E :    -50.45008031  G :  0.014834    pred/act E change: -0.233D-03 -0.176D-03
Maxdispl :   0.1231   ||displ|| :   0.3164   Lambda : -0.669D-03
Largest |displ|/coords:  0.1231 (   5)  0.1148 (   6)  0.1123 (   9)
................................................................................
.............................. CYCLE   51 ......................................
................................................................................
   1    -50.7404854 -0.507405E+02  0.146E-01    8.21       0.0  T
   2    -50.7404958 -0.104814E-04  0.105E-01    8.20       1.0  T
   3    -50.7405012 -0.537218E-05  0.232E-02    8.17       1.0  T
   4    -50.7405023 -0.110088E-05  0.562E-03    8.18       3.5  T
   5    -50.7405024 -0.463161E-07  0.180E-03    8.18      10.9  T
   6    -50.7405024 -0.490379E-08  0.965E-04    8.18      20.3  T
speedup  0.93
cpu  time for SCC    0.00 s
wall time for SCC    0.01 s
speedup  1.04
cpu  time for grad    0.01 s
wall time for grad    0.01 s
 E :    -50.45026911  G :  0.013055    pred/act E change: -0.193D-03 -0.189D-03
Maxdispl :   0.2326   ||displ|| :   0.4573   Lambda : -0.705D-03
Largest |displ|/coords:  0.2326 (   2)  0.2023 (   5)  0.1399 (  10)
................................................................................
.............................. CYCLE   52 ......................................
................................................................................
   1    -50.7295850 -0.507296E+02  0.246E-01    8.03       0.0  T
   2    -50.7296040 -0.190501E-04  0.184E-01    8.03       1.0  T
   3    -50.7296169 -0.128894E-04  0.276E-02    8.05       1.0  T
   4    -50.7296195 -0.264032E-05  0.683E-03    8.04       2.9  T
   5    -50.7296196 -0.738235E-07  0.314E-03    8.04       6.3  T
   6    -50.7296196 -0.123256E-07  0.162E-03    8.04      12.1  T
   7    -50.7296196 -0.596911E-08  0.429E-04    8.04      45.7  T
speedup  1.13
cpu  time for SCC    0.01 s
wall time for SCC    0.01 s
speedup  0.98
cpu  time for grad    0.01 s
wall time for grad    0.01 s
 E :    -50.45018513  G :  0.026155    pred/act E change: -0.368D-03  0.840D-04
Maxdispl :   0.1203   ||displ|| :   0.2333   Lambda : -0.111D-02
Largest |displ|/coords:  0.1203 (   2)  0.0996 (   3)  0.0724 (   5)

generating ANC from model Hessian ...
 Shifting diagonal of input Hessian by   4.921838928313691E-003
 Lowest  eigenvalues of input Hessian
   -0.000000   -0.000000   -0.000000    0.000000    0.000000    0.000000
    0.005000    0.005275    0.005383    0.005864    0.006094    0.006221
    0.006563    0.006907    0.007510    0.008890    0.009006    0.009498
 Highest eigenvalues
    1.387199    1.405719    1.407731    2.587673    3.252624    3.802427
 
cpu  time for ANC gen    0.02 s
wall time for ANC gen    0.02 s
................................................................................
.............................. CYCLE   53 ......................................
................................................................................
   1    -50.7380266 -0.507380E+02  0.137E-01    8.08       0.0  T
   2    -50.7380389 -0.122712E-04  0.102E-01    8.08       1.0  T
   3    -50.7380470 -0.807431E-05  0.194E-02    8.06       1.0  T
   4    -50.7380484 -0.143163E-05  0.543E-03    8.07       3.6  T
   5    -50.7380484 -0.446347E-07  0.237E-03    8.07       8.3  T
   6    -50.7380485 -0.541272E-08  0.123E-03    8.07      16.0  T
   7    -50.7380485 -0.264605E-08  0.260E-04    8.07      75.6  T
   8    -50.7380485 -0.162927E-09  0.763E-05    8.07     257.0  T
speedup  1.00
cpu  time for SCC    0.01 s
wall time for SCC    0.01 s
speedup  0.97
cpu  time for grad    0.01 s
wall time for grad    0.02 s
 E :    -50.45046619  G :  0.020116    pred/act E change:  0.000D+00 -0.281D-03
Maxdispl :   0.0876   ||displ|| :   0.1635   Lambda : -0.660D-03
Largest |displ|/coords:  0.0876 (   1)  0.0645 (   5)  0.0570 (   4)
................................................................................
.............................. CYCLE   54 ......................................
................................................................................
   1    -50.7379682 -0.507380E+02  0.119E-01    8.10       0.0  T
   2    -50.7379724 -0.416300E-05  0.889E-02    8.10       1.0  T
   3    -50.7379758 -0.349089E-05  0.127E-02    8.10       1.5  T
   4    -50.7379763 -0.484595E-06  0.427E-03    8.10       4.6  T
   5    -50.7379764 -0.221737E-07  0.143E-03    8.10      13.7  T
speedup  0.89
cpu  time for SCC    0.00 s
wall time for SCC    0.00 s
speedup  0.97
cpu  time for grad    0.01 s
wall time for grad    0.01 s
 E :    -50.45092969  G :  0.006513    pred/act E change:  0.000D+00 -0.463D-03
Maxdispl :   0.1821   ||displ|| :   0.2564   Lambda : -0.421D-03
Largest |displ|/coords:  0.1821 (   1)  0.0865 (   2)  0.0628 (  12)
................................................................................
.............................. CYCLE   55 ......................................
................................................................................
   1    -50.7374675 -0.507375E+02  0.162E-01    8.13       0.0  T
   2    -50.7374736 -0.607591E-05  0.121E-01    8.14       1.0  T
   3    -50.7374791 -0.552969E-05  0.166E-02    8.14       1.2  T
   4    -50.7374797 -0.586055E-06  0.420E-03    8.14       4.7  T
   5    -50.7374797 -0.222458E-07  0.179E-03    8.14      11.0  T
   6    -50.7374797 -0.480195E-08  0.864E-04    8.14      22.7  T
speedup  0.93
cpu  time for SCC    0.00 s
wall time for SCC    0.01 s
speedup  0.98
cpu  time for grad    0.01 s
wall time for grad    0.01 s
 E :    -50.45116575  G :  0.010833    pred/act E change: -0.339D-03 -0.236D-03
Maxdispl :   0.1048   ||displ|| :   0.1696   Lambda : -0.193D-03
Largest |displ|/coords:  0.1048 (   1)  0.0872 (   2)  0.0339 (   5)
................................................................................
.............................. CYCLE   56 ......................................
................................................................................
   1    -50.7377000 -0.507377E+02  0.902E-02    8.15       0.0  T
   2    -50.7377014 -0.139329E-05  0.669E-02    8.15       1.0  T
   3    -50.7377028 -0.145652E-05  0.912E-03    8.15       2.2  T
   4    -50.7377029 -0.965911E-07  0.248E-03    8.15       7.9  T
   5    -50.7377030 -0.110038E-07  0.764E-04    8.15      25.7  T
speedup  0.93
cpu  time for SCC    0.00 s
wall time for SCC    0.00 s
speedup  0.98
cpu  time for grad    0.01 s
wall time for grad    0.01 s
 E :    -50.45132296  G :  0.010638    pred/act E change: -0.224D-03 -0.157D-03
Maxdispl :   0.2808   ||displ|| :   0.4555   Lambda : -0.516D-03
Largest |displ|/coords:  0.2808 (   1)  0.2273 (   2)  0.1272 (  12)
................................................................................
.............................. CYCLE   57 ......................................
................................................................................
   1    -50.7370980 -0.507371E+02  0.240E-01    8.12       0.0  T
   2    -50.7371078 -0.980534E-05  0.177E-01    8.13       1.0  T
   3    -50.7371184 -0.105616E-04  0.248E-02    8.14       1.0  T
   4    -50.7371189 -0.551922E-06  0.458E-03    8.14       4.3  T
   5    -50.7371190 -0.476887E-07  0.199E-03    8.14       9.8  T
   6    -50.7371190 -0.723283E-08  0.120E-03    8.14      16.3  T
speedup  0.96
cpu  time for SCC    0.00 s
wall time for SCC    0.01 s
speedup  0.98
cpu  time for grad    0.01 s
wall time for grad    0.01 s
 E :    -50.45168153  G :  0.006437    pred/act E change: -0.993D-04 -0.359D-03
Maxdispl :   0.3126   ||displ|| :   0.4150   Lambda : -0.330D-03
Largest |displ|/coords:  0.3126 (   1)  0.1838 (   2)  0.0809 (  12)
................................................................................
.............................. CYCLE   58 ......................................
................................................................................
   1    -50.7365911 -0.507366E+02  0.215E-01    8.09       0.0  T
   2    -50.7366000 -0.885639E-05  0.160E-01    8.08       1.0  T
   3    -50.7366095 -0.949544E-05  0.233E-02    8.08       1.0  T
   4    -50.7366101 -0.576141E-06  0.492E-03    8.08       4.0  T
   5    -50.7366101 -0.550349E-07  0.200E-03    8.08       9.8  T
   6    -50.7366101 -0.691860E-08  0.123E-03    8.08      15.9  T
speedup  0.94
cpu  time for SCC    0.00 s
wall time for SCC    0.01 s
speedup  0.96
cpu  time for grad    0.01 s
wall time for grad    0.01 s
 E :    -50.45190034  G :  0.009963    pred/act E change: -0.312D-03 -0.219D-03
Maxdispl :   0.2428   ||displ|| :   0.3323   Lambda : -0.373D-03
Largest |displ|/coords:  0.2428 (   1)  0.1225 (   2)  0.0822 (   3)
................................................................................
.............................. CYCLE   59 ......................................
................................................................................
   1    -50.7403302 -0.507403E+02  0.167E-01    8.07       0.0  T
   2    -50.7403394 -0.920316E-05  0.123E-01    8.07       1.0  T
   3    -50.7403481 -0.874784E-05  0.227E-02    8.06       1.0  T
   4    -50.7403489 -0.810883E-06  0.668E-03    8.06       2.9  T
   5    -50.7403490 -0.797718E-07  0.203E-03    8.06       9.6  T
   6    -50.7403490 -0.617436E-08  0.127E-03    8.06      15.5  T
speedup  0.94
cpu  time for SCC    0.00 s
wall time for SCC    0.01 s
speedup  0.98
cpu  time for grad    0.01 s
wall time for grad    0.01 s
 E :    -50.45197252  G :  0.014051    pred/act E change: -0.193D-03 -0.722D-04
Maxdispl :   0.2172   ||displ|| :   0.3022   Lambda : -0.469D-03
Largest |displ|/coords:  0.2172 (   1)  0.0984 (   5)  0.0746 (   2)
................................................................................
.............................. CYCLE   60 ......................................
................................................................................
   1    -50.7371612 -0.507372E+02  0.183E-01    8.04       0.0  T
   2    -50.7371704 -0.913624E-05  0.137E-01    8.04       1.0  T
   3    -50.7371788 -0.843750E-05  0.208E-02    8.04       1.0  T
   4    -50.7371798 -0.980038E-06  0.730E-03    8.04       2.7  T
   5    -50.7371799 -0.792052E-07  0.229E-03    8.04       8.6  T
   6    -50.7371799 -0.661647E-08  0.140E-03    8.04      14.0  T
speedup  0.96
cpu  time for SCC    0.00 s
wall time for SCC    0.01 s
speedup  0.98
cpu  time for grad    0.01 s
wall time for grad    0.01 s
 E :    -50.45221388  G :  0.010209    pred/act E change: -0.207D-03 -0.241D-03
Maxdispl :   0.0825   ||displ|| :   0.1415   Lambda : -0.193D-03
Largest |displ|/coords:  0.0825 (   2)  0.0519 (   1)  0.0510 (   7)
................................................................................
.............................. CYCLE   61 ......................................
................................................................................
   1    -50.7404472 -0.507404E+02  0.804E-02    8.12       0.0  T
   2    -50.7404498 -0.261445E-05  0.596E-02    8.12       1.0  T
   3    -50.7404517 -0.193843E-05  0.108E-02    8.12       1.8  T
   4    -50.7404520 -0.287580E-06  0.320E-03    8.12       6.1  T
   5    -50.7404520 -0.188342E-07  0.993E-04    8.12      19.7  T
   6    -50.7404520 -0.999492E-09  0.565E-04    8.12      34.7  T
speedup  1.13
cpu  time for SCC    0.01 s
wall time for SCC    0.01 s
speedup  1.05
cpu  time for grad    0.01 s
wall time for grad    0.01 s
 E :    -50.45228099  G :  0.008350    pred/act E change: -0.256D-03 -0.671D-04
Maxdispl :   0.1349   ||displ|| :   0.1776   Lambda : -0.151D-03
Largest |displ|/coords:  0.1349 (   1)  0.0610 (  11)  0.0461 (   3)
................................................................................
.............................. CYCLE   62 ......................................
................................................................................
   1    -50.7395558 -0.507396E+02  0.964E-02    8.09       0.0  T
   2    -50.7395580 -0.218074E-05  0.714E-02    8.09       1.0  T
   3    -50.7395599 -0.191914E-05  0.116E-02    8.09       1.7  T
   4    -50.7395601 -0.210313E-06  0.369E-03    8.09       5.3  T
   5    -50.7395601 -0.221133E-07  0.963E-04    8.09      20.4  T
   6    -50.7395601 -0.119969E-08  0.645E-04    8.09      30.4  T
speedup  0.96
cpu  time for SCC    0.00 s
wall time for SCC    0.01 s
speedup  0.99
cpu  time for grad    0.01 s
wall time for grad    0.01 s
 E :    -50.45238143  G :  0.004659    pred/act E change: -0.985D-04 -0.100D-03
Maxdispl :   0.2177   ||displ|| :   0.2942   Lambda : -0.136D-03
Largest |displ|/coords:  0.2177 (   1)  0.0821 (   2)  0.0785 (   3)
................................................................................
.............................. CYCLE   63 ......................................
................................................................................
   1    -50.7388611 -0.507389E+02  0.155E-01    8.07       0.0  T
   2    -50.7388658 -0.471610E-05  0.114E-01    8.07       1.0  T
   3    -50.7388706 -0.480861E-05  0.181E-02    8.06       1.1  T
   4    -50.7388709 -0.346093E-06  0.486E-03    8.06       4.0  T
   5    -50.7388710 -0.474993E-07  0.153E-03    8.06      12.8  T
   6    -50.7388710 -0.305191E-08  0.104E-03    8.06      18.9  T
speedup  0.96
cpu  time for SCC    0.00 s
wall time for SCC    0.01 s
speedup  0.98
cpu  time for grad    0.01 s
wall time for grad    0.01 s
 E :    -50.45245756  G :  0.007461    pred/act E change: -0.779D-04 -0.761D-04
Maxdispl :   0.0521   ||displ|| :   0.1333   Lambda : -0.128D-03
Largest |displ|/coords:  0.0521 (   3)  0.0473 (   9)  0.0435 (   7)
................................................................................
.............................. CYCLE   64 ......................................
................................................................................
   1    -50.7402968 -0.507403E+02  0.674E-02    8.11       0.0  T
   2    -50.7402979 -0.113744E-05  0.503E-02    8.11       1.0  T
   3    -50.7402988 -0.816616E-06  0.720E-03    8.12       2.7  T
   4    -50.7402989 -0.155510E-06  0.191E-03    8.12      10.3  T
   5    -50.7402989 -0.616973E-08  0.758E-04    8.12      25.9  T
speedup  0.89
cpu  time for SCC    0.00 s
wall time for SCC    0.00 s
speedup  0.95
cpu  time for grad    0.01 s
wall time for grad    0.01 s
 E :    -50.45253828  G :  0.005276    pred/act E change: -0.740D-04 -0.807D-04
Maxdispl :   0.1617   ||displ|| :   0.2890   Lambda : -0.172D-03
Largest |displ|/coords:  0.1617 (   1)  0.1092 (   3)  0.0921 (   7)
................................................................................
.............................. CYCLE   65 ......................................
................................................................................
   1    -50.7392037 -0.507392E+02  0.158E-01    8.10       0.0  T
   2    -50.7392086 -0.493322E-05  0.118E-01    8.11       1.0  T
   3    -50.7392127 -0.409921E-05  0.157E-02    8.12       1.3  T
   4    -50.7392134 -0.625912E-06  0.530E-03    8.12       3.7  T
[...]
speedup  1.11
cpu  time for SCC    0.00 s
wall time for SCC    0.00 s
speedup  1.00
cpu  time for grad    0.01 s
wall time for grad    0.01 s
 E :    -50.45285265  G :  0.001050    pred/act E change: -0.378D-05 -0.522D-05
Maxdispl :   0.0158   ||displ|| :   0.0323   Lambda : -0.487D-05
Largest |displ|/coords:  0.0158 (   5)  0.0122 (   3)  0.0107 (  14)
................................................................................
.............................. CYCLE   77 ......................................
................................................................................
   1    -50.7400629 -0.507401E+02  0.190E-02    8.12       0.0  T
   2    -50.7400630 -0.110765E-06  0.137E-02    8.12       1.4  T
   3    -50.7400630 -0.688866E-07  0.269E-03    8.12       7.3  T
   4    -50.7400631 -0.106935E-07  0.858E-04    8.12      22.9  T
   5    -50.7400631 -0.103451E-08  0.157E-04    8.12     125.0  T
speedup  1.11
cpu  time for SCC    0.00 s
wall time for SCC    0.00 s
speedup  1.00
cpu  time for grad    0.01 s
wall time for grad    0.01 s
 E :    -50.45285581  G :  0.000950    pred/act E change: -0.405D-05 -0.316D-05
Maxdispl :   0.0168   ||displ|| :   0.0325   Lambda : -0.364D-05
Largest |displ|/coords:  0.0168 (   1)  0.0132 (   3)  0.0106 (  14)
................................................................................
.............................. CYCLE   78 ......................................
................................................................................
   1    -50.7399979 -0.507400E+02  0.164E-02    8.12       0.0  T
   2    -50.7399980 -0.584007E-07  0.122E-02    8.12       1.6  T
   3    -50.7399980 -0.488766E-07  0.188E-03    8.12      10.4  T
   4    -50.7399980 -0.694303E-08  0.618E-04    8.12      31.7  T
   5    -50.7399980 -0.505537E-09  0.171E-04    8.12     114.5  T
speedup  1.11
cpu  time for SCC    0.00 s
wall time for SCC    0.00 s
speedup  0.98
cpu  time for grad    0.01 s
wall time for grad    0.01 s
 E :    -50.45285828  G :  0.000775    pred/act E change: -0.244D-05 -0.247D-05
Maxdispl :   0.0169   ||displ|| :   0.0306   Lambda : -0.281D-05
Largest |displ|/coords:  0.0169 (   3)  0.0121 (  11)  0.0102 (   9)
................................................................................
.............................. CYCLE   79 ......................................
................................................................................
   1    -50.7401028 -0.507401E+02  0.145E-02    8.12       0.0  T
   2    -50.7401028 -0.549240E-07  0.106E-02    8.12       1.8  T
   3    -50.7401029 -0.404084E-07  0.181E-03    8.12      10.8  T
   4    -50.7401029 -0.586418E-08  0.625E-04    8.12      31.4  T
   5    -50.7401029 -0.518902E-09  0.140E-04    8.12     140.0  T
speedup  1.11
cpu  time for SCC    0.00 s
wall time for SCC    0.00 s
speedup  1.00
cpu  time for grad    0.01 s
wall time for grad    0.01 s
 E :    -50.45286013  G :  0.000602    pred/act E change: -0.182D-05 -0.185D-05
Maxdispl :   0.0107   ||displ|| :   0.0221   Lambda : -0.167D-05
Largest |displ|/coords:  0.0107 (   1)  0.0098 (   3)  0.0068 (  14)
................................................................................
.............................. CYCLE   80 ......................................
................................................................................
   1    -50.7399870 -0.507400E+02  0.105E-02    8.11       0.0  T
   2    -50.7399870 -0.219070E-07  0.784E-03    8.11       2.5  T
   3    -50.7399870 -0.202273E-07  0.104E-03    8.11      18.8  T
   4    -50.7399870 -0.238856E-08  0.342E-04    8.11      57.4  T
   5    -50.7399870 -0.179519E-09  0.114E-04    8.11     171.8  T
speedup  1.11
cpu  time for SCC    0.00 s
wall time for SCC    0.00 s
speedup  1.00
cpu  time for grad    0.01 s
wall time for grad    0.01 s
 E :    -50.45286115  G :  0.000544    pred/act E change: -0.140D-05 -0.103D-05
Maxdispl :   0.0071   ||displ|| :   0.0140   Lambda : -0.904D-06
Largest |displ|/coords:  0.0071 (   3)  0.0054 (  11)  0.0045 (   9)
................................................................................
.............................. CYCLE   81 ......................................
................................................................................
   1    -50.7400298 -0.507400E+02  0.726E-03    8.11       0.0  T
   2    -50.7400299 -0.157284E-07  0.539E-03    8.11       3.6  T
   3    -50.7400299 -0.110756E-07  0.957E-04    8.11      20.5  T
   4    -50.7400299 -0.214383E-08  0.303E-04    8.11      64.8  T
speedup  1.14
cpu  time for SCC    0.00 s
wall time for SCC    0.00 s
speedup  1.00
cpu  time for grad    0.01 s
wall time for grad    0.01 s
 E :    -50.45286171  G :  0.000374    pred/act E change: -0.835D-06 -0.554D-06
Maxdispl :   0.0028   ||displ|| :   0.0060   Lambda : -0.410D-06
Largest |displ|/coords:  0.0028 (   2)  0.0025 (   1)  0.0022 (  15)

generating ANC from model Hessian ...
 Shifting diagonal of input Hessian by   4.693638704243038E-003
 Lowest  eigenvalues of input Hessian
   -0.000000   -0.000000    0.000000    0.000000    0.000000    0.000000
    0.005000    0.005040    0.005283    0.005608    0.005883    0.006187
    0.006533    0.006761    0.007989    0.008071    0.008666    0.008953
 Highest eigenvalues
    1.381668    1.382367    1.396063    2.607985    3.291543    3.814112
 
cpu  time for ANC gen    0.02 s
wall time for ANC gen    0.02 s
................................................................................
.............................. CYCLE   82 ......................................
................................................................................
   1    -50.7400064 -0.507400E+02  0.362E-03    8.11       0.0  T
   2    -50.7400064 -0.720303E-08  0.272E-03    8.11       7.2  T
   3    -50.7400064 -0.385479E-08  0.617E-04    8.11      31.8  T
   4    -50.7400064 -0.112256E-08  0.174E-04    8.11     112.7  T
speedup  1.08
cpu  time for SCC    0.00 s
wall time for SCC    0.00 s
speedup  0.98
cpu  time for grad    0.01 s
wall time for grad    0.01 s
 E :    -50.45286199  G :  0.000254    pred/act E change:  0.000D+00 -0.283D-06
Maxdispl :   0.0015   ||displ|| :   0.0032   Lambda : -0.171D-06
Largest |displ|/coords:  0.0015 (   2)  0.0012 (   7)  0.0011 (   1)
................................................................................
.............................. CYCLE   83 ......................................
................................................................................
   1    -50.7400031 -0.507400E+02  0.225E-03    8.11       0.0  T
   2    -50.7400031 -0.158423E-08  0.170E-03    8.11      11.5  T
   3    -50.7400031 -0.132196E-08  0.256E-04    8.11      76.7  T
   4    -50.7400031 -0.212729E-09  0.840E-05    8.11     233.5  T
speedup  1.08
cpu  time for SCC    0.00 s
wall time for SCC    0.00 s
speedup  0.98
cpu  time for grad    0.01 s
wall time for grad    0.01 s
 E :    -50.45286212  G :  0.000157    pred/act E change:  0.000D+00 -0.131D-06
Maxdispl :   0.0037   ||displ|| :   0.0062   Lambda : -0.209D-06
Largest |displ|/coords:  0.0037 (   2)  0.0030 (   1)  0.0021 (   7)
................................................................................
.............................. CYCLE   84 ......................................
................................................................................
   1    -50.7399909 -0.507400E+02  0.362E-03    8.11       0.0  T
   2    -50.7399909 -0.506594E-08  0.272E-03    8.11       7.2  T
   3    -50.7399909 -0.366333E-08  0.472E-04    8.11      41.6  T
   4    -50.7399909 -0.718629E-09  0.142E-04    8.11     137.7  T
speedup  1.05
cpu  time for SCC    0.00 s
wall time for SCC    0.00 s
speedup  1.06
cpu  time for grad    0.01 s
wall time for grad    0.01 s
 E :    -50.45286224  G :  0.000090    pred/act E change: -0.857D-07 -0.121D-06
Maxdispl :   0.0017   ||displ|| :   0.0035   Lambda : -0.643D-07
Largest |displ|/coords:  0.0017 (   1)  0.0016 (   7)  0.0016 (   2)
................................................................................
.............................. CYCLE   85 ......................................
................................................................................
   1    -50.7399835 -0.507400E+02  0.199E-03    8.11       0.0  T
   2    -50.7399835 -0.111201E-08  0.150E-03    8.11      13.1  T
   3    -50.7399835 -0.911285E-09  0.221E-04    8.11      88.7  T
   4    -50.7399835 -0.163027E-09  0.767E-05    8.11     255.7  T
speedup  1.08
cpu  time for SCC    0.00 s
wall time for SCC    0.00 s
speedup  1.07
cpu  time for grad    0.01 s
wall time for grad    0.01 s
 E :    -50.45286229  G :  0.000102    pred/act E change: -0.104D-06 -0.497D-07
Maxdispl :   0.0037   ||displ|| :   0.0062   Lambda : -0.904D-07
Largest |displ|/coords:  0.0037 (   1)  0.0031 (   2)  0.0019 (  14)

   *** GEOMETRY OPTIMIZATION CONVERGED AFTER 85 ITERATIONS ***

------------------------------------------------------------------------
 total energy gain (kcal):     -0.0002
------------------------------------------------------------------------
================
 final structure:
================
$coord
        3.41412375326457        1.77219957793075        0.34442626370425      S 
        5.71426803964830        1.83171570677734        1.72880347569839      O 
        1.13373790349148        1.97398199845150        1.82441582450097      O 
        3.28266092079837       -0.72647094959064       -1.21737656737347      O 
        3.36222240985397        3.77837714001092       -1.74121900138332      O 
        1.62906719888664        3.68357913983825       -2.55709084877610      H 
        3.93457915261003       -2.08333757670741        0.02120217348344      H 
       -1.14305452058034       -1.66158320264903       -3.82879119251109      O 
        0.58229404425996       -1.83475616415346       -3.25187532386104      H 
       -2.17852699990010       -2.29141961889532       -2.43463467529043      H 
       -0.93950112891688        3.26007090147217       -3.90250851188852      O 
       -1.18095768216106        1.38011650322922       -3.90426362966301      H 
       -0.72189489657483        3.73809737993547       -5.63875951251335      H 
        0.12197830651410       -2.53118466319116        4.00033435135969      O 
       -1.20850217545404       -3.10402450957262        2.87360881844592      H 
        0.34413844168833       -0.75429848477521        3.58262762234472      H 
       -3.76962980801741       -2.87297339763771        0.43084526258959      O 
       -5.37108463921563       -3.71296569594258        0.50895955789410      H 
       -4.09729976132723       -1.02319806436861        0.69165784100112      H 
        4.68086963004262       -3.50275117155087        2.34141930232396      O 
        5.73432068980533       -2.25205106579269        3.14296275515229      H 
        3.02167029221775       -3.47263639774422        3.22815800927707      H 
       -4.21697435214820        2.09026434597781        0.90557915940727      N 
       -4.47121241418507        2.99732583866676       -0.76097715039187      H 
       -2.36978562092052        2.35016419835554        1.38667809603409      H 
       -5.28750680256248        2.96775823193313        2.22581790045561      H 
$end
 
 Bond Distances (Angstroems)
 ---------------------------
S1-O2=1.4210         S1-O3=1.4426         S1-O4=1.5608         S1-O5=1.5316         O2-S1=1.4210         O3-S1=1.4426         
O4-S1=1.5608         O4-H7=1.0316         O5-S1=1.5316         O5-H6=1.0149         H6-O5=1.0149         H7-O4=1.0316         
O8-H9=0.9671         O8-H10=0.9776        H9-O8=0.9671         H10-O8=0.9776        O11-H12=1.0030       O11-H13=0.9599       
H12-O11=1.0030       H13-O11=0.9599       O14-H15=0.9711       O14-H16=0.9730       H15-O14=0.9711       H16-O14=0.9730       
O17-H18=0.9578       O17-H19=1.0036       H18-O17=0.9578       H19-O17=1.0036       O20-H21=0.9637       O20-H22=0.9957       
H21-O20=0.9637       H22-O20=0.9957       N23-H24=1.0130       N23-H25=1.0194       N23-H26=1.0122       H24-N23=1.0130       
H25-N23=1.0194       H26-N23=1.0122       
 N  H  Rav=1.0149 sigma=0.0032  Rmin=1.0122  Rmax=1.0194     3
 O  H  Rav=0.9849 sigma=0.0231  Rmin=0.9578  Rmax=1.0316    12
 S  O  Rav=1.4890 sigma=0.0587  Rmin=1.4210  Rmax=1.5608     4
 
 selected bond angles (degree)
 --------------------
O3-S1-O2=115.79                O4-S1-O2=109.26                O4-S1-O3=108.23                O5-S1-O2=111.81                
O5-S1-O3=108.96                O5-S1-O4=101.82                H7-O4-S1=103.79                H6-O5-S1=106.77                
H10-O8-H9=104.99               
 
 selected dihedral angles (degree)
 ---------------------------------
H7-O4-S1-O2= 42.38            H7-O4-S1-O3=275.49            H7-O4-S1-O5=160.75            H6-O5-S1-O2=183.52            
H6-O5-S1-O3=312.78            H6-O5-S1-O4= 66.98            
 
 CMA Distance (Angstroems)
 ---------------------------
R(CMA):  2.6305

========================================================================
 FINAL SINGLEPOINT CALCULATION ON OPTIMIZED GEOMETRY
========================================================================

 Ncao       : 65
 Nao        : 64
 Nshell     : 38
 Nel        : 80
 T(el)      :   300.0
 intcut     :    25.0
 scfconv/Eh :  0.100E-05
   qconv/e  :  0.100E-03
 intneglect :  0.100E-07
 broydamp   :      0.250
 iter      E             dE          RMSdq      gap      omega  full diag
   1    -50.7399835 -0.507400E+02  0.299E-05    8.11       0.0  T
   2    -50.7399835 -0.866862E-12  0.199E-05    8.11     985.2  T
   3    -50.7399835 -0.369482E-12  0.461E-06    8.11    4249.6  T
speedup  0.74
cpu  time for SCC    0.00 s
wall time for SCC    0.00 s

   *** convergence criteria satisfied after 3 iterations ***

          eigenvalues
 #    :          28         29         30         31         32         33         34         35
 occ. :        2.000      2.000      2.000      2.000      2.000      2.000      2.000      2.000
 eps  :       -13.743    -13.533    -13.279    -12.912    -12.744    -12.650    -12.538    -12.470
 #    :          36         37         38         39         40         41         42         43
 occ. :        2.000      2.000      2.000      2.000      2.000      0.000      0.000      0.000
 eps  :       -12.260    -12.249    -12.155    -11.870    -11.188     -3.076     -0.880     -0.354
 #    :          44         45         46         47         48         49         50         51
 occ. :        0.000      0.000      0.000      0.000      0.000      0.000      0.000      0.000
 eps  :        -0.009      0.686      1.461      1.674      2.429      3.585      4.638      5.151


   #   Z            q   n(s)   n(p)   n(d)      C6AA      α(0)
   1  16 S      1.714  1.581  1.767  0.938    88.442    15.828
   2   8 O     -0.673  1.756  4.917  0.000    27.988     7.093
   3   8 O     -0.724  1.761  4.962  0.000    29.360     7.265
   4   8 O     -0.652  1.765  4.887  0.000    26.436     6.941
   5   8 O     -0.602  1.753  4.849  0.000    25.200     6.777
   6   1 H      0.393  0.607  0.000  0.000     0.494     1.101
   7   1 H      0.390  0.610  0.000  0.000     0.498     1.105
   8   8 O     -0.620  1.753  4.867  0.000    25.677     6.839
   9   1 H      0.311  0.689  0.000  0.000     0.689     1.304
  10   1 H      0.329  0.671  0.000  0.000     0.639     1.256
  11   8 O     -0.618  1.760  4.858  0.000    25.631     6.833
  12   1 H      0.348  0.652  0.000  0.000     0.593     1.210
  13   1 H      0.297  0.703  0.000  0.000     0.730     1.342
  14   8 O     -0.626  1.754  4.872  0.000    25.813     6.857
  15   1 H      0.321  0.679  0.000  0.000     0.662     1.278
  16   1 H      0.312  0.688  0.000  0.000     0.685     1.300
  17   8 O     -0.628  1.750  4.878  0.000    25.868     6.864
  18   1 H      0.281  0.719  0.000  0.000     0.780     1.388
  19   1 H      0.325  0.675  0.000  0.000     0.649     1.265
  20   8 O     -0.600  1.753  4.847  0.000    25.177     6.773
  21   1 H      0.312  0.688  0.000  0.000     0.687     1.302
  22   1 H      0.347  0.653  0.000  0.000     0.596     1.213
  23   7 N     -0.458  1.371  4.086  0.000    32.039     8.406
  24   1 H      0.168  0.832  0.000  0.000     1.287     1.777
  25   1 H      0.199  0.801  0.000  0.000     1.113     1.652
  26   1 H      0.154  0.846  0.000  0.000     1.377     1.838

 Mol. C6AA /au·bohr⁶  :       5456.111251
 Mol. C8AA /au·bohr⁸  :     117780.524841
 Mol. α(0) /au        :        106.807290

 
 Wiberg/Mayer (AO) data. WBOs > 0.1 written file <wbo>
 largest (>0.05) Wiberg bond orders for each atom
           total WBO             WBO to atom ...
     1  S   4.821    O    2 1.465    O    3 1.337    O    5 1.027    O    4 0.953
     2  O   1.781    S    1 1.465    O    3 0.122    O    4 0.092    O    5 0.077
     3  O   1.733    S    1 1.337    O    2 0.122    O    5 0.090    O    4 0.089
     4  O   1.941    S    1 0.953    H    7 0.655    O    2 0.092    O    3 0.089    O   20 0.058    O    5 0.056
     5  O   1.993    S    1 1.027    H    6 0.687    O    3 0.090    O    2 0.077    O    4 0.056
     6  H   0.846    O    5 0.687    O   11 0.142
     7  H   0.848    O    4 0.655    O   20 0.174
     8  O   1.904    H    9 0.876    H   10 0.837    H   12 0.103
     9  H   0.903    O    8 0.876
    10  H   0.892    O    8 0.837    O   17 0.051
    11  O   1.928    H   13 0.909    H   12 0.774    H    6 0.142
    12  H   0.879    O   11 0.774    O    8 0.103
    13  H   0.912    O   11 0.909
    14  O   1.883    H   15 0.861    H   16 0.858    H   22 0.084
    15  H   0.897    O   14 0.861
    16  H   0.902    O   14 0.858
    17  O   1.871    H   18 0.914    H   19 0.782    H   10 0.051
    18  H   0.921    O   17 0.914
    19  H   0.894    O   17 0.782    N   23 0.109
    20  O   1.970    H   21 0.894    H   22 0.794    H    7 0.174    O    4 0.058
    21  H   0.903    O   20 0.894
    22  H   0.880    O   20 0.794    O   14 0.084
    23  N   3.051    H   26 0.972    H   24 0.966    H   25 0.931    H   19 0.109
    24  H   0.972    N   23 0.966
    25  H   0.961    N   23 0.931
    26  H   0.976    N   23 0.972
 MOs/occ written to file <molden.input>
 
molecular dipole:
                 x           y           z       tot (Debye)
 q only:       -1.583      -0.065      -0.701
   full:       -1.784       0.446      -0.818       5.117
molecular quadrupole (traceless):
                xx          xy          yy          xz          yz          zz
 q only:        0.104      -3.954      -1.337      -3.061      -3.997       1.233
  q+dip:        1.576      -3.528      -2.263      -4.506      -3.537       0.687
   full:        1.464      -3.385      -2.002      -4.321      -3.833       0.538

SCC energy    :     -50.7399835
rep           :       0.2867519
ES            :       0.2317968
AES           :      -0.0546715
AXC           :      -0.0069249
disp          :      -0.0194686
XB            :       0.0000000
fix           :       0.0000000
total E       :     -50.4528623
atomizationE  :       4.9831665     3126.98
(atE without considering molecular charge,
 total energy contains solvation terms)
H-L gap (eV)  :          8.1121
optimized geometry written to: xtbopt.xyz


------------------------------------------------------------------------
 * finished run on 2019/09/16 at 11:48:57.699     
------------------------------------------------------------------------
 total:
 * wall-time:     0 d,  0 h,  0 min,  1.991 sec
 *  cpu-time:     0 d,  0 h,  0 min,  1.969 sec
 * ratio c/w:     0.989 speedup
 SCF:
 * wall-time:     0 d,  0 h,  0 min,  0.153 sec
 *  cpu-time:     0 d,  0 h,  0 min,  0.150 sec
 * ratio c/w:     0.978 speedup
 ANC optimizer:
 * wall-time:     0 d,  0 h,  0 min,  1.811 sec
 *  cpu-time:     0 d,  0 h,  0 min,  1.795 sec
 * ratio c/w:     0.991 speedup

