      -----------------------------------------------------------      
     |                   =====================                   |     
     |                           x T B                           |     
     |                   =====================                   |     
     |                         S. Grimme                         |     
     |          Mulliken Center for Theoretical Chemistry        |     
     |                    University of Bonn                     |     
     |                 Version 6.0.1 (SAW181210)                 |     
      -----------------------------------------------------------      

   This program is distributed in the hope that it will be useful,
   but WITHOUT ANY WARRANTY; without even the implied warranty of
   MERCHANTABILITY or FITNESS FOR A PARTICULAR PURPOSE.
   
   FOR NON-COMMERCIAL, ACADEMIA USE ONLY.
   
   Cite this work as:
   S. Grimme, C. Bannwarth, P. Shushkov, J. Comput. Theory Chem., 2017,
   13, 1989-2009.
   C. Bannwarth, S. Ehlert and S. Grimme., ChemRxiv, 2018, preprint.
   http://doi.org/10.26434/chemrxiv.7246238.v1
   
   for sTDA-xTB:
   S. Grimme and C. Bannwarth, J. Chem. Phys., 2016, 145, 054103.
   
   in the mass-spec context:
   V. Asgeirsson, C. Bauer and S. Grimme, Chem. Sci., 2017, 8, 4879.
   
   if GBSA is used:
   P. Shushkov, F. März and S. Grimme, unpublished.
   
   for ANC optimizer:
   S. Grimme, unpublished.
   Rational Function algorithm used in ANCopt:
   F. Eckert, P. Pulay, H.-J. Werner, J. Comput. Chem., 1997, 18, 1473.
   
   with help from (in alphabetical order)
   C. Bannwarth, F. Bohle, G. Brandenburg, E. Caldeweyher, M. Checinski,
   S. Dohm, S. Ehlert, S. Ehrlich, F. März, H. Neugebauer, J. Pisarek,
   P. Pracht, P. Shushkov, and S. Spicher.
   
 * started run on 2019/09/16 at 12:11:41.329     
========================================================================
 # omp threads = 1
========================================================================
number of atoms            : 26
number of electrons        : 80
charge                     : 0
spin                       : .0
first test random number   : .9533

########################################################################
# WARNING! Please study the warnings concerning your input carefully
#  - XTBPATH is not set, using XTBHOME instead
#  - the use of '-opt' is discouraged, please use '--opt' next time
#  - the use of '-chrg' is discouraged, please use '--chrg' next time
#  - the use of '-uhf' is discouraged, please use '--uhf' next time
########################################################################

           ------------------------------------------------- 
          |                 G F N 2 - x T B                 |
          | Geometry, Frequencies, Noncovalent interactions |
          |            JCTC 2018 parametrisation            |
           ------------------------------------------------- 
      method parameters     
 k(s)        :  1.8500
 k(p)        :  2.2300
 k(d)        :  2.2300
 k(f)        :  2.0000
 kEN (H0ij)  : -2.0000
 D4 a1       :  0.5200
 D4 a2       :  5.0000
 D4 s6       :  1.0000
 D4 s8       :  2.7000
 D4 s9       :  5.0000
 alphaj      :  2.0000


            Z     q(EN)     CN     RAES       Cart. coordinates
     1  S   6.0    0.61    4.52    4.59     1.76431     0.04202     1.97911
     2  O   6.0   -0.33    1.21    1.80     1.73481    -0.89411    -0.67625
     3  O   6.0   -0.30    1.18    1.80     2.81890    -1.95114     3.66531
     4  O   6.0   -0.27    2.11    1.84    -0.82562     0.65220     2.77437
     5  O   6.0   -0.25    2.10    1.84     3.34318     2.32103     2.13972
     6  H   1.0    0.16    1.27    1.49     2.33965     3.71266     2.72912
     7  H   1.0    0.16    1.28    1.49    -1.85772    -0.83606     2.66975
     8  O   6.0   -0.29    2.05    1.83    -2.80302    -3.84486     1.87873
     9  H   1.0    0.15    0.98    1.43    -3.09094    -4.30340     0.14050
    10  H   1.0    0.16    1.03    1.43    -1.80574    -5.19949     2.57516
    11  O   6.0   -0.29    2.01    1.83    -2.16804     5.03998    -1.76179
    12  H   1.0    0.14    0.97    1.43    -3.83245     4.96951    -2.49622
    13  H   1.0    0.15    1.04    1.43    -1.07633     4.21588    -2.96332
    14  O   6.0   -0.28    1.94    1.82    -1.37301    -3.86787    -3.60656
    15  H   1.0    0.14    0.97    1.43    -0.23560    -5.09368    -4.32649
    16  H   1.0    0.16    1.02    1.43    -0.32852    -2.78700    -2.57924
    17  O   6.0   -0.29    2.00    1.83     0.80134    -6.64435     4.12300
    18  H   1.0    0.17    1.03    1.43     1.77158    -5.10648     4.03251
    19  H   1.0    0.15    0.97    1.43     1.73277    -7.73602     5.24340
    20  O   6.0   -0.28    2.01    1.83     0.31040     6.37351     2.44901
    21  H   1.0    0.14    0.97    1.43     0.08278     8.13613     2.84394
    22  H   1.0    0.16    1.03    1.43    -0.76260     6.05961     1.01208
    23  N   5.0   -0.22    3.00    1.93     0.63236     2.14954    -5.24131
    24  H   1.0    0.12    1.01    1.43     1.51288     1.05291    -3.92482
    25  H   1.0    0.10    0.99    1.43     1.96645     2.53781    -6.57567
    26  H   1.0    0.10    0.99    1.43    -0.65184     1.00167    -6.10404

  Z AO/shell   Hii/eV     exponent
  1     Wed Apr 25 08:07:45 CEST 2018   EN: 2.200 GM2: 0.406  GM3: 0.0800  RAES: 1.40
     1s    -10.707211    1.230000
  7     Wed Apr 25 08:07:45 CEST 2018   EN: 3.040 GM2: 0.461  GM3:-0.0640  RAES: 1.90
     2s    -16.686243    2.339881
     2p    -12.523956    2.014332
  8     Wed Apr 25 08:07:45 CEST 2018   EN: 3.440 GM2: 0.452  GM3:-0.0517  RAES: 1.80
     2s    -20.229985    2.439742
     2p    -15.503117    2.137023
 16     Tue Apr 24 11:44:34 CEST 2018   EN: 2.580 GM2: 0.340  GM3:-0.0502  RAES: 3.10
     3s    -20.029654    1.981333
     3p    -11.377694    2.025643
     3d     -0.420282    1.702555
 no old-style atom pair restraining (fixing) potential

molecular fragmentation (1/2 indicates fragments):
11111112222222222222222222
# atoms in fragment 1/2:     7    19
 fragment masses (1/2) :       98.07      107.11
CMA distance (Bohr)    :   3.418
constraining FC (au)   :  0.0500
           ------------------------------------------------- 
          |        Self-Consistent Charge Iterations        |
           ------------------------------------------------- 

 Ncao       : 65
 Nao        : 64
 Nshell     : 38
 Nel        : 80
 T(el)      :   300.0
 intcut     :    25.0
 scfconv/Eh :  0.100E-05
   qconv/e  :  0.100E-03
 intneglect :  0.100E-07
 broydamp   :      0.250
 iter      E             dE          RMSdq      gap      omega  full diag
   1    -50.6286968 -0.506287E+02  0.704E+00   10.25       0.0  T
   2    -50.6845362 -0.558394E-01  0.506E+00    9.48       1.0  T
   3    -50.7239612 -0.394251E-01  0.142E+00    8.12       1.0  T
   4    -50.7302006 -0.623936E-02  0.586E-01    8.37       1.0  T
   5    -50.7308463 -0.645729E-03  0.361E-01    8.28       1.0  T
   6    -50.7315007 -0.654415E-03  0.155E-01    8.26       1.0  T
   7    -50.7316532 -0.152501E-03  0.578E-02    8.25       1.0  T
   8    -50.7316698 -0.165762E-04  0.384E-02    8.26       1.0  T
   9    -50.7316799 -0.100908E-04  0.121E-02    8.27       1.6  T
  10    -50.7316809 -0.993209E-06  0.260E-03    8.27       7.5  T
  11    -50.7316809 -0.159157E-07  0.131E-03    8.27      15.0  T
  12    -50.7316809 -0.796658E-08  0.432E-04    8.27      45.4  T
  13    -50.7316809 -0.924253E-09  0.148E-04    8.27     132.3  T
speedup  1.00
cpu  time for SCC    0.01 s
wall time for SCC    0.01 s

   *** convergence criteria satisfied after 13 iterations ***

          eigenvalues
 #    :          28         29         30         31         32         33         34         35
 occ. :        2.000      2.000      2.000      2.000      2.000      2.000      2.000      2.000
 eps  :       -13.433    -13.278    -12.763    -12.365    -12.297    -12.212    -12.052    -11.944
 #    :          36         37         38         39         40         41         42         43
 occ. :        2.000      2.000      2.000      2.000      2.000      0.000      0.000      0.000
 eps  :       -11.847    -11.650    -11.603    -11.570    -10.806     -2.539     -1.193     -0.237
 #    :          44         45         46         47         48         49         50         51
 occ. :        0.000      0.000      0.000      0.000      0.000      0.000      0.000      0.000
 eps  :         0.636      0.984      1.595      1.924      3.139      3.598      4.231      5.415


   #   Z            q   n(s)   n(p)   n(d)      C6AA      α(0)
   1  16 S      1.718  1.574  1.771  0.937    88.366    15.821
   2   8 O     -0.731  1.768  4.963  0.000    29.572     7.291
   3   8 O     -0.723  1.773  4.950  0.000    29.329     7.261
   4   8 O     -0.570  1.715  4.855  0.000    24.457     6.676
   5   8 O     -0.547  1.716  4.831  0.000    23.921     6.603
   6   1 H      0.414  0.586  0.000  0.000     0.453     1.053
   7   1 H      0.419  0.581  0.000  0.000     0.445     1.044
   8   8 O     -0.631  1.745  4.885  0.000    25.931     6.873
   9   1 H      0.317  0.683  0.000  0.000     0.672     1.288
  10   1 H      0.336  0.664  0.000  0.000     0.622     1.239
  11   8 O     -0.613  1.736  4.877  0.000    25.497     6.815
  12   1 H      0.285  0.715  0.000  0.000     0.766     1.375
  13   1 H      0.320  0.680  0.000  0.000     0.662     1.278
  14   8 O     -0.611  1.742  4.869  0.000    25.452     6.809
  15   1 H      0.277  0.723  0.000  0.000     0.795     1.400
  16   1 H      0.319  0.681  0.000  0.000     0.667     1.283
  17   8 O     -0.613  1.737  4.876  0.000    25.506     6.816
  18   1 H      0.323  0.677  0.000  0.000     0.656     1.272
  19   1 H      0.284  0.716  0.000  0.000     0.772     1.380
  20   8 O     -0.625  1.742  4.882  0.000    25.786     6.854
  21   1 H      0.292  0.708  0.000  0.000     0.745     1.356
  22   1 H      0.337  0.663  0.000  0.000     0.620     1.236
  23   7 N     -0.461  1.396  4.065  0.000    32.136     8.419
  24   1 H      0.182  0.818  0.000  0.000     1.201     1.717
  25   1 H      0.145  0.855  0.000  0.000     1.437     1.878
  26   1 H      0.157  0.843  0.000  0.000     1.355     1.823

 Mol. C6AA /au·bohr⁶  :       5457.871739
 Mol. C8AA /au·bohr⁸  :     117682.003027
 Mol. α(0) /au        :        106.861322

 
 Wiberg/Mayer (AO) data. WBOs > 0.1 written file <wbo>
 largest (>0.05) Wiberg bond orders for each atom
           total WBO             WBO to atom ...
     1  S   4.803    O    3 1.336    O    2 1.313    O    5 1.067    O    4 1.044
     2  O   1.690    S    1 1.313    O    3 0.131    O    4 0.089    O    5 0.078
     3  O   1.697    S    1 1.336    O    2 0.131    O    4 0.090    O    5 0.078
     4  O   2.034    S    1 1.044    H    7 0.730    O    3 0.090    O    2 0.089
     5  O   2.059    S    1 1.067    H    6 0.755    O    3 0.078    O    2 0.078
     6  H   0.828    O    5 0.755
     7  H   0.825    O    4 0.730    O    8 0.072
     8  O   1.863    H    9 0.884    H   10 0.850    H    7 0.072
     9  H   0.900    O    8 0.884
    10  H   0.887    O    8 0.850
    11  O   1.840    H   12 0.910    H   13 0.844
    12  H   0.918    O   11 0.910
    13  H   0.897    O   11 0.844
    14  O   1.822    H   15 0.922    H   16 0.859
    15  H   0.923    O   14 0.922
    16  H   0.898    O   14 0.859
    17  O   1.829    H   19 0.909    H   18 0.854
    18  H   0.896    O   17 0.854
    19  H   0.919    O   17 0.909
    20  O   1.838    H   21 0.906    H   22 0.840
    21  H   0.914    O   20 0.906
    22  H   0.886    O   20 0.840
    23  N   2.979    H   25 0.974    H   26 0.972    H   24 0.945
    24  H   0.967    N   23 0.945
    25  H   0.979    N   23 0.974
    26  H   0.975    N   23 0.972
 MOs/occ written to file <molden.input>
 
molecular dipole:
                 x           y           z       tot (Debye)
 q only:       -0.389       1.136      -0.243
   full:       -0.121       1.138      -0.516       3.192
molecular quadrupole (traceless):
                xx          xy          yy          xz          yz          zz
 q only:       -7.355      -3.703       7.317      -1.052       1.189       0.038
  q+dip:      -10.373      -7.059       7.599      -1.202       2.189       2.774
   full:      -10.043      -6.910       7.816      -0.896       2.519       2.227

SCC energy    :     -50.7316809
rep           :       0.3156955
ES            :       0.2435568
AES           :      -0.0502898
AXC           :      -0.0070296
disp          :      -0.0172005
XB            :       0.0000000
fix           :       0.0000000
total E       :     -50.4157318
atomizationE  :       4.9460360     3103.68
(atE without considering molecular charge,
 total energy contains solvation terms)
H-L gap (eV)  :          8.2668
           ------------------------------------------------- 
          |                 ===============                 |
          |                   A N C O P T                   |
          |                 ===============                 |
          |          Approximate Normal Coordinate          |
          |           Rational Function Optimizer           |
           ------------------------------------------------- 
dumping coords to <xtbopt.coord> and <xtbopt.log>
 optlevel               2
 Maxcycle             520
 Maxmicro              25
 Econv         1.000000000000000E-007
 Gconv         2.000000000000000E-004
 Maxdispl       1.00000000000000     
 Hlow          5.000000000000000E-003
 S6             20.0000000000000     
 Nvar               72

generating ANC from model Hessian ...
 Shifting diagonal of input Hessian by   5.213403733625208E-003
 Lowest  eigenvalues of input Hessian
    0.005000    0.005186   -0.000000   -0.000000   -0.000000    0.000000
    0.000000    0.000000    0.005252    0.005347    0.005410    0.005572
    0.005780    0.005943    0.006052    0.006090    0.006589    0.007035
 Highest eigenvalues
    1.423142    1.451977    1.555153    3.213869    3.413142    3.463294
 
cpu  time for ANC gen    0.01 s
wall time for ANC gen    0.01 s
................................................................................
.............................. CYCLE    1 ......................................
................................................................................
   1    -50.7316809 -0.507317E+02  0.661E-05    8.27       0.0  T
   2    -50.7316809 -0.986233E-11  0.515E-05    8.27     380.8  T
   3    -50.7316809 -0.891021E-11  0.299E-05    8.27     655.0  T
speedup  1.03
cpu  time for SCC    0.00 s
wall time for SCC    0.00 s
speedup  1.00
cpu  time for grad    0.01 s
wall time for grad    0.01 s
 E :    -50.41573175  G :  0.175710    pred/act E change:  0.000D+00  0.369D-07
Maxdispl :   0.1709   ||displ|| :   0.3831   Lambda : -0.158D-01
Largest |displ|/coords:  0.1709 (  27)  0.1305 (   1)  0.1144 (  29)
................................................................................
.............................. CYCLE    2 ......................................
................................................................................
   1    -50.7314561 -0.507315E+02  0.451E-01    8.22       0.0  T
   2    -50.7316469 -0.190796E-03  0.348E-01    8.22       1.0  T
   3    -50.7317069 -0.600062E-04  0.119E-01    8.22       1.0  T
   4    -50.7317324 -0.255166E-04  0.230E-02    8.23       1.0  T
   5    -50.7317333 -0.953105E-06  0.509E-03    8.23       3.9  T
   6    -50.7317334 -0.263696E-07  0.269E-03    8.23       7.3  T
speedup  0.94
cpu  time for SCC    0.00 s
wall time for SCC    0.01 s
speedup  0.94
cpu  time for grad    0.01 s
wall time for grad    0.01 s
 E :    -50.42857017  G :  0.114810    pred/act E change:  0.000D+00 -0.128D-01
Maxdispl :   0.1775   ||displ|| :   0.3869   Lambda : -0.979D-02
Largest |displ|/coords:  0.1775 (   1)  0.1314 (  27)  0.1231 (  29)
................................................................................
.............................. CYCLE    3 ......................................
................................................................................
   1    -50.7335973 -0.507336E+02  0.312E-01    8.21       0.0  T
   2    -50.7337853 -0.188008E-03  0.245E-01    8.21       1.0  T
   3    -50.7338411 -0.558217E-04  0.119E-01    8.24       1.0  T
   4    -50.7338532 -0.120395E-04  0.239E-02    8.25       1.0  T
   5    -50.7338541 -0.946928E-06  0.463E-03    8.25       4.2  T
   6    -50.7338541 -0.260409E-07  0.253E-03    8.25       7.8  T
speedup  0.94
cpu  time for SCC    0.00 s
wall time for SCC    0.01 s
speedup  1.01
cpu  time for grad    0.01 s
wall time for grad    0.01 s
 E :    -50.43634152  G :  0.062245    pred/act E change: -0.906D-02 -0.777D-02
Maxdispl :   0.1381   ||displ|| :   0.3959   Lambda : -0.542D-02
Largest |displ|/coords:  0.1381 (  15)  0.1326 (   9)  0.1276 (   5)
................................................................................
.............................. CYCLE    4 ......................................
................................................................................
   1    -50.7382274 -0.507382E+02  0.273E-01    8.11       0.0  T
   2    -50.7383531 -0.125764E-03  0.214E-01    8.12       1.0  T
   3    -50.7383861 -0.329688E-04  0.949E-02    8.14       1.0  T
   4    -50.7383956 -0.952075E-05  0.202E-02    8.15       1.0  T
   5    -50.7383962 -0.572326E-06  0.309E-03    8.14       6.4  T
   6    -50.7383962 -0.909568E-08  0.183E-03    8.14      10.7  T
speedup  1.09
cpu  time for SCC    0.01 s
wall time for SCC    0.01 s
speedup  0.98
cpu  time for grad    0.01 s
wall time for grad    0.01 s
 E :    -50.44021829  G :  0.030396    pred/act E change: -0.563D-02 -0.388D-02
Maxdispl :   0.2896   ||displ|| :   0.6917   Lambda : -0.688D-02
Largest |displ|/coords:  0.2896 (   1)  0.2013 (  20)  0.1848 (  18)
................................................................................
.............................. CYCLE    5 ......................................
................................................................................
   1    -50.7276050 -0.507276E+02  0.682E-01    7.98       0.0  T
   2    -50.7280761 -0.471066E-03  0.517E-01    8.00       1.0  T
   3    -50.7282634 -0.187336E-03  0.148E-01    8.04       1.0  T
   4    -50.7283251 -0.616843E-04  0.444E-02    8.06       1.0  T
   5    -50.7283290 -0.392882E-05  0.930E-03    8.06       2.1  T
   6    -50.7283292 -0.110435E-06  0.586E-03    8.06       3.3  T
   7    -50.7283292 -0.748460E-07  0.186E-03    8.06      10.5  T
speedup  0.97
cpu  time for SCC    0.01 s
wall time for SCC    0.01 s
speedup  1.01
cpu  time for grad    0.01 s
wall time for grad    0.01 s
 E :    -50.43922552  G :  0.079507    pred/act E change: -0.314D-02  0.993D-03
Maxdispl :   0.1978   ||displ|| :   0.5397   Lambda : -0.175D-01
Largest |displ|/coords:  0.1978 (  20)  0.1840 (  18)  0.1787 (  10)
................................................................................
.............................. CYCLE    6 ......................................
................................................................................
   1    -50.7365303 -0.507365E+02  0.850E-01    7.99       0.0  T
   2    -50.7370317 -0.501398E-03  0.638E-01    7.99       1.0  T
   3    -50.7373173 -0.285686E-03  0.143E-01    7.99       1.0  T
   4    -50.7373820 -0.646720E-04  0.384E-02    7.98       1.0  T
   5    -50.7373862 -0.418805E-05  0.120E-02    7.98       1.6  T
   6    -50.7373863 -0.818147E-07  0.633E-03    7.98       3.1  T
   7    -50.7373864 -0.789423E-07  0.127E-03    7.98      15.5  T
   8    -50.7373864 -0.450824E-08  0.510E-04    7.98      38.4  T
speedup  1.14
cpu  time for SCC    0.01 s
wall time for SCC    0.01 s
speedup  1.02
cpu  time for grad    0.01 s
wall time for grad    0.01 s
 E :    -50.44051379  G :  0.054650    pred/act E change: -0.508D-02 -0.129D-02
Maxdispl :   0.1457   ||displ|| :   0.3937   Lambda : -0.666D-02
Largest |displ|/coords:  0.1457 (   8)  0.1264 (  36)  0.1177 (  19)
................................................................................
.............................. CYCLE    7 ......................................
................................................................................
   1    -50.7418426 -0.507418E+02  0.526E-01    8.03       0.0  T
   2    -50.7419464 -0.103846E-03  0.397E-01    8.03       1.0  T
   3    -50.7420202 -0.737542E-04  0.620E-02    8.03       1.0  T
   4    -50.7420341 -0.139768E-04  0.223E-02    8.04       1.0  T
   5    -50.7420349 -0.787208E-06  0.601E-03    8.04       3.3  T
   6    -50.7420349 -0.205324E-07  0.367E-03    8.04       5.3  T
   7    -50.7420350 -0.218122E-07  0.762E-04    8.03      25.8  T
speedup  0.97
cpu  time for SCC    0.01 s
wall time for SCC    0.01 s
speedup  1.00
cpu  time for grad    0.01 s
wall time for grad    0.01 s
 E :    -50.44166089  G :  0.045751    pred/act E change: -0.113D-01 -0.115D-02
Maxdispl :   0.1610   ||displ|| :   0.3908   Lambda : -0.531D-02
Largest |displ|/coords:  0.1610 (   9)  0.1355 (  16)  0.1215 (  21)
................................................................................
.............................. CYCLE    8 ......................................
................................................................................
   1    -50.7273085 -0.507273E+02  0.550E-01    8.02       0.0  T
   2    -50.7274774 -0.168942E-03  0.412E-01    8.02       1.0  T
   3    -50.7275768 -0.993693E-04  0.761E-02    8.02       1.0  T
   4    -50.7276004 -0.236113E-04  0.171E-02    8.03       1.1  T
   5    -50.7276012 -0.797664E-06  0.662E-03    8.03       3.0  T
   6    -50.7276012 -0.598342E-07  0.418E-03    8.03       4.7  T
   7    -50.7276013 -0.311623E-07  0.788E-04    8.03      24.9  T
speedup  0.97
cpu  time for SCC    0.01 s
wall time for SCC    0.01 s
speedup  1.01
cpu  time for grad    0.01 s
wall time for grad    0.01 s
 E :    -50.44245440  G :  0.057418    pred/act E change: -0.385D-02 -0.794D-03
Maxdispl :   0.1660   ||displ|| :   0.5038   Lambda : -0.117D-01
Largest |displ|/coords:  0.1660 (  19)  0.1569 (   9)  0.1523 (  29)
................................................................................
.............................. CYCLE    9 ......................................
................................................................................
   1    -50.7357602 -0.507358E+02  0.802E-01    7.98       0.0  T
   2    -50.7360807 -0.320545E-03  0.604E-01    7.99       1.0  T
   3    -50.7363018 -0.221023E-03  0.103E-01    8.01       1.0  T
   4    -50.7363459 -0.441839E-04  0.173E-02    8.00       1.1  T
   5    -50.7363464 -0.408789E-06  0.108E-02    8.00       1.8  T
   6    -50.7363464 -0.837397E-07  0.439E-03    8.00       4.5  T
   7    -50.7363465 -0.310479E-07  0.121E-03    8.00      16.2  T
speedup  1.11
cpu  time for SCC    0.01 s
wall time for SCC    0.01 s
speedup  1.00
cpu  time for grad    0.01 s
wall time for grad    0.01 s
 E :    -50.44058350  G :  0.062047    pred/act E change: -0.306D-02  0.187D-02
Maxdispl :   0.1496   ||displ|| :   0.4431   Lambda : -0.108D-01
Largest |displ|/coords:  0.1496 (   1)  0.1410 (   9)  0.1325 (  29)
................................................................................
.............................. CYCLE   10 ......................................
................................................................................
   1    -50.7378235 -0.507378E+02  0.712E-01    8.07       0.0  T
   2    -50.7380101 -0.186602E-03  0.539E-01    8.08       1.0  T
   3    -50.7381438 -0.133747E-03  0.746E-02    8.08       1.0  T
   4    -50.7381705 -0.266394E-04  0.232E-02    8.08       1.0  T
   5    -50.7381713 -0.826166E-06  0.764E-03    8.08       2.6  T
   6    -50.7381713 -0.416654E-07  0.432E-03    8.08       4.5  T
   7    -50.7381714 -0.282074E-07  0.999E-04    8.08      19.6  T
speedup  0.95
cpu  time for SCC    0.01 s
wall time for SCC    0.01 s
speedup  1.00
cpu  time for grad    0.01 s
wall time for grad    0.01 s
 E :    -50.44275318  G :  0.046744    pred/act E change: -0.734D-02 -0.217D-02
Maxdispl :   0.1391   ||displ|| :   0.2762   Lambda : -0.438D-02
Largest |displ|/coords:  0.1391 (  22)  0.0954 (  27)  0.0780 (   6)
................................................................................
.............................. CYCLE   11 ......................................
................................................................................
   1    -50.7346751 -0.507347E+02  0.378E-01    8.09       0.0  T
   2    -50.7347436 -0.685191E-04  0.285E-01    8.08       1.0  T
   3    -50.7347864 -0.427501E-04  0.490E-02    8.08       1.0  T
   4    -50.7347963 -0.992491E-05  0.121E-02    8.09       1.6  T
   5    -50.7347966 -0.331383E-06  0.426E-03    8.09       4.6  T
   6    -50.7347966 -0.128853E-07  0.244E-03    8.09       8.0  T
speedup  0.94
cpu  time for SCC    0.00 s
wall time for SCC    0.01 s
speedup  1.00
cpu  time for grad    0.01 s
wall time for grad    0.01 s
 E :    -50.44468435  G :  0.028608    pred/act E change: -0.645D-02 -0.193D-02
Maxdispl :   0.1839   ||displ|| :   0.3229   Lambda : -0.231D-02
Largest |displ|/coords:  0.1839 (   1)  0.0995 (   5)  0.0964 (   7)
................................................................................
.............................. CYCLE   12 ......................................
................................................................................
   1    -50.7291767 -0.507292E+02  0.311E-01    8.06       0.0  T
   2    -50.7292232 -0.464958E-04  0.235E-01    8.07       1.0  T
   3    -50.7292560 -0.328833E-04  0.383E-02    8.11       1.0  T
   4    -50.7292627 -0.662574E-05  0.125E-02    8.11       1.6  T
   5    -50.7292630 -0.302331E-06  0.419E-03    8.11       4.7  T
   6    -50.7292630 -0.146561E-07  0.238E-03    8.11       8.3  T
speedup  0.93
cpu  time for SCC    0.00 s
wall time for SCC    0.01 s
speedup  1.00
cpu  time for grad    0.01 s
wall time for grad    0.01 s
 E :    -50.44442862  G :  0.036396    pred/act E change: -0.236D-02  0.256D-03
Maxdispl :   0.1563   ||displ|| :   0.2772   Lambda : -0.340D-02
Largest |displ|/coords:  0.1563 (   1)  0.1168 (  14)  0.1009 (  13)
................................................................................
.............................. CYCLE   13 ......................................
................................................................................
   1    -50.7317946 -0.507318E+02  0.391E-01    8.04       0.0  T
   2    -50.7318501 -0.555006E-04  0.298E-01    8.03       1.0  T
   3    -50.7318984 -0.483203E-04  0.376E-02    8.01       1.0  T
   4    -50.7319054 -0.704042E-05  0.119E-02    8.01       1.6  T
   5    -50.7319057 -0.220064E-06  0.465E-03    8.02       4.2  T
   6    -50.7319057 -0.211628E-07  0.220E-03    8.02       8.9  T
speedup  1.13
cpu  time for SCC    0.01 s
wall time for SCC    0.01 s
speedup  1.00
cpu  time for grad    0.01 s
wall time for grad    0.01 s
 E :    -50.44453354  G :  0.042185    pred/act E change: -0.127D-02 -0.105D-03
Maxdispl :   0.2166   ||displ|| :   0.3910   Lambda : -0.549D-02
Largest |displ|/coords:  0.2166 (  13)  0.1566 (  19)  0.1339 (   8)
................................................................................
.............................. CYCLE   14 ......................................
................................................................................
   1    -50.7370781 -0.507371E+02  0.478E-01    8.13       0.0  T
   2    -50.7371934 -0.115313E-03  0.357E-01    8.14       1.0  T
   3    -50.7372647 -0.712721E-04  0.600E-02    8.15       1.0  T
   4    -50.7372801 -0.154720E-04  0.146E-02    8.15       1.3  T
   5    -50.7372803 -0.210532E-06  0.641E-03    8.15       3.1  T
   6    -50.7372804 -0.312343E-07  0.313E-03    8.15       6.3  T
   7    -50.7372804 -0.134495E-07  0.723E-04    8.15      27.1  T
speedup  0.97
cpu  time for SCC    0.01 s
wall time for SCC    0.01 s
speedup  1.00
cpu  time for grad    0.01 s
wall time for grad    0.01 s
 E :    -50.44439162  G :  0.050688    pred/act E change: -0.183D-02  0.142D-03
Maxdispl :   0.1850   ||displ|| :   0.3830   Lambda : -0.617D-02
Largest |displ|/coords:  0.1850 (   1)  0.1370 (  19)  0.1297 (  13)
................................................................................
.............................. CYCLE   15 ......................................
................................................................................
   1    -50.7363461 -0.507363E+02  0.436E-01    8.11       0.0  T
   2    -50.7364627 -0.116639E-03  0.325E-01    8.12       1.0  T
   3    -50.7365310 -0.682917E-04  0.604E-02    8.13       1.0  T
   4    -50.7365469 -0.159488E-04  0.135E-02    8.13       1.5  T
   5    -50.7365472 -0.214667E-06  0.595E-03    8.13       3.3  T
   6    -50.7365472 -0.213663E-07  0.302E-03    8.13       6.5  T
speedup  0.93
cpu  time for SCC    0.01 s
wall time for SCC    0.01 s
speedup  0.99
cpu  time for grad    0.01 s
wall time for grad    0.01 s
 E :    -50.44528018  G :  0.033941    pred/act E change: -0.316D-02 -0.889D-03
Maxdispl :   0.1195   ||displ|| :   0.2329   Lambda : -0.270D-02
Largest |displ|/coords:  0.1195 (  22)  0.1030 (   9)  0.0575 (  20)
................................................................................
.............................. CYCLE   16 ......................................
................................................................................
   1    -50.7239843 -0.507240E+02  0.369E-01    8.13       0.0  T
   2    -50.7240483 -0.640131E-04  0.277E-01    8.13       1.0  T
   3    -50.7240890 -0.407217E-04  0.448E-02    8.14       1.0  T
   4    -50.7240983 -0.931390E-05  0.784E-03    8.14       2.5  T
   5    -50.7240984 -0.580830E-07  0.420E-03    8.14       4.7  T
   6    -50.7240984 -0.194912E-07  0.171E-03    8.14      11.5  T
speedup  1.13
cpu  time for SCC    0.01 s
wall time for SCC    0.01 s
speedup  1.00
cpu  time for grad    0.01 s
wall time for grad    0.01 s
 E :    -50.44587704  G :  0.040117    pred/act E change: -0.354D-02 -0.597D-03
Maxdispl :   0.1394   ||displ|| :   0.3379   Lambda : -0.387D-02
Largest |displ|/coords:  0.1394 (  16)  0.1261 (  22)  0.1136 (  13)
................................................................................
.............................. CYCLE   17 ......................................
................................................................................
   1    -50.7351400 -0.507351E+02  0.449E-01    8.21       0.0  T
   2    -50.7352590 -0.118927E-03  0.336E-01    8.21       1.0  T
   3    -50.7353325 -0.735633E-04  0.620E-02    8.23       1.0  T
   4    -50.7353486 -0.161103E-04  0.136E-02    8.23       1.4  T
   5    -50.7353489 -0.291189E-06  0.637E-03    8.23       3.1  T
   6    -50.7353490 -0.259130E-07  0.315E-03    8.23       6.2  T
   7    -50.7353490 -0.155526E-07  0.767E-04    8.23      25.6  T
speedup  0.97
cpu  time for SCC    0.01 s
wall time for SCC    0.01 s
speedup  0.94
cpu  time for grad    0.01 s
wall time for grad    0.01 s
 E :    -50.44473461  G :  0.058808    pred/act E change: -0.142D-02  0.114D-02
Maxdispl :   0.1194   ||displ|| :   0.3604   Lambda : -0.857D-02
Largest |displ|/coords:  0.1194 (  19)  0.1162 (  16)  0.1135 (  22)
................................................................................
.............................. CYCLE   18 ......................................
................................................................................
   1    -50.7351987 -0.507352E+02  0.538E-01    8.19       0.0  T
   2    -50.7354069 -0.208197E-03  0.400E-01    8.19       1.0  T
   3    -50.7355337 -0.126821E-03  0.814E-02    8.17       1.0  T
   4    -50.7355591 -0.254254E-04  0.167E-02    8.17       1.2  T
   5    -50.7355596 -0.480072E-06  0.807E-03    8.17       2.4  T
   6    -50.7355596 -0.417495E-07  0.410E-03    8.17       4.8  T
   7    -50.7355597 -0.265624E-07  0.106E-03    8.17      18.4  T
speedup  0.97
cpu  time for SCC    0.01 s
wall time for SCC    0.01 s
speedup  1.01
cpu  time for grad    0.01 s
wall time for grad    0.01 s
 E :    -50.44466506  G :  0.053787    pred/act E change: -0.215D-02  0.695D-04
Maxdispl :   0.1109   ||displ|| :   0.3252   Lambda : -0.721D-02
Largest |displ|/coords:  0.1109 (  16)  0.0995 (  20)  0.0942 (  21)
................................................................................
.............................. CYCLE   19 ......................................
................................................................................
   1    -50.7280987 -0.507281E+02  0.478E-01    8.20       0.0  T
   2    -50.7282659 -0.167257E-03  0.355E-01    8.21       1.0  T
   3    -50.7283636 -0.976361E-04  0.737E-02    8.23       1.0  T
   4    -50.7283841 -0.205268E-04  0.148E-02    8.23       1.3  T
   5    -50.7283845 -0.376357E-06  0.688E-03    8.23       2.8  T
   6    -50.7283845 -0.616052E-07  0.366E-03    8.23       5.4  T
   7    -50.7283845 -0.210954E-07  0.110E-03    8.23      17.9  T
speedup  0.98
cpu  time for SCC    0.01 s
wall time for SCC    0.01 s
speedup  1.01
cpu  time for grad    0.01 s
wall time for grad    0.01 s
 E :    -50.44595967  G :  0.045050    pred/act E change: -0.484D-02 -0.129D-02
Maxdispl :   0.0780   ||displ|| :   0.1795   Lambda : -0.255D-02
Largest |displ|/coords:  0.0780 (   1)  0.0685 (  13)  0.0533 (  18)
................................................................................
.............................. CYCLE   20 ......................................
................................................................................
   1    -50.7364242 -0.507364E+02  0.205E-01    8.24       0.0  T
   2    -50.7364615 -0.372869E-04  0.151E-01    8.24       1.0  T
   3    -50.7364835 -0.220191E-04  0.342E-02    8.24       1.0  T
   4    -50.7364876 -0.405191E-05  0.560E-03    8.24       3.5  T
   5    -50.7364876 -0.528197E-07  0.343E-03    8.24       5.7  T
speedup  0.89
cpu  time for SCC    0.00 s
wall time for SCC    0.00 s
speedup  0.97
cpu  time for grad    0.01 s
wall time for grad    0.01 s
 E :    -50.44699157  G :  0.014551    pred/act E change: -0.399D-02 -0.103D-02
Maxdispl :   0.1025   ||displ|| :   0.2078   Lambda : -0.921D-03
Largest |displ|/coords:  0.1025 (   1)  0.0740 (   8)  0.0620 (  13)
................................................................................
.............................. CYCLE   21 ......................................
................................................................................
   1    -50.7309711 -0.507310E+02  0.193E-01    8.21       0.0  T
   2    -50.7309940 -0.228540E-04  0.144E-01    8.21       1.0  T
   3    -50.7310058 -0.118180E-04  0.282E-02    8.22       1.0  T
   4    -50.7310089 -0.311474E-05  0.785E-03    8.22       2.5  T
   5    -50.7310090 -0.139485E-06  0.263E-03    8.22       7.5  T
   6    -50.7310090 -0.398382E-08  0.157E-03    8.22      12.5  T
speedup  0.94
cpu  time for SCC    0.01 s
wall time for SCC    0.01 s
speedup  1.00
cpu  time for grad    0.01 s
wall time for grad    0.01 s
 E :    -50.44712147  G :  0.023142    pred/act E change: -0.131D-02 -0.130D-03
Maxdispl :   0.0491   ||displ|| :   0.1175   Lambda : -0.702D-03
Largest |displ|/coords:  0.0491 (   1)  0.0429 (   9)  0.0371 (   2)
................................................................................
.............................. CYCLE   22 ......................................
................................................................................
   1    -50.7319769 -0.507320E+02  0.962E-02    8.24       0.0  T
   2    -50.7319850 -0.803802E-05  0.715E-02    8.24       1.0  T
   3    -50.7319895 -0.455701E-05  0.160E-02    8.24       1.2  T
   4    -50.7319905 -0.100001E-05  0.407E-03    8.24       4.8  T
   5    -50.7319906 -0.252087E-07  0.152E-03    8.24      12.9  T
speedup  1.09
cpu  time for SCC    0.00 s
wall time for SCC    0.00 s
speedup  1.06
cpu  time for grad    0.01 s
wall time for grad    0.01 s
 E :    -50.44756458  G :  0.013785    pred/act E change: -0.480D-03 -0.443D-03
Maxdispl :   0.0840   ||displ|| :   0.1788   Lambda : -0.401D-03
Largest |displ|/coords:  0.0840 (   3)  0.0568 (   2)  0.0526 (   9)
................................................................................
.............................. CYCLE   23 ......................................
................................................................................
   1    -50.7319956 -0.507320E+02  0.109E-01    8.26       0.0  T
   2    -50.7319992 -0.359162E-05  0.825E-02    8.27       1.0  T
   3    -50.7320023 -0.311241E-05  0.103E-02    8.28       1.9  T
   4    -50.7320028 -0.458544E-06  0.429E-03    8.28       4.6  T
   5    -50.7320028 -0.231459E-07  0.127E-03    8.28      15.5  T
   6    -50.7320028 -0.159813E-08  0.790E-04    8.28      24.8  T
speedup  1.11
cpu  time for SCC    0.01 s
wall time for SCC    0.01 s
speedup  1.06
cpu  time for grad    0.01 s
wall time for grad    0.01 s
 E :    -50.44784952  G :  0.013679    pred/act E change: -0.356D-03 -0.285D-03
Maxdispl :   0.1972   ||displ|| :   0.3917   Lambda : -0.720D-03
Largest |displ|/coords:  0.1972 (   2)  0.1273 (   3)  0.1234 (   9)
................................................................................
.............................. CYCLE   24 ......................................
................................................................................
   1    -50.7314719 -0.507315E+02  0.209E-01    8.30       0.0  T
   2    -50.7314796 -0.768588E-05  0.158E-01    8.31       1.0  T
   3    -50.7314881 -0.850384E-05  0.159E-02    8.33       1.2  T
   4    -50.7314887 -0.679362E-06  0.607E-03    8.33       3.2  T
   5    -50.7314888 -0.389991E-07  0.242E-03    8.33       8.1  T
   6    -50.7314888 -0.822635E-08  0.146E-03    8.33      13.4  T
speedup  0.94
cpu  time for SCC    0.00 s
wall time for SCC    0.01 s
speedup  0.99
cpu  time for grad    0.01 s
wall time for grad    0.01 s
 E :    -50.44826267  G :  0.020140    pred/act E change: -0.207D-03 -0.413D-03
Maxdispl :   0.1623   ||displ|| :   0.3222   Lambda : -0.711D-03
Largest |displ|/coords:  0.1623 (   3)  0.1173 (   2)  0.1091 (   6)
................................................................................
.............................. CYCLE   25 ......................................
................................................................................
   1    -50.7329180 -0.507329E+02  0.177E-01    8.35       0.0  T
   2    -50.7329262 -0.819161E-05  0.134E-01    8.36       1.0  T
   3    -50.7329339 -0.772787E-05  0.160E-02    8.37       1.2  T
   4    -50.7329349 -0.950881E-06  0.663E-03    8.37       3.0  T
   5    -50.7329349 -0.495083E-07  0.221E-03    8.37       8.9  T
   6    -50.7329350 -0.573778E-08  0.131E-03    8.37      15.0  T
speedup  0.94
cpu  time for SCC    0.00 s
wall time for SCC    0.01 s
speedup  1.00
cpu  time for grad    0.01 s
wall time for grad    0.01 s
 E :    -50.44863159  G :  0.012899    pred/act E change: -0.415D-03 -0.369D-03
Maxdispl :   0.1721   ||displ|| :   0.3134   Lambda : -0.636D-03
Largest |displ|/coords:  0.1721 (   2)  0.1011 (   7)  0.0961 (   1)

generating ANC from model Hessian ...
 Shifting diagonal of input Hessian by   5.069488924806081E-003
 Lowest  eigenvalues of input Hessian
    0.005000   -0.000000   -0.000000   -0.000000    0.000000    0.000000
    0.000000    0.005114    0.005400    0.005481    0.005648    0.006050
    0.006609    0.007781    0.008236    0.008614    0.009011    0.009305
 Highest eigenvalues
    1.379602    1.391631    1.423588    2.851691    3.356042    3.646925
 
cpu  time for ANC gen    0.01 s
wall time for ANC gen    0.01 s
................................................................................
.............................. CYCLE   26 ......................................
................................................................................
   1    -50.7298274 -0.507298E+02  0.185E-01    8.37       0.0  T
   2    -50.7298489 -0.214997E-04  0.139E-01    8.38       1.0  T
   3    -50.7298637 -0.147711E-04  0.272E-02    8.40       1.0  T
   4    -50.7298666 -0.293693E-05  0.103E-02    8.40       1.9  T
   5    -50.7298668 -0.212045E-06  0.321E-03    8.39       6.1  T
   6    -50.7298668 -0.934035E-08  0.185E-03    8.39      10.6  T
   7    -50.7298668 -0.679574E-08  0.298E-04    8.39      65.8  T
   8    -50.7298668 -0.233847E-09  0.707E-05    8.39     277.4  T
speedup  1.01
cpu  time for SCC    0.01 s
wall time for SCC    0.01 s
speedup  0.98
cpu  time for grad    0.01 s
wall time for grad    0.02 s
 E :    -50.44856366  G :  0.023228    pred/act E change:  0.000D+00  0.679D-04
Maxdispl :   0.0777   ||displ|| :   0.1620   Lambda : -0.683D-03
Largest |displ|/coords:  0.0777 (   1)  0.0663 (   2)  0.0586 (   6)
................................................................................
.............................. CYCLE   27 ......................................
................................................................................
   1    -50.7316023 -0.507316E+02  0.122E-01    8.38       0.0  T
   2    -50.7316066 -0.426944E-05  0.926E-02    8.37       1.0  T
   3    -50.7316102 -0.368670E-05  0.112E-02    8.36       1.8  T
   4    -50.7316108 -0.558390E-06  0.286E-03    8.37       6.9  T
   5    -50.7316108 -0.704872E-08  0.148E-03    8.37      13.3  T
speedup  0.91
cpu  time for SCC    0.00 s
wall time for SCC    0.00 s
speedup  0.98
cpu  time for grad    0.01 s
wall time for grad    0.01 s
 E :    -50.44902833  G :  0.007834    pred/act E change:  0.000D+00 -0.465D-03
Maxdispl :   0.1379   ||displ|| :   0.2296   Lambda : -0.350D-03
Largest |displ|/coords:  0.1379 (   1)  0.1118 (   2)  0.0788 (   8)
................................................................................
.............................. CYCLE   28 ......................................
................................................................................
   1    -50.7326142 -0.507326E+02  0.148E-01    8.35       0.0  T
   2    -50.7326184 -0.419539E-05  0.112E-01    8.35       1.0  T
   3    -50.7326221 -0.366167E-05  0.118E-02    8.34       1.7  T
   4    -50.7326226 -0.519737E-06  0.366E-03    8.34       5.4  T
   5    -50.7326226 -0.149293E-07  0.155E-03    8.34      12.6  T
   6    -50.7326226 -0.305882E-08  0.764E-04    8.34      25.7  T
speedup  0.93
cpu  time for SCC    0.00 s
wall time for SCC    0.01 s
speedup  0.91
cpu  time for grad    0.01 s
wall time for grad    0.01 s
 E :    -50.44923748  G :  0.009052    pred/act E change: -0.351D-03 -0.209D-03
Maxdispl :   0.1346   ||displ|| :   0.1955   Lambda : -0.168D-03
Largest |displ|/coords:  0.1346 (   1)  0.1109 (   2)  0.0418 (  13)
................................................................................
.............................. CYCLE   29 ......................................
................................................................................
   1    -50.7329093 -0.507329E+02  0.105E-01    8.32       0.0  T
   2    -50.7329103 -0.104715E-05  0.794E-02    8.32       1.0  T
   3    -50.7329115 -0.120217E-05  0.635E-03    8.31       3.1  T
   4    -50.7329116 -0.559515E-07  0.169E-03    8.31      11.6  T
   5    -50.7329116 -0.312027E-08  0.753E-04    8.32      26.0  T
speedup  0.89
cpu  time for SCC    0.00 s
wall time for SCC    0.00 s
speedup  0.98
cpu  time for grad    0.01 s
wall time for grad    0.01 s
 E :    -50.44938209  G :  0.009698    pred/act E change: -0.184D-03 -0.145D-03
Maxdispl :   0.3577   ||displ|| :   0.5108   Lambda : -0.434D-03
Largest |displ|/coords:  0.3577 (   1)  0.3022 (   2)  0.1042 (  13)
................................................................................
.............................. CYCLE   30 ......................................
................................................................................
   1    -50.7327545 -0.507328E+02  0.249E-01    8.26       0.0  T
   2    -50.7327615 -0.697503E-05  0.187E-01    8.25       1.0  T
   3    -50.7327686 -0.713211E-05  0.176E-02    8.25       1.1  T
   4    -50.7327692 -0.549677E-06  0.449E-03    8.25       4.4  T
   5    -50.7327692 -0.185390E-07  0.214E-03    8.25       9.1  T
   6    -50.7327692 -0.742646E-08  0.943E-04    8.25      20.8  T
speedup  0.94
cpu  time for SCC    0.00 s
wall time for SCC    0.01 s
speedup  0.99
cpu  time for grad    0.01 s
wall time for grad    0.01 s
 E :    -50.44967372  G :  0.010090    pred/act E change: -0.873D-04 -0.292D-03
Maxdispl :   0.2484   ||displ|| :   0.3814   Lambda : -0.315D-03
Largest |displ|/coords:  0.2484 (   1)  0.2368 (   2)  0.0740 (   6)
................................................................................
.............................. CYCLE   31 ......................................
................................................................................
   1    -50.7340014 -0.507340E+02  0.153E-01    8.21       0.0  T
   2    -50.7340055 -0.402523E-05  0.114E-01    8.21       1.0  T
   3    -50.7340093 -0.381546E-05  0.128E-02    8.21       1.5  T
   4    -50.7340097 -0.389106E-06  0.380E-03    8.21       5.2  T
   5    -50.7340097 -0.181976E-07  0.149E-03    8.21      13.2  T
   6    -50.7340097 -0.356220E-08  0.830E-04    8.21      23.6  T
speedup  1.11
cpu  time for SCC    0.01 s
wall time for SCC    0.01 s
speedup  0.98
cpu  time for grad    0.01 s
wall time for grad    0.01 s
 E :    -50.44989735  G :  0.005877    pred/act E change: -0.274D-03 -0.224D-03
Maxdispl :   0.3170   ||displ|| :   0.4780   Lambda : -0.315D-03
Largest |displ|/coords:  0.3170 (   1)  0.3004 (   2)  0.0785 (  15)
................................................................................
.............................. CYCLE   32 ......................................
................................................................................
   1    -50.7343388 -0.507343E+02  0.189E-01    8.17       0.0  T
   2    -50.7343437 -0.490842E-05  0.142E-01    8.16       1.0  T
   3    -50.7343490 -0.530586E-05  0.143E-02    8.16       1.4  T
   4    -50.7343494 -0.375163E-06  0.403E-03    8.16       4.9  T
   5    -50.7343494 -0.173167E-07  0.168E-03    8.16      11.7  T
   6    -50.7343494 -0.407340E-08  0.855E-04    8.16      22.9  T
speedup  0.94
cpu  time for SCC    0.00 s
wall time for SCC    0.01 s
speedup  0.99
cpu  time for grad    0.01 s
wall time for grad    0.01 s
 E :    -50.45012644  G :  0.008275    pred/act E change: -0.180D-03 -0.229D-03
Maxdispl :   0.3180   ||displ|| :   0.4515   Lambda : -0.430D-03
Largest |displ|/coords:  0.3180 (   2)  0.2461 (   1)  0.0951 (  15)
................................................................................
.............................. CYCLE   33 ......................................
................................................................................
   1    -50.7381185 -0.507381E+02  0.148E-01    8.16       0.0  T
   2    -50.7381245 -0.593865E-05  0.111E-01    8.16       1.0  T
   3    -50.7381289 -0.439709E-05  0.141E-02    8.17       1.4  T
   4    -50.7381297 -0.789008E-06  0.498E-03    8.17       3.9  T
   5    -50.7381297 -0.342227E-07  0.150E-03    8.17      13.1  T
   6    -50.7381297 -0.209392E-08  0.848E-04    8.17      23.1  T
speedup  1.11
cpu  time for SCC    0.01 s
wall time for SCC    0.01 s
speedup  1.06
cpu  time for grad    0.01 s
wall time for grad    0.01 s
 E :    -50.45032111  G :  0.013169    pred/act E change: -0.193D-03 -0.195D-03
Maxdispl :   0.3946   ||displ|| :   0.5923   Lambda : -0.541D-03
Largest |displ|/coords:  0.3946 (   1)  0.3720 (   2)  0.0937 (  15)
................................................................................
.............................. CYCLE   34 ......................................
................................................................................
   1    -50.7315218 -0.507315E+02  0.269E-01    8.12       0.0  T
   2    -50.7315364 -0.145616E-04  0.203E-01    8.12       1.0  T
   3    -50.7315503 -0.138908E-04  0.217E-02    8.12       1.0  T
   4    -50.7315519 -0.160498E-05  0.701E-03    8.12       2.8  T
   5    -50.7315519 -0.486537E-07  0.313E-03    8.12       6.3  T
   6    -50.7315519 -0.139433E-07  0.147E-03    8.12      13.3  T
   7    -50.7315519 -0.509341E-08  0.352E-04    8.12      55.8  T
speedup  0.97
cpu  time for SCC    0.01 s
wall time for SCC    0.01 s
speedup  1.01
cpu  time for grad    0.01 s
wall time for grad    0.01 s
 E :    -50.45047220  G :  0.019116    pred/act E change: -0.259D-03 -0.151D-03
Maxdispl :   0.0766   ||displ|| :   0.1498   Lambda : -0.574D-03
Largest |displ|/coords:  0.0766 (   1)  0.0690 (   8)  0.0497 (  17)
................................................................................
.............................. CYCLE   35 ......................................
................................................................................
   1    -50.7336490 -0.507336E+02  0.120E-01    8.13       0.0  T
   2    -50.7336558 -0.686543E-05  0.900E-02    8.14       1.0  T
   3    -50.7336613 -0.547963E-05  0.151E-02    8.14       1.3  T
   4    -50.7336622 -0.841039E-06  0.367E-03    8.14       5.3  T
   5    -50.7336622 -0.159485E-07  0.178E-03    8.14      11.0  T
   6    -50.7336622 -0.408798E-08  0.672E-04    8.14      29.2  T
speedup  0.94
cpu  time for SCC    0.00 s
wall time for SCC    0.01 s
speedup  1.00
cpu  time for grad    0.01 s
wall time for grad    0.01 s
 E :    -50.45069296  G :  0.018109    pred/act E change: -0.365D-03 -0.221D-03
Maxdispl :   0.0582   ||displ|| :   0.1235   Lambda : -0.428D-03
Largest |displ|/coords:  0.0582 (  13)  0.0499 (   8)  0.0420 (   6)
................................................................................
.............................. CYCLE   36 ......................................
................................................................................
   1    -50.7377097 -0.507377E+02  0.769E-02    8.21       0.0  T
   2    -50.7377136 -0.383349E-05  0.566E-02    8.21       1.0  T
   3    -50.7377162 -0.266129E-05  0.120E-02    8.21       1.6  T
   4    -50.7377166 -0.384151E-06  0.270E-03    8.21       7.3  T
   5    -50.7377166 -0.954258E-08  0.121E-03    8.21      16.2  T
speedup  1.11
cpu  time for SCC    0.01 s
wall time for SCC    0.00 s
speedup  0.98
cpu  time for grad    0.01 s
wall time for grad    0.01 s
 E :    -50.45088782  G :  0.007955    pred/act E change: -0.293D-03 -0.195D-03
Maxdispl :   0.3487   ||displ|| :   0.5291   Lambda : -0.382D-03
Largest |displ|/coords:  0.3487 (   2)  0.3474 (   1)  0.0788 (   5)
................................................................................
.............................. CYCLE   37 ......................................
................................................................................
   1    -50.7345429 -0.507345E+02  0.200E-01    8.17       0.0  T
   2    -50.7345481 -0.522844E-05  0.151E-01    8.18       1.0  T
   3    -50.7345536 -0.546473E-05  0.127E-02    8.18       1.5  T
   4    -50.7345540 -0.428175E-06  0.454E-03    8.18       4.3  T
   5    -50.7345540 -0.205503E-07  0.169E-03    8.18      11.6  T
   6    -50.7345540 -0.302577E-08  0.911E-04    8.18      21.5  T
speedup  0.94
cpu  time for SCC    0.00 s
wall time for SCC    0.01 s
speedup  0.99
cpu  time for grad    0.01 s
wall time for grad    0.01 s
 E :    -50.45117498  G :  0.009493    pred/act E change: -0.217D-03 -0.287D-03
Maxdispl :   0.3641   ||displ|| :   0.5751   Lambda : -0.582D-03
Largest |displ|/coords:  0.3641 (   1)  0.3110 (   2)  0.1046 (  12)
................................................................................
.............................. CYCLE   38 ......................................
................................................................................
   1    -50.7309959 -0.507310E+02  0.230E-01    8.23       0.0  T
   2    -50.7310128 -0.169581E-04  0.173E-01    8.23       1.0  T
   3    -50.7310277 -0.148605E-04  0.223E-02    8.25       1.0  T
   4    -50.7310299 -0.219659E-05  0.590E-03    8.25       3.3  T
   5    -50.7310299 -0.380139E-07  0.342E-03    8.25       5.7  T
   6    -50.7310299 -0.206691E-07  0.119E-03    8.25      16.5  T
   7    -50.7310299 -0.229464E-08  0.326E-04    8.25      60.2  T
speedup  0.98
cpu  time for SCC    0.01 s
wall time for SCC    0.01 s
speedup  1.01
cpu  time for grad    0.01 s
wall time for grad    0.01 s
 E :    -50.45129549  G :  0.020571    pred/act E change: -0.244D-03 -0.121D-03
Maxdispl :   0.0669   ||displ|| :   0.1430   Lambda : -0.492D-03
Largest |displ|/coords:  0.0669 (   8)  0.0586 (   2)  0.0552 (   1)
................................................................................
.............................. CYCLE   39 ......................................
................................................................................
   1    -50.7334078 -0.507334E+02  0.758E-02    8.24       0.0  T
   2    -50.7334113 -0.342154E-05  0.566E-02    8.24       1.0  T
   3    -50.7334140 -0.274337E-05  0.105E-02    8.25       1.9  T
   4    -50.7334144 -0.396112E-06  0.264E-03    8.24       7.4  T
   5    -50.7334144 -0.123117E-07  0.119E-03    8.24      16.5  T
speedup  1.14
cpu  time for SCC    0.00 s
wall time for SCC    0.00 s
speedup  0.98
cpu  time for grad    0.01 s
wall time for grad    0.01 s
 E :    -50.45158155  G :  0.009948    pred/act E change: -0.387D-03 -0.286D-03
Maxdispl :   0.2041   ||displ|| :   0.3260   Lambda : -0.227D-03
Largest |displ|/coords:  0.2041 (   2)  0.2032 (   1)  0.1013 (   8)
................................................................................
.............................. CYCLE   40 ......................................
................................................................................
   1    -50.7328405 -0.507328E+02  0.115E-01    8.17       0.0  T
   2    -50.7328437 -0.320337E-05  0.858E-02    8.18       1.0  T
   3    -50.7328466 -0.287393E-05  0.113E-02    8.18       1.7  T
   4    -50.7328469 -0.299950E-06  0.347E-03    8.18       5.6  T
   5    -50.7328469 -0.196063E-07  0.120E-03    8.18      16.4  T
   6    -50.7328469 -0.204675E-08  0.657E-04    8.18      29.9  T
speedup  0.94
cpu  time for SCC    0.00 s
wall time for SCC    0.01 s
speedup  0.99
cpu  time for grad    0.01 s
wall time for grad    0.01 s
 E :    -50.45161818  G :  0.011021    pred/act E change: -0.251D-03 -0.366D-04
Maxdispl :   0.0782   ||displ|| :   0.2017   Lambda : -0.327D-03
Largest |displ|/coords:  0.0782 (  10)  0.0774 (   6)  0.0700 (   7)
................................................................................
.............................. CYCLE   41 ......................................
................................................................................
   1    -50.7377433 -0.507377E+02  0.804E-02    8.29       0.0  T
   2    -50.7377458 -0.249043E-05  0.579E-02    8.30       1.0  T
   3    -50.7377476 -0.179912E-05  0.126E-02    8.30       1.6  T
   4    -50.7377478 -0.187433E-06  0.292E-03    8.30       6.7  T
   5    -50.7377478 -0.177056E-07  0.883E-04    8.30      22.2  T
speedup  0.91
cpu  time for SCC    0.00 s
wall time for SCC    0.00 s
speedup  0.98
cpu  time for grad    0.01 s
wall time for grad    0.01 s
 E :    -50.45174724  G :  0.009786    pred/act E change: -0.126D-03 -0.129D-03
Maxdispl :   0.2343   ||displ|| :   0.3559   Lambda : -0.255D-03
Largest |displ|/coords:  0.2343 (   1)  0.2176 (   2)  0.0805 (  18)
................................................................................
.............................. CYCLE   42 ......................................
................................................................................
   1    -50.7331944 -0.507332E+02  0.155E-01    8.24       0.0  T
   2    -50.7331996 -0.516785E-05  0.116E-01    8.25       1.0  T
   3    -50.7332039 -0.430102E-05  0.131E-02    8.26       1.5  T
   4    -50.7332045 -0.630694E-06  0.454E-03    8.26       4.3  T
   5    -50.7332045 -0.289174E-07  0.168E-03    8.25      11.7  T
   6    -50.7332045 -0.276065E-08  0.906E-04    8.25      21.6  T
speedup  1.15
cpu  time for SCC    0.01 s
wall time for SCC    0.01 s
speedup  1.07
cpu  time for grad    0.01 s
wall time for grad    0.01 s
 E :    -50.45177292  G :  0.014788    pred/act E change: -0.170D-03 -0.257D-04
Maxdispl :   0.0510   ||displ|| :   0.0942   Lambda : -0.213D-03
Largest |displ|/coords:  0.0510 (   1)  0.0386 (   2)  0.0355 (   5)
................................................................................
.............................. CYCLE   43 ......................................
................................................................................
   1    -50.7348023 -0.507348E+02  0.562E-02    8.26       0.0  T
   2    -50.7348044 -0.205082E-05  0.421E-02    8.26       1.0  T
   3    -50.7348059 -0.146853E-05  0.802E-03    8.25       2.4  T
   4    -50.7348061 -0.267487E-06  0.204E-03    8.25       9.6  T
   5    -50.7348061 -0.598388E-08  0.919E-04    8.25      21.3  T
speedup  0.89
cpu  time for SCC    0.00 s
wall time for SCC    0.00 s
speedup  0.97
cpu  time for grad    0.01 s
wall time for grad    0.01 s
 E :    -50.45189248  G :  0.005627    pred/act E change: -0.143D-03 -0.120D-03
Maxdispl :   0.0423   ||displ|| :   0.0930   Lambda : -0.919D-04
Largest |displ|/coords:  0.0423 (   1)  0.0295 (  13)  0.0290 (  10)
................................................................................
.............................. CYCLE   44 ......................................
................................................................................
   1    -50.7365469 -0.507365E+02  0.459E-02    8.26       0.0  T
   2    -50.7365478 -0.921806E-06  0.343E-02    8.26       1.0  T
   3    -50.7365484 -0.612103E-06  0.624E-03    8.26       3.1  T
   4    -50.7365485 -0.116762E-06  0.228E-03    8.26       8.6  T
   5    -50.7365485 -0.665253E-08  0.564E-04    8.26      34.7  T
speedup  0.91
cpu  time for SCC    0.00 s
wall time for SCC    0.00 s
speedup  0.98
cpu  time for grad    0.01 s
wall time for grad    0.01 s
 E :    -50.45193925  G :  0.004664    pred/act E change: -0.108D-03 -0.468D-04
Maxdispl :   0.1124   ||displ|| :   0.2038   Lambda : -0.100D-03
Largest |displ|/coords:  0.1124 (   1)  0.1084 (   2)  0.0558 (  10)
................................................................................
.............................. CYCLE   45 ......................................
................................................................................
   1    -50.7363180 -0.507363E+02  0.925E-02    8.24       0.0  T
   2    -50.7363199 -0.190345E-05  0.691E-02    8.24       1.0  T
   3    -50.7363212 -0.128136E-05  0.928E-03    8.24       2.1  T
   4    -50.7363214 -0.262745E-06  0.346E-03    8.24       5.7  T
   5    -50.7363215 -0.146028E-07  0.896E-04    8.24      21.9  T
   6    -50.7363215 -0.784212E-09  0.542E-04    8.24      36.2  T
speedup  0.94
cpu  time for SCC    0.01 s
wall time for SCC    0.01 s
speedup  0.98
cpu  time for grad    0.01 s
wall time for grad    0.01 s
 E :    -50.45200565  G :  0.004137    pred/act E change: -0.463D-04 -0.664D-04
Maxdispl :   0.1182   ||displ|| :   0.2107   Lambda : -0.103D-03
Largest |displ|/coords:  0.1182 (   1)  0.0921 (   2)  0.0675 (   4)
................................................................................
.............................. CYCLE   46 ......................................
................................................................................
   1    -50.7365816 -0.507366E+02  0.987E-02    8.22       0.0  T
   2    -50.7365835 -0.190513E-05  0.739E-02    8.22       1.0  T
   3    -50.7365848 -0.128683E-05  0.921E-03    8.21       2.1  T
   4    -50.7365851 -0.281834E-06  0.371E-03    8.22       5.3  T
   5    -50.7365851 -0.149970E-07  0.931E-04    8.22      21.1  T
   6    -50.7365851 -0.799311E-09  0.576E-04    8.22      34.1  T
speedup  1.13
cpu  time for SCC    0.01 s
wall time for SCC    0.01 s
speedup  1.06
cpu  time for grad    0.01 s
wall time for grad    0.01 s
 E :    -50.45204311  G :  0.005396    pred/act E change: -0.521D-04 -0.375D-04
Maxdispl :   0.0391   ||displ|| :   0.0823   Lambda : -0.626D-04
Largest |displ|/coords:  0.0391 (   1)  0.0271 (   7)  0.0263 (  12)
................................................................................
.............................. CYCLE   47 ......................................
................................................................................
   1    -50.7363597 -0.507364E+02  0.496E-02    8.21       0.0  T
   2    -50.7363603 -0.616587E-06  0.370E-02    8.21       1.0  T
   3    -50.7363608 -0.515461E-06  0.450E-03    8.22       4.4  T
   4    -50.7363609 -0.678755E-07  0.165E-03    8.21      11.9  T
   5    -50.7363609 -0.235247E-08  0.489E-04    8.21      40.1  T
speedup  1.11
cpu  time for SCC    0.00 s
wall time for SCC    0.00 s
speedup  0.98
cpu  time for grad    0.01 s
wall time for grad    0.01 s
 E :    -50.45207291  G :  0.005074    pred/act E change: -0.538D-04 -0.298D-04
Maxdispl :   0.0224   ||displ|| :   0.0501   Lambda : -0.512D-04
Largest |displ|/coords:  0.0224 (   3)  0.0188 (  12)  0.0155 (   2)
................................................................................
.............................. CYCLE   48 ......................................
................................................................................
   1    -50.7368142 -0.507368E+02  0.371E-02    8.23       0.0  T
   2    -50.7368148 -0.633135E-06  0.274E-02    8.23       1.0  T
   3    -50.7368152 -0.383531E-06  0.589E-03    8.22       3.3  T
   4    -50.7368153 -0.814709E-07  0.142E-03    8.23      13.8  T
   5    -50.7368153 -0.345985E-08  0.432E-04    8.23      45.4  T
speedup  0.91
cpu  time for SCC    0.00 s
wall time for SCC    0.00 s
speedup  0.98
cpu  time for grad    0.01 s
wall time for grad    0.01 s
 E :    -50.45209930  G :  0.005045    pred/act E change: -0.315D-04 -0.264D-04
Maxdispl :   0.0349   ||displ|| :   0.0665   Lambda : -0.499D-04
Largest |displ|/coords:  0.0349 (   2)  0.0306 (   3)  0.0209 (  27)
................................................................................
.............................. CYCLE   49 ......................................
................................................................................
   1    -50.7369981 -0.507370E+02  0.430E-02    8.22       0.0  T
   2    -50.7369986 -0.578376E-06  0.316E-02    8.22       1.0  T
   3    -50.7369991 -0.428612E-06  0.582E-03    8.22       3.4  T
   4    -50.7369991 -0.567077E-07  0.143E-03    8.22      13.7  T
   5    -50.7369991 -0.336981E-08  0.450E-04    8.22      43.6  T
speedup  0.91
cpu  time for SCC    0.00 s
wall time for SCC    0.00 s
speedup  0.98
cpu  time for grad    0.01 s
wall time for grad    0.01 s
 E :    -50.45212990  G :  0.002957    pred/act E change: -0.257D-04 -0.306D-04
Maxdispl :   0.0865   ||displ|| :   0.1472   Lambda : -0.563D-04
Largest |displ|/coords:  0.0865 (   1)  0.0618 (   3)  0.0475 (  18)
................................................................................
.............................. CYCLE   50 ......................................
................................................................................
   1    -50.7370718 -0.507371E+02  0.834E-02    8.21       0.0  T
   2    -50.7370730 -0.122887E-05  0.622E-02    8.21       1.0  T
   3    -50.7370742 -0.118716E-05  0.822E-03    8.20       2.4  T
   4    -50.7370743 -0.117639E-06  0.220E-03    8.20       8.9  T
   5    -50.7370744 -0.602772E-08  0.747E-04    8.20      26.3  T
   6    -50.7370744 -0.616069E-09  0.408E-04    8.20      48.0  T
speedup  0.94
cpu  time for SCC    0.01 s
wall time for SCC    0.01 s
speedup  1.01
cpu  time for grad    0.01 s
wall time for grad    0.01 s
 E :    -50.45214947  G :  0.004748    pred/act E change: -0.250D-04 -0.196D-04
Maxdispl :   0.0555   ||displ|| :   0.1169   Lambda : -0.450D-04
Largest |displ|/coords:  0.0555 (   3)  0.0540 (   1)  0.0406 (  18)
................................................................................
.............................. CYCLE   51 ......................................
................................................................................
   1    -50.7360681 -0.507361E+02  0.617E-02    8.19       0.0  T
   2    -50.7360689 -0.769542E-06  0.464E-02    8.19       1.0  T
   3    -50.7360697 -0.781832E-06  0.454E-03    8.20       4.3  T
   4    -50.7360697 -0.691382E-07  0.198E-03    8.19       9.9  T
   5    -50.7360697 -0.386229E-08  0.571E-04    8.19      34.3  T
speedup  1.11
cpu  time for SCC    0.00 s
wall time for SCC    0.00 s
speedup  1.05
cpu  time for grad    0.01 s
wall time for grad    0.01 s
 E :    -50.45217178  G :  0.003853    pred/act E change: -0.288D-04 -0.223D-04
Maxdispl :   0.0274   ||displ|| :   0.0543   Lambda : -0.348D-04
Largest |displ|/coords:  0.0274 (   3)  0.0254 (   2)  0.0171 (   1)
................................................................................
.............................. CYCLE   52 ......................................
................................................................................
   1    -50.7368993 -0.507369E+02  0.258E-02    8.20       0.0  T
   2    -50.7368995 -0.204224E-06  0.191E-02    8.20       1.0  T
   3    -50.7368997 -0.164074E-06  0.313E-03    8.21       6.3  T
   4    -50.7368997 -0.204601E-07  0.905E-04    8.21      21.7  T
   5    -50.7368997 -0.118006E-08  0.289E-04    8.21      67.8  T
speedup  1.14
cpu  time for SCC    0.00 s
wall time for SCC    0.00 s
speedup  1.01
cpu  time for grad    0.01 s
wall time for grad    0.01 s
 E :    -50.45219378  G :  0.002919    pred/act E change: -0.228D-04 -0.220D-04
Maxdispl :   0.0649   ||displ|| :   0.1225   Lambda : -0.427D-04
Largest |displ|/coords:  0.0649 (   3)  0.0477 (   1)  0.0395 (   7)

generating ANC from model Hessian ...
 Shifting diagonal of input Hessian by   4.879860887418898E-003
 Lowest  eigenvalues of input Hessian
   -0.000000   -0.000000   -0.000000   -0.000000    0.000000    0.000000
    0.005000    0.005050    0.005233    0.005452    0.005586    0.005981
    0.006582    0.007340    0.007646    0.008053    0.008129    0.009303
 Highest eigenvalues
    1.385513    1.400706    1.403741    2.819295    3.349227    3.660965
 
cpu  time for ANC gen    0.02 s
wall time for ANC gen    0.02 s
................................................................................
.............................. CYCLE   53 ......................................
................................................................................
   1    -50.7370110 -0.507370E+02  0.568E-02    8.22       0.0  T
   2    -50.7370117 -0.708056E-06  0.426E-02    8.23       1.0  T
   3    -50.7370124 -0.685288E-06  0.534E-03    8.23       3.7  T
   4    -50.7370125 -0.623564E-07  0.149E-03    8.23      13.1  T
   5    -50.7370125 -0.367403E-08  0.499E-04    8.23      39.3  T
   6    -50.7370125 -0.334900E-09  0.317E-04    8.23      61.8  T
speedup  0.93
cpu  time for SCC    0.00 s
wall time for SCC    0.01 s
speedup  1.01
cpu  time for grad    0.01 s
wall time for grad    0.01 s
 E :    -50.45222400  G :  0.002308    pred/act E change:  0.000D+00 -0.302D-04
Maxdispl :   0.0400   ||displ|| :   0.0784   Lambda : -0.593D-04
Largest |displ|/coords:  0.0400 (  12)  0.0298 (  13)  0.0280 (   5)
................................................................................
.............................. CYCLE   54 ......................................
................................................................................
   1    -50.7365532 -0.507366E+02  0.618E-02    8.23       0.0  T
   2    -50.7365539 -0.659232E-06  0.466E-02    8.23       1.0  T
   3    -50.7365547 -0.836140E-06  0.406E-03    8.22       4.8  T
   4    -50.7365548 -0.371699E-07  0.181E-03    8.22      10.8  T
   5    -50.7365548 -0.399439E-08  0.530E-04    8.22      37.0  T
   6    -50.7365548 -0.489734E-09  0.241E-04    8.22      81.2  T
speedup  0.94
cpu  time for SCC    0.00 s
wall time for SCC    0.01 s
speedup  1.01
cpu  time for grad    0.01 s
wall time for grad    0.01 s
 E :    -50.45226360  G :  0.001245    pred/act E change:  0.000D+00 -0.396D-04
Maxdispl :   0.0530   ||displ|| :   0.0951   Lambda : -0.416D-04
Largest |displ|/coords:  0.0530 (  12)  0.0334 (   5)  0.0279 (   4)
................................................................................
.............................. CYCLE   55 ......................................
................................................................................
   1    -50.7359522 -0.507360E+02  0.746E-02    8.22       0.0  T
   2    -50.7359529 -0.662310E-06  0.560E-02    8.22       1.0  T
   3    -50.7359536 -0.773334E-06  0.423E-03    8.22       4.6  T
   4    -50.7359537 -0.391112E-07  0.185E-03    8.22      10.6  T
   5    -50.7359537 -0.331732E-08  0.579E-04    8.22      33.9  T
   6    -50.7359537 -0.571596E-09  0.262E-04    8.22      74.9  T
speedup  1.09
cpu  time for SCC    0.01 s
wall time for SCC    0.01 s
speedup  0.93
cpu  time for grad    0.01 s
wall time for grad    0.01 s
 E :    -50.45228963  G :  0.001975    pred/act E change: -0.298D-04 -0.260D-04
Maxdispl :   0.0276   ||displ|| :   0.0671   Lambda : -0.171D-04
Largest |displ|/coords:  0.0276 (  12)  0.0272 (   3)  0.0267 (   1)
................................................................................
.............................. CYCLE   56 ......................................
................................................................................
   1    -50.7360094 -0.507360E+02  0.411E-02    8.22       0.0  T
   2    -50.7360096 -0.214329E-06  0.309E-02    8.22       1.0  T
   3    -50.7360098 -0.229113E-06  0.248E-03    8.22       7.9  T
   4    -50.7360098 -0.192127E-07  0.106E-03    8.22      18.4  T
   5    -50.7360098 -0.124584E-08  0.343E-04    8.22      57.2  T
   6    -50.7360098 -0.147850E-09  0.170E-04    8.22     115.1  T
speedup  0.93
cpu  time for SCC    0.00 s
wall time for SCC    0.01 s
speedup  0.94
cpu  time for grad    0.01 s
wall time for grad    0.01 s
 E :    -50.45230303  G :  0.001543    pred/act E change: -0.210D-04 -0.134D-04
Maxdispl :   0.0663   ||displ|| :   0.1330   Lambda : -0.265D-04
Largest |displ|/coords:  0.0663 (   1)  0.0602 (   3)  0.0497 (   5)
................................................................................
.............................. CYCLE   57 ......................................
................................................................................
   1    -50.7361894 -0.507362E+02  0.684E-02    8.22       0.0  T
   2    -50.7361901 -0.680192E-06  0.516E-02    8.22       1.0  T
   3    -50.7361908 -0.751419E-06  0.463E-03    8.22       4.2  T
   4    -50.7361909 -0.601643E-07  0.184E-03    8.22      10.6  T
   5    -50.7361909 -0.391189E-08  0.610E-04    8.22      32.2  T
   6    -50.7361909 -0.419028E-09  0.331E-04    8.22      59.3  T
speedup  1.11
cpu  time for SCC    0.01 s
wall time for SCC    0.01 s
speedup  1.01
cpu  time for grad    0.01 s
wall time for grad    0.01 s
 E :    -50.45232177  G :  0.001302    pred/act E change: -0.857D-05 -0.187D-04
Maxdispl :   0.0824   ||displ|| :   0.1449   Lambda : -0.203D-04
Largest |displ|/coords:  0.0824 (   1)  0.0650 (   3)  0.0572 (   5)
................................................................................
.............................. CYCLE   58 ......................................
................................................................................
   1    -50.7362046 -0.507362E+02  0.656E-02    8.22       0.0  T
   2    -50.7362052 -0.636095E-06  0.495E-02    8.22       1.0  T
   3    -50.7362060 -0.778558E-06  0.477E-03    8.22       4.1  T
   4    -50.7362060 -0.429664E-07  0.179E-03    8.22      10.9  T
   5    -50.7362061 -0.372147E-08  0.592E-04    8.22      33.1  T
   6    -50.7362061 -0.397847E-09  0.348E-04    8.22      56.3  T
speedup  1.11
cpu  time for SCC    0.01 s
wall time for SCC    0.01 s
speedup  1.05
cpu  time for grad    0.01 s
wall time for grad    0.01 s
 E :    -50.45233756  G :  0.001879    pred/act E change: -0.135D-04 -0.158D-04
Maxdispl :   0.1383   ||displ|| :   0.2233   Lambda : -0.289D-04
Largest |displ|/coords:  0.1383 (   1)  0.0963 (   3)  0.0924 (   5)
................................................................................
.............................. CYCLE   59 ......................................
................................................................................
   1    -50.7360219 -0.507360E+02  0.926E-02    8.21       0.0  T
   2    -50.7360232 -0.128584E-05  0.697E-02    8.21       1.0  T
   3    -50.7360248 -0.159418E-05  0.735E-03    8.21       2.7  T
   4    -50.7360249 -0.776444E-07  0.251E-03    8.21       7.8  T
   5    -50.7360249 -0.794846E-08  0.842E-04    8.21      23.3  T
   6    -50.7360249 -0.785946E-09  0.515E-04    8.21      38.1  T
speedup  0.91
cpu  time for SCC    0.00 s
wall time for SCC    0.01 s
speedup  1.01
cpu  time for grad    0.01 s
wall time for grad    0.01 s
 E :    -50.45235874  G :  0.002277    pred/act E change: -0.104D-04 -0.212D-04
Maxdispl :   0.1322   ||displ|| :   0.2016   Lambda : -0.268D-04
Largest |displ|/coords:  0.1322 (   1)  0.0898 (   5)  0.0789 (   3)
................................................................................
.............................. CYCLE   60 ......................................
................................................................................
   1    -50.7361708 -0.507362E+02  0.764E-02    8.22       0.0  T
   2    -50.7361718 -0.992270E-06  0.573E-02    8.21       1.0  T
   3    -50.7361730 -0.116569E-05  0.669E-03    8.22       2.9  T
   4    -50.7361730 -0.642250E-07  0.199E-03    8.22       9.8  T
   5    -50.7361730 -0.571717E-08  0.724E-04    8.22      27.1  T
   6    -50.7361730 -0.692822E-09  0.436E-04    8.22      45.0  T
speedup  0.94
cpu  time for SCC    0.00 s
wall time for SCC    0.01 s
speedup  0.95
cpu  time for grad    0.01 s
wall time for grad    0.01 s
 E :    -50.45237793  G :  0.002166    pred/act E change: -0.152D-04 -0.192D-04
Maxdispl :   0.1300   ||displ|| :   0.2004   Lambda : -0.230D-04
Largest |displ|/coords:  0.1300 (   1)  0.0989 (   5)  0.0731 (   3)
................................................................................
.............................. CYCLE   61 ......................................
................................................................................
   1    -50.7356694 -0.507357E+02  0.778E-02    8.22       0.0  T
   2    -50.7356704 -0.992841E-06  0.585E-02    8.22       1.0  T
   3    -50.7356715 -0.116367E-05  0.612E-03    8.22       3.2  T
   4    -50.7356716 -0.671372E-07  0.198E-03    8.22       9.9  T
   5    -50.7356716 -0.505217E-08  0.714E-04    8.22      27.5  T
   6    -50.7356716 -0.732960E-09  0.422E-04    8.22      46.5  T
speedup  1.09
cpu  time for SCC    0.01 s
wall time for SCC    0.01 s
speedup  1.01
cpu  time for grad    0.01 s
wall time for grad    0.01 s
 E :    -50.45239416  G :  0.001919    pred/act E change: -0.139D-04 -0.162D-04
Maxdispl :   0.0933   ||displ|| :   0.1545   Lambda : -0.287D-04
Largest |displ|/coords:  0.0933 (   1)  0.0820 (   5)  0.0391 (  13)
................................................................................
.............................. CYCLE   62 ......................................
................................................................................
   1    -50.7366067 -0.507366E+02  0.632E-02    8.24       0.0  T
   2    -50.7366074 -0.766938E-06  0.473E-02    8.24       1.0  T
   3    -50.7366081 -0.699705E-06  0.497E-03    8.24       3.9  T
   4    -50.7366082 -0.805390E-07  0.150E-03    8.24      13.1  T
   5    -50.7366082 -0.272698E-08  0.611E-04    8.24      32.1  T
   6    -50.7366082 -0.560625E-09  0.308E-04    8.24      63.7  T
speedup  0.91
cpu  time for SCC    0.00 s
wall time for SCC    0.01 s
speedup  1.01
cpu  time for grad    0.01 s
wall time for grad    0.01 s
 E :    -50.45240967  G :  0.003080    pred/act E change: -0.119D-04 -0.155D-04
Maxdispl :   0.1189   ||displ|| :   0.2023   Lambda : -0.257D-04
Largest |displ|/coords:  0.1189 (   1)  0.1107 (   5)  0.0619 (   3)
................................................................................
.............................. CYCLE   63 ......................................
................................................................................
   1    -50.7353643 -0.507354E+02  0.828E-02    8.24       0.0  T
   2    -50.7353654 -0.106959E-05  0.625E-02    8.24       1.0  T
   3    -50.7353667 -0.126622E-05  0.509E-03    8.25       3.9  T
   4    -50.7353667 -0.763009E-07  0.211E-03    8.24       9.3  T
   5    -50.7353667 -0.491532E-08  0.700E-04    8.24      28.0  T
   6    -50.7353667 -0.873037E-09  0.396E-04    8.24      49.5  T
speedup  0.94
cpu  time for SCC    0.00 s
wall time for SCC    0.01 s
speedup  0.94
cpu  time for grad    0.01 s
wall time for grad    0.01 s
 E :    -50.45242533  G :  0.002881    pred/act E change: -0.147D-04 -0.157D-04
Maxdispl :   0.0405   ||displ|| :   0.0824   Lambda : -0.303D-04
Largest |displ|/coords:  0.0405 (   5)  0.0272 (   7)  0.0268 (   6)
................................................................................
.............................. CYCLE   64 ......................................
................................................................................
   1    -50.7356078 -0.507356E+02  0.426E-02    8.26       0.0  T
   2    -50.7356081 -0.326331E-06  0.320E-02    8.26       1.0  T
   3    -50.7356084 -0.357013E-06  0.388E-03    8.26       5.1  T
   4    -50.7356085 -0.242981E-07  0.139E-03    8.26      14.2  T
   5    -50.7356085 -0.263216E-08  0.349E-04    8.26      56.3  T
   6    -50.7356085 -0.151665E-09  0.235E-04    8.26      83.3  T
speedup  1.11
cpu  time for SCC    0.01 s
wall time for SCC    0.01 s
speedup  1.01
cpu  time for grad    0.01 s
wall time for grad    0.01 s
 E :    -50.45244712  G :  0.002557    pred/act E change: -0.134D-04 -0.218D-04
Maxdispl :   0.0632   ||displ|| :   0.1301   Lambda : -0.320D-04
Largest |displ|/coords:  0.0632 (   5)  0.0498 (   7)  0.0449 (  13)
................................................................................
.............................. CYCLE   65 ......................................
................................................................................
   1    -50.7358618 -0.507359E+02  0.696E-02    8.27       0.0  T
   2    -50.7358627 -0.902860E-06  0.526E-02    8.27       1.0  T
   3    -50.7358636 -0.922394E-06  0.537E-03    8.28       3.7  T
   4    -50.7358637 -0.896217E-07  0.221E-03    8.28       8.9  T
   5    -50.7358637 -0.561764E-08  0.554E-04    8.28      35.4  T
   6    -50.7358637 -0.402352E-09  0.353E-04    8.28      55.6  T
speedup  0.94
cpu  time for SCC    0.01 s
wall time for SCC    0.01 s
speedup  1.01
cpu  time for grad    0.01 s
wall time for grad    0.01 s
 E :    -50.45246804  G :  0.002070    pred/act E change: -0.152D-04 -0.209D-04
Maxdispl :   0.0302   ||displ|| :   0.0813   Lambda : -0.199D-04
Largest |displ|/coords:  0.0302 (  13)  0.0294 (   7)  0.0265 (   8)
................................................................................
.............................. CYCLE   66 ......................................
................................................................................
[...]
.............................. CYCLE  131 ......................................
................................................................................
   1    -50.7363247 -0.507363E+02  0.916E-03    8.29       0.0  T
   2    -50.7363248 -0.116098E-07  0.686E-03    8.29       2.9  T
   3    -50.7363248 -0.120714E-07  0.636E-04    8.29      30.8  T
   4    -50.7363248 -0.113424E-08  0.267E-04    8.29      73.4  T
speedup  1.08
cpu  time for SCC    0.00 s
wall time for SCC    0.00 s
speedup  0.99
cpu  time for grad    0.01 s
wall time for grad    0.01 s
 E :    -50.45256181  G :  0.000177    pred/act E change: -0.160D-06 -0.257D-06
Maxdispl :   0.0537   ||displ|| :   0.0678   Lambda : -0.496D-06
Largest |displ|/coords:  0.0537 (   4)  0.0225 (   3)  0.0196 (   5)
................................................................................
.............................. CYCLE  132 ......................................
................................................................................
   1    -50.7363159 -0.507363E+02  0.244E-02    8.28       0.0  T
   2    -50.7363159 -0.665905E-07  0.183E-02    8.28       1.1  T
   3    -50.7363160 -0.727131E-07  0.147E-03    8.28      13.3  T
   4    -50.7363160 -0.597684E-08  0.663E-04    8.28      29.6  T
   5    -50.7363160 -0.559318E-09  0.165E-04    8.28     118.5  T
speedup  1.11
cpu  time for SCC    0.00 s
wall time for SCC    0.00 s
speedup  1.00
cpu  time for grad    0.01 s
wall time for grad    0.01 s
 E :    -50.45256215  G :  0.000223    pred/act E change: -0.147D-06 -0.335D-06
Maxdispl :   0.0073   ||displ|| :   0.0127   Lambda : -0.185D-06
Largest |displ|/coords:  0.0073 (   4)  0.0066 (   1)  0.0051 (   2)
................................................................................
.............................. CYCLE  133 ......................................
................................................................................
   1    -50.7363876 -0.507364E+02  0.634E-03    8.28       0.0  T
   2    -50.7363876 -0.465499E-08  0.470E-03    8.28       4.2  T
   3    -50.7363876 -0.464087E-08  0.328E-04    8.28      59.8  T
   4    -50.7363876 -0.264563E-09  0.152E-04    8.28     129.2  T
speedup  0.81
cpu  time for SCC    0.00 s
wall time for SCC    0.00 s
speedup  0.99
cpu  time for grad    0.01 s
wall time for grad    0.01 s
 E :    -50.45256228  G :  0.000236    pred/act E change: -0.249D-06 -0.129D-06
Maxdispl :   0.0393   ||displ|| :   0.0522   Lambda : -0.379D-06
Largest |displ|/coords:  0.0393 (   4)  0.0231 (   3)  0.0156 (   5)
................................................................................
.............................. CYCLE  134 ......................................
................................................................................
   1    -50.7363639 -0.507364E+02  0.181E-02    8.28       0.0  T
   2    -50.7363640 -0.404255E-07  0.136E-02    8.28       1.4  T
   3    -50.7363640 -0.393869E-07  0.116E-03    8.29      16.8  T
   4    -50.7363640 -0.500400E-08  0.500E-04    8.28      39.2  T
   5    -50.7363640 -0.303771E-09  0.100E-04    8.28     195.3  T
speedup  1.09
cpu  time for SCC    0.00 s
wall time for SCC    0.00 s
speedup  0.99
cpu  time for grad    0.01 s
wall time for grad    0.01 s
 E :    -50.45256256  G :  0.000270    pred/act E change: -0.926D-07 -0.279D-06
Maxdispl :   0.0423   ||displ|| :   0.0561   Lambda : -0.420D-06
Largest |displ|/coords:  0.0423 (   4)  0.0258 (   3)  0.0155 (   5)
................................................................................
.............................. CYCLE  135 ......................................
................................................................................
   1    -50.7362920 -0.507363E+02  0.197E-02    8.28       0.0  T
   2    -50.7362921 -0.499750E-07  0.148E-02    8.28       1.3  T
   3    -50.7362921 -0.450204E-07  0.131E-03    8.29      15.0  T
   4    -50.7362921 -0.674886E-08  0.549E-04    8.29      35.7  T
   5    -50.7362921 -0.353495E-09  0.134E-04    8.29     145.9  T
speedup  1.09
cpu  time for SCC    0.00 s
wall time for SCC    0.00 s
speedup  1.00
cpu  time for grad    0.01 s
wall time for grad    0.01 s
 E :    -50.45256286  G :  0.000277    pred/act E change: -0.190D-06 -0.307D-06
Maxdispl :   0.0361   ||displ|| :   0.0501   Lambda : -0.354D-06
Largest |displ|/coords:  0.0361 (   4)  0.0253 (   3)  0.0131 (   5)
................................................................................
.............................. CYCLE  136 ......................................
................................................................................
   1    -50.7362356 -0.507362E+02  0.175E-02    8.29       0.0  T
   2    -50.7362356 -0.435609E-07  0.131E-02    8.29       1.5  T
   3    -50.7362357 -0.379552E-07  0.127E-03    8.29      15.4  T
   4    -50.7362357 -0.600902E-08  0.516E-04    8.29      38.0  T
   5    -50.7362357 -0.313527E-09  0.130E-04    8.29     150.4  T
speedup  1.09
cpu  time for SCC    0.00 s
wall time for SCC    0.00 s
speedup  1.00
cpu  time for grad    0.01 s
wall time for grad    0.01 s
 E :    -50.45256311  G :  0.000274    pred/act E change: -0.222D-06 -0.248D-06
Maxdispl :   0.0167   ||displ|| :   0.0260   Lambda : -0.231D-06
Largest |displ|/coords:  0.0167 (   4)  0.0137 (   3)  0.0079 (   1)
................................................................................
.............................. CYCLE  137 ......................................
................................................................................
   1    -50.7362442 -0.507362E+02  0.911E-03    8.29       0.0  T
   2    -50.7362443 -0.129661E-07  0.683E-03    8.29       2.9  T
   3    -50.7362443 -0.109996E-07  0.772E-04    8.29      25.4  T
   4    -50.7362443 -0.170245E-08  0.287E-04    8.29      68.3  T
speedup  1.03
cpu  time for SCC    0.00 s
wall time for SCC    0.00 s
speedup  0.98
cpu  time for grad    0.01 s
wall time for grad    0.01 s
 E :    -50.45256328  G :  0.000200    pred/act E change: -0.177D-06 -0.173D-06
Maxdispl :   0.0088   ||displ|| :   0.0136   Lambda : -0.150D-06
Largest |displ|/coords:  0.0088 (   1)  0.0082 (   4)  0.0030 (   3)
................................................................................
.............................. CYCLE  138 ......................................
................................................................................
   1    -50.7362964 -0.507363E+02  0.403E-03    8.29       0.0  T
   2    -50.7362964 -0.347828E-08  0.301E-03    8.29       6.5  T
   3    -50.7362964 -0.205750E-08  0.423E-04    8.29      46.4  T
   4    -50.7362964 -0.565407E-09  0.119E-04    8.29     165.3  T
speedup  1.08
cpu  time for SCC    0.00 s
wall time for SCC    0.00 s
speedup  0.99
cpu  time for grad    0.01 s
wall time for grad    0.01 s
 E :    -50.45256340  G :  0.000144    pred/act E change: -0.116D-06 -0.111D-06
Maxdispl :   0.0417   ||displ|| :   0.0529   Lambda : -0.266D-06
Largest |displ|/coords:  0.0417 (   4)  0.0208 (   3)  0.0133 (   9)
................................................................................
.............................. CYCLE  139 ......................................
................................................................................
   1    -50.7361984 -0.507362E+02  0.206E-02    8.29       0.0  T
   2    -50.7361984 -0.528890E-07  0.154E-02    8.29       1.3  T
   3    -50.7361985 -0.529065E-07  0.142E-03    8.29      13.8  T
   4    -50.7361985 -0.530239E-08  0.588E-04    8.29      33.4  T
   5    -50.7361985 -0.398323E-09  0.146E-04    8.29     134.2  T
speedup  1.11
cpu  time for SCC    0.00 s
wall time for SCC    0.00 s
speedup  1.01
cpu  time for grad    0.01 s
wall time for grad    0.01 s
 E :    -50.45256349  G :  0.000266    pred/act E change: -0.750D-07 -0.994D-07
Maxdispl :   0.0065   ||displ|| :   0.0095   Lambda : -0.974D-07
Largest |displ|/coords:  0.0065 (   4)  0.0048 (   3)  0.0029 (   9)
................................................................................
.............................. CYCLE  140 ......................................
................................................................................
   1    -50.7362221 -0.507362E+02  0.322E-03    8.29       0.0  T
   2    -50.7362221 -0.169991E-08  0.242E-03    8.29       8.1  T
   3    -50.7362221 -0.136574E-08  0.253E-04    8.29      77.5  T
   4    -50.7362221 -0.251127E-09  0.993E-05    8.29     197.5  T
speedup  1.11
cpu  time for SCC    0.00 s
wall time for SCC    0.00 s
speedup  0.99
cpu  time for grad    0.01 s
wall time for grad    0.01 s
 E :    -50.45256359  G :  0.000197    pred/act E change: -0.133D-06 -0.915D-07
Maxdispl :   0.0260   ||displ|| :   0.0316   Lambda : -0.239D-06
Largest |displ|/coords:  0.0260 (   4)  0.0110 (   3)  0.0079 (   9)

   *** GEOMETRY OPTIMIZATION CONVERGED AFTER 140 ITERATIONS ***

------------------------------------------------------------------------
 total energy gain (kcal):     -0.0047
------------------------------------------------------------------------
================
 final structure:
================
$coord
        2.02496459145150       -0.15055106986867        0.93909645324029      S 
        2.57819988745674       -1.41599099806285       -1.41044435588030      O 
        2.76215593976201       -1.54064546209930        3.14889358605166      O 
       -0.80835304274669        0.45872387074081        1.06117600479691      O 
        3.26053499386615        2.44870421304011        0.87376521650538      O 
        2.13342014405309        3.78329713346082        1.74144370107311      H 
       -1.90180769220255       -1.22843278706063        1.05496164977061      H 
       -3.12849394303167       -3.61934778672417        0.96522183238569      O 
       -2.53625525072279       -4.30573913976279       -0.66345266281961      H 
       -2.21075002052580       -4.60195627926693        2.25464083792395      H 
       -2.80752923036635        5.00007339542082       -0.96896555329955      O 
       -3.68876804073794        3.56740987862385       -0.28581753067917      H 
       -1.65879071590644        4.27928259298842       -2.26892947231378      H 
       -0.43181005924433       -5.15437631007522       -2.97919607174584      O 
        0.43228970734557       -6.70635528463751       -2.61510300799601      H 
        0.78831457253673       -3.80517385911916       -2.65462848971130      H 
        0.18267739347265       -5.72100181503924        4.08844919028710      O 
        1.35297560631802       -4.31068372531294        3.80372119829446      H 
       -0.01640976240465       -5.84891643827874        5.88492322233232      H 
        0.44408733328168        5.84922998776033        2.60830203877472      O 
        1.22770101283520        7.44919196971368        2.26501750823773      H 
       -0.94560575275364        5.64634163675776        1.32797196601341      H 
        0.39753322467150        2.74976277844673       -4.24049095295288      N 
        1.24627425735278        1.32506088160002       -3.26982698245141      H 
        1.78540084464259        3.88452390397105       -4.91004925300393      H 
       -0.48195594170393        1.96756865610531       -5.75068011066185      H 
$end
 
 Bond Distances (Angstroems)
 ---------------------------
S1-O2=1.4422         S1-O3=1.4355         S1-O4=1.5350         S1-O5=1.5234         O2-S1=1.4422         O3-S1=1.4355         
O4-S1=1.5350         O4-H7=1.0639         O5-S1=1.5234         O5-H6=1.0322         H6-O5=1.0322         H7-O4=1.0639         
O8-H9=0.9864         O8-H10=0.9858        H9-O8=0.9864         H10-O8=0.9858        O11-H12=0.9607       O11-H13=0.9941       
H12-O11=0.9607       H13-O11=0.9941       O14-H15=0.9595       O14-H16=0.9778       H15-O14=0.9595       H16-O14=0.9778       
O17-H18=0.9814       O17-H19=0.9589       H18-O17=0.9814       H19-O17=0.9589       O20-H21=0.9601       O20-H22=1.0057       
H21-O20=0.9601       H22-O20=1.0057       N23-H24=1.0168       N23-H25=1.0127       N23-H26=1.0132       H24-N23=1.0168       
H25-N23=1.0127       H26-N23=1.0132       
 N  H  Rav=1.0142 sigma=0.0018  Rmin=1.0127  Rmax=1.0168     3
 O  H  Rav=0.9889 sigma=0.0308  Rmin=0.9589  Rmax=1.0639    12
 S  O  Rav=1.4840 sigma=0.0454  Rmin=1.4355  Rmax=1.5350     4
 
 selected bond angles (degree)
 --------------------
O3-S1-O2=114.15                O4-S1-O2=109.40                O4-S1-O3=109.80                O5-S1-O2=108.21                
O5-S1-O3=111.38                O5-S1-O4=103.33                H7-O4-S1=110.78                H6-O5-S1=111.08                
H10-O8-H9=104.72               
 
 selected dihedral angles (degree)
 ---------------------------------
H7-O4-S1-O2= 63.04            H7-O4-S1-O3=297.04            H7-O4-S1-O5=178.13            H6-O5-S1-O2=142.81            
H6-O5-S1-O3=269.07            H6-O5-S1-O4= 26.88            
 
 CMA Distance (Angstroems)
 ---------------------------
R(CMA):  1.5686

========================================================================
 FINAL SINGLEPOINT CALCULATION ON OPTIMIZED GEOMETRY
========================================================================

 Ncao       : 65
 Nao        : 64
 Nshell     : 38
 Nel        : 80
 T(el)      :   300.0
 intcut     :    25.0
 scfconv/Eh :  0.100E-05
   qconv/e  :  0.100E-03
 intneglect :  0.100E-07
 broydamp   :      0.250
 iter      E             dE          RMSdq      gap      omega  full diag
   1    -50.7362221 -0.507362E+02  0.257E-05    8.29       0.0  T
   2    -50.7362221 -0.102318E-11  0.176E-05    8.29    1117.1  T
   3    -50.7362221 -0.461853E-12  0.513E-06    8.29    3821.7  T
speedup  1.11
cpu  time for SCC    0.00 s
wall time for SCC    0.00 s

   *** convergence criteria satisfied after 3 iterations ***

          eigenvalues
 #    :          28         29         30         31         32         33         34         35
 occ. :        2.000      2.000      2.000      2.000      2.000      2.000      2.000      2.000
 eps  :       -13.767    -13.749    -13.047    -12.837    -12.716    -12.451    -12.440    -12.388
 #    :          36         37         38         39         40         41         42         43
 occ. :        2.000      2.000      2.000      2.000      2.000      0.000      0.000      0.000
 eps  :       -12.258    -12.171    -12.125    -11.968    -11.141     -2.854     -1.035     -0.246
 #    :          44         45         46         47         48         49         50         51
 occ. :        0.000      0.000      0.000      0.000      0.000      0.000      0.000      0.000
 eps  :         0.468      1.004      1.179      1.821      2.662      3.750      4.055      5.463


   #   Z            q   n(s)   n(p)   n(d)      C6AA      α(0)
   1  16 S      1.732  1.576  1.758  0.934    88.052    15.793
   2   8 O     -0.723  1.763  4.960  0.000    29.349     7.263
   3   8 O     -0.709  1.761  4.948  0.000    28.957     7.215
   4   8 O     -0.656  1.762  4.894  0.000    26.549     6.955
   5   8 O     -0.621  1.752  4.869  0.000    25.660     6.838
   6   1 H      0.400  0.600  0.000  0.000     0.482     1.088
   7   1 H      0.393  0.607  0.000  0.000     0.491     1.098
   8   8 O     -0.610  1.764  4.846  0.000    25.392     6.803
   9   1 H      0.340  0.660  0.000  0.000     0.613     1.230
  10   1 H      0.338  0.662  0.000  0.000     0.616     1.233
  11   8 O     -0.608  1.750  4.858  0.000    25.376     6.799
  12   1 H      0.298  0.702  0.000  0.000     0.728     1.340
  13   1 H      0.320  0.680  0.000  0.000     0.665     1.281
  14   8 O     -0.606  1.745  4.861  0.000    25.326     6.792
  15   1 H      0.293  0.707  0.000  0.000     0.742     1.353
  16   1 H      0.324  0.676  0.000  0.000     0.652     1.269
  17   8 O     -0.612  1.743  4.868  0.000    25.469     6.811
  18   1 H      0.326  0.674  0.000  0.000     0.647     1.263
  19   1 H      0.291  0.709  0.000  0.000     0.750     1.360
  20   8 O     -0.603  1.761  4.843  0.000    25.247     6.782
  21   1 H      0.300  0.700  0.000  0.000     0.721     1.334
  22   1 H      0.352  0.648  0.000  0.000     0.584     1.201
  23   7 N     -0.461  1.375  4.086  0.000    32.129     8.418
  24   1 H      0.180  0.820  0.000  0.000     1.211     1.724
  25   1 H      0.158  0.842  0.000  0.000     1.346     1.817
  26   1 H      0.162  0.838  0.000  0.000     1.321     1.800

 Mol. C6AA /au·bohr⁶  :       5461.639018
 Mol. C8AA /au·bohr⁸  :     117835.459680
 Mol. α(0) /au        :        106.861742

 
 Wiberg/Mayer (AO) data. WBOs > 0.1 written file <wbo>
 largest (>0.05) Wiberg bond orders for each atom
           total WBO             WBO to atom ...
     1  S   4.811    O    3 1.370    O    2 1.341    O    5 1.040    O    4 1.011
     2  O   1.746    S    1 1.341    O    3 0.120    O    4 0.091    O    5 0.073
     3  O   1.752    S    1 1.370    O    2 0.120    O    4 0.094    O    5 0.086    H   18 0.057
     4  O   1.930    S    1 1.011    H    7 0.598    O    3 0.094    O    2 0.091    O    8 0.066    O    5 0.057
     5  O   1.971    S    1 1.040    H    6 0.643    O    3 0.086    O    2 0.073    O    4 0.057    O   20 0.052
     6  H   0.840    O    5 0.643    O   20 0.179
     7  H   0.845    O    4 0.598    O    8 0.229
     8  O   2.004    H   10 0.817    H    9 0.816    H    7 0.229    O    4 0.066
     9  H   0.884    O    8 0.816    O   14 0.066
    10  H   0.885    O    8 0.817    O   17 0.067
    11  O   1.915    H   12 0.906    H   13 0.806    H   22 0.108
    12  H   0.911    O   11 0.906
    13  H   0.898    O   11 0.806    N   23 0.090
    14  O   1.878    H   15 0.912    H   16 0.842    H    9 0.066
    15  H   0.914    O   14 0.912
    16  H   0.895    O   14 0.842
    17  O   1.872    H   19 0.912    H   18 0.833    H   10 0.067
    18  H   0.893    O   17 0.833    O    3 0.057
    19  H   0.916    O   17 0.912
    20  O   1.965    H   21 0.908    H   22 0.767    H    6 0.179    O    5 0.052
    21  H   0.910    O   20 0.908
    22  H   0.876    O   20 0.767    O   11 0.108
    23  N   3.032    H   25 0.973    H   26 0.971    H   24 0.937    H   13 0.090
    24  H   0.967    N   23 0.937
    25  H   0.975    N   23 0.973
    26  H   0.974    N   23 0.971
 MOs/occ written to file <molden.input>
 
molecular dipole:
                 x           y           z       tot (Debye)
 q only:       -0.346       0.557      -0.132
   full:        0.291       0.431      -0.245       1.462
molecular quadrupole (traceless):
                xx          xy          yy          xz          yz          zz
 q only:       -8.972       4.175       7.394      -2.943      -3.520       1.578
  q+dip:      -10.560       4.504       5.666      -4.576      -4.944       4.895
   full:      -10.630       5.046       6.120      -4.540      -5.076       4.510

SCC energy    :     -50.7362221
rep           :       0.2834119
ES            :       0.2312705
AES           :      -0.0564981
AXC           :      -0.0072991
disp          :      -0.0191492
XB            :       0.0000000
fix           :       0.0000000
total E       :     -50.4525636
atomizationE  :       4.9828678     3126.80
(atE without considering molecular charge,
 total energy contains solvation terms)
H-L gap (eV)  :          8.2867
optimized geometry written to: xtbopt.xyz


------------------------------------------------------------------------
 * finished run on 2019/09/16 at 12:11:44.336     
------------------------------------------------------------------------
 total:
 * wall-time:     0 d,  0 h,  0 min,  3.005 sec
 *  cpu-time:     0 d,  0 h,  0 min,  2.972 sec
 * ratio c/w:     0.989 speedup
 SCF:
 * wall-time:     0 d,  0 h,  0 min,  0.146 sec
 *  cpu-time:     0 d,  0 h,  0 min,  0.143 sec
 * ratio c/w:     0.979 speedup
 ANC optimizer:
 * wall-time:     0 d,  0 h,  0 min,  2.834 sec
 *  cpu-time:     0 d,  0 h,  0 min,  2.806 sec
 * ratio c/w:     0.990 speedup

