      -----------------------------------------------------------      
     |                   =====================                   |     
     |                           x T B                           |     
     |                   =====================                   |     
     |                         S. Grimme                         |     
     |          Mulliken Center for Theoretical Chemistry        |     
     |                    University of Bonn                     |     
     |                 Version 6.0.1 (SAW181210)                 |     
      -----------------------------------------------------------      

   This program is distributed in the hope that it will be useful,
   but WITHOUT ANY WARRANTY; without even the implied warranty of
   MERCHANTABILITY or FITNESS FOR A PARTICULAR PURPOSE.
   
   FOR NON-COMMERCIAL, ACADEMIA USE ONLY.
   
   Cite this work as:
   S. Grimme, C. Bannwarth, P. Shushkov, J. Comput. Theory Chem., 2017,
   13, 1989-2009.
   C. Bannwarth, S. Ehlert and S. Grimme., ChemRxiv, 2018, preprint.
   http://doi.org/10.26434/chemrxiv.7246238.v1
   
   for sTDA-xTB:
   S. Grimme and C. Bannwarth, J. Chem. Phys., 2016, 145, 054103.
   
   in the mass-spec context:
   V. Asgeirsson, C. Bauer and S. Grimme, Chem. Sci., 2017, 8, 4879.
   
   if GBSA is used:
   P. Shushkov, F. März and S. Grimme, unpublished.
   
   for ANC optimizer:
   S. Grimme, unpublished.
   Rational Function algorithm used in ANCopt:
   F. Eckert, P. Pulay, H.-J. Werner, J. Comput. Chem., 1997, 18, 1473.
   
   with help from (in alphabetical order)
   C. Bannwarth, F. Bohle, G. Brandenburg, E. Caldeweyher, M. Checinski,
   S. Dohm, S. Ehlert, S. Ehrlich, F. März, H. Neugebauer, J. Pisarek,
   P. Pracht, P. Shushkov, and S. Spicher.
   
 * started run on 2019/09/16 at 12:28:24.185     
========================================================================
 # omp threads = 1
========================================================================
number of atoms            : 26
number of electrons        : 80
charge                     : 0
spin                       : .0
first test random number   : .2865

########################################################################
# WARNING! Please study the warnings concerning your input carefully
#  - XTBPATH is not set, using XTBHOME instead
#  - the use of '-opt' is discouraged, please use '--opt' next time
#  - the use of '-chrg' is discouraged, please use '--chrg' next time
#  - the use of '-uhf' is discouraged, please use '--uhf' next time
########################################################################

           ------------------------------------------------- 
          |                 G F N 2 - x T B                 |
          | Geometry, Frequencies, Noncovalent interactions |
          |            JCTC 2018 parametrisation            |
           ------------------------------------------------- 
      method parameters     
 k(s)        :  1.8500
 k(p)        :  2.2300
 k(d)        :  2.2300
 k(f)        :  2.0000
 kEN (H0ij)  : -2.0000
 D4 a1       :  0.5200
 D4 a2       :  5.0000
 D4 s6       :  1.0000
 D4 s8       :  2.7000
 D4 s9       :  5.0000
 alphaj      :  2.0000


            Z     q(EN)     CN     RAES       Cart. coordinates
     1  S   6.0    0.61    4.51    4.57    -0.00275    -1.70276    -1.43624
     2  O   6.0   -0.33    1.25    1.80    -1.27628     0.59112    -2.45818
     3  O   6.0   -0.31    1.20    1.80    -1.37666    -2.59786     0.85270
     4  O   6.0   -0.28    2.11    1.84     2.61816    -1.08232    -0.75919
     5  O   6.0   -0.26    2.10    1.84    -0.01246    -3.70281    -3.36295
     6  H   1.0    0.14    1.29    1.49     1.69509    -4.16914    -3.76034
     7  H   1.0    0.17    1.29    1.49     2.62541     0.22418     0.49943
     8  O   6.0   -0.29    2.02    1.83    -0.20653     2.03352     6.86167
     9  H   1.0    0.15    0.97    1.43    -0.74168     2.53059     8.52935
    10  H   1.0    0.17    1.04    1.43    -1.27986     0.63446     6.40864
    11  O   6.0   -0.28    2.00    1.83    -0.84520     5.42073    -0.67127
    12  H   1.0    0.15    0.97    1.43    -2.03982     6.45538    -1.57516
    13  H   1.0    0.17    1.04    1.43    -1.05988     3.74118    -1.34034
    14  O   6.0   -0.29    2.06    1.83     2.09864     2.69055     2.43176
    15  H   1.0    0.17    1.04    1.43     1.44782     2.60084     4.12971
    16  H   1.0    0.16    1.02    1.43     1.20897     4.07187     1.64751
    17  O   6.0   -0.29    2.02    1.83    -3.16640    -1.80277     5.50391
    18  H   1.0    0.15    0.97    1.43    -4.64052    -2.86430     5.62523
    19  H   1.0    0.18    1.04    1.43    -2.50134    -2.09144     3.83389
    20  O   6.0   -0.27    1.94    1.82    -4.67902     3.94070    -4.30028
    21  H   1.0    0.15    0.97    1.43    -6.30688     3.20123    -3.95692
    22  H   1.0    0.17    1.03    1.43    -3.46413     2.66499    -3.84072
    23  N   5.0   -0.22    3.01    1.93     4.96328    -5.02813    -4.55372
    24  H   1.0    0.11    0.99    1.43     6.38301    -4.10173    -3.63873
    25  H   1.0    0.10    0.99    1.43     5.28654    -4.75512    -6.43309
    26  H   1.0    0.10    0.99    1.43     5.27248    -6.90295    -4.23667

  Z AO/shell   Hii/eV     exponent
  1     Wed Apr 25 08:07:45 CEST 2018   EN: 2.200 GM2: 0.406  GM3: 0.0800  RAES: 1.40
     1s    -10.707211    1.230000
  7     Wed Apr 25 08:07:45 CEST 2018   EN: 3.040 GM2: 0.461  GM3:-0.0640  RAES: 1.90
     2s    -16.686243    2.339881
     2p    -12.523956    2.014332
  8     Wed Apr 25 08:07:45 CEST 2018   EN: 3.440 GM2: 0.452  GM3:-0.0517  RAES: 1.80
     2s    -20.229985    2.439742
     2p    -15.503117    2.137023
 16     Tue Apr 24 11:44:34 CEST 2018   EN: 2.580 GM2: 0.340  GM3:-0.0502  RAES: 3.10
     3s    -20.029654    1.981333
     3p    -11.377694    2.025643
     3d     -0.420282    1.702555
 no old-style atom pair restraining (fixing) potential

molecular fragmentation (1/2 indicates fragments):
11111112222222222222222222
# atoms in fragment 1/2:     7    19
 fragment masses (1/2) :       98.07      107.11
CMA distance (Bohr)    :   3.786
constraining FC (au)   :  0.0500
           ------------------------------------------------- 
          |        Self-Consistent Charge Iterations        |
           ------------------------------------------------- 

 Ncao       : 65
 Nao        : 64
 Nshell     : 38
 Nel        : 80
 T(el)      :   300.0
 intcut     :    25.0
 scfconv/Eh :  0.100E-05
   qconv/e  :  0.100E-03
 intneglect :  0.100E-07
 broydamp   :      0.250
 iter      E             dE          RMSdq      gap      omega  full diag
   1    -50.6191672 -0.506192E+02  0.702E+00   10.07       0.0  T
   2    -50.6768375 -0.576702E-01  0.503E+00    9.73       1.0  T
   3    -50.7173763 -0.405388E-01  0.141E+00    7.87       1.0  T
   4    -50.7237959 -0.641966E-02  0.580E-01    8.16       1.0  T
   5    -50.7244606 -0.664678E-03  0.351E-01    8.10       1.0  T
   6    -50.7250861 -0.625459E-03  0.160E-01    8.18       1.0  T
   7    -50.7252522 -0.166190E-03  0.581E-02    8.17       1.0  T
   8    -50.7252689 -0.166835E-04  0.376E-02    8.16       1.0  T
   9    -50.7252783 -0.932252E-05  0.144E-02    8.18       1.4  T
  10    -50.7252797 -0.142884E-05  0.263E-03    8.18       7.4  T
  11    -50.7252797 -0.214133E-07  0.134E-03    8.18      14.6  T
  12    -50.7252797 -0.681251E-08  0.536E-04    8.18      36.6  T
  13    -50.7252797 -0.154775E-08  0.153E-04    8.18     128.1  T
speedup  1.00
cpu  time for SCC    0.01 s
wall time for SCC    0.01 s

   *** convergence criteria satisfied after 13 iterations ***

          eigenvalues
 #    :          28         29         30         31         32         33         34         35
 occ. :        2.000      2.000      2.000      2.000      2.000      2.000      2.000      2.000
 eps  :       -12.933    -12.703    -12.604    -12.508    -12.416    -12.197    -12.114    -11.898
 #    :          36         37         38         39         40         41         42         43
 occ. :        2.000      2.000      2.000      2.000      2.000      0.000      0.000      0.000
 eps  :       -11.594    -11.441    -11.295    -11.137    -11.058     -2.877     -1.451     -0.421
 #    :          44         45         46         47         48         49         50         51
 occ. :        0.000      0.000      0.000      0.000      0.000      0.000      0.000      0.000
 eps  :         0.309      0.355      1.393      2.395      3.454      4.100      4.138      4.381


   #   Z            q   n(s)   n(p)   n(d)      C6AA      α(0)
   1  16 S      1.714  1.574  1.772  0.940    88.452    15.829
   2   8 O     -0.730  1.770  4.960  0.000    29.528     7.286
   3   8 O     -0.720  1.770  4.950  0.000    29.253     7.252
   4   8 O     -0.582  1.717  4.865  0.000    24.719     6.712
   5   8 O     -0.547  1.712  4.835  0.000    23.915     6.602
   6   1 H      0.390  0.610  0.000  0.000     0.495     1.101
   7   1 H      0.425  0.575  0.000  0.000     0.434     1.031
   8   8 O     -0.613  1.741  4.873  0.000    25.501     6.816
   9   1 H      0.279  0.721  0.000  0.000     0.788     1.394
  10   1 H      0.333  0.667  0.000  0.000     0.628     1.245
  11   8 O     -0.623  1.739  4.884  0.000    25.751     6.849
  12   1 H      0.298  0.702  0.000  0.000     0.726     1.339
  13   1 H      0.316  0.684  0.000  0.000     0.674     1.290
  14   8 O     -0.655  1.747  4.907  0.000    26.531     6.952
  15   1 H      0.338  0.662  0.000  0.000     0.616     1.233
  16   1 H      0.332  0.668  0.000  0.000     0.633     1.250
  17   8 O     -0.609  1.734  4.875  0.000    25.414     6.804
  18   1 H      0.283  0.717  0.000  0.000     0.776     1.383
  19   1 H      0.329  0.671  0.000  0.000     0.640     1.256
  20   8 O     -0.600  1.740  4.860  0.000    25.193     6.774
  21   1 H      0.271  0.729  0.000  0.000     0.814     1.417
  22   1 H      0.315  0.685  0.000  0.000     0.679     1.294
  23   7 N     -0.450  1.393  4.057  0.000    31.812     8.377
  24   1 H      0.172  0.828  0.000  0.000     1.260     1.759
  25   1 H      0.167  0.833  0.000  0.000     1.294     1.782
  26   1 H      0.166  0.834  0.000  0.000     1.299     1.786

 Mol. C6AA /au·bohr⁶  :       5453.581651
 Mol. C8AA /au·bohr⁸  :     117624.273476
 Mol. α(0) /au        :        106.810766

 
 Wiberg/Mayer (AO) data. WBOs > 0.1 written file <wbo>
 largest (>0.05) Wiberg bond orders for each atom
           total WBO             WBO to atom ...
     1  S   4.812    O    3 1.337    O    2 1.308    O    5 1.064    O    4 1.051
     2  O   1.697    S    1 1.308    O    3 0.130    O    4 0.087    O    5 0.076
     3  O   1.697    S    1 1.337    O    2 0.130    O    4 0.090    O    5 0.078
     4  O   2.025    S    1 1.051    H    7 0.710    O    3 0.090    O    2 0.087
     5  O   2.059    S    1 1.064    H    6 0.751    O    3 0.078    O    2 0.076
     6  H   0.847    O    5 0.751    N   23 0.076
     7  H   0.819    O    4 0.710    O   14 0.087
     8  O   1.836    H    9 0.911    H   10 0.844
     9  H   0.922    O    8 0.911
    10  H   0.889    O    8 0.844
    11  O   1.823    H   12 0.895    H   13 0.857
    12  H   0.911    O   11 0.895
    13  H   0.900    O   11 0.857
    14  O   1.856    H   16 0.855    H   15 0.838    H    7 0.087
    15  H   0.886    O   14 0.838
    16  H   0.890    O   14 0.855
    17  O   1.838    H   18 0.907    H   19 0.848
    18  H   0.920    O   17 0.907
    19  H   0.892    O   17 0.848
    20  O   1.824    H   21 0.925    H   22 0.864
    21  H   0.926    O   20 0.925
    22  H   0.901    O   20 0.864
    23  N   3.017    H   26 0.971    H   25 0.971    H   24 0.968    H    6 0.076
    24  H   0.970    N   23 0.968
    25  H   0.972    N   23 0.971
    26  H   0.973    N   23 0.971
 MOs/occ written to file <molden.input>
 
molecular dipole:
                 x           y           z       tot (Debye)
 q only:        1.196      -1.929      -0.626
   full:        1.350      -2.631      -0.913       7.867
molecular quadrupole (traceless):
                xx          xy          yy          xz          yz          zz
 q only:        4.950      -8.046      -4.332     -14.556      12.538      -0.618
  q+dip:        8.432     -12.334      -7.118     -21.063      15.558      -1.315
   full:        8.359     -12.110      -7.028     -20.950      16.053      -1.331

SCC energy    :     -50.7252797
rep           :       0.3158393
ES            :       0.2455709
AES           :      -0.0501707
AXC           :      -0.0068092
disp          :      -0.0156766
XB            :       0.0000000
fix           :       0.0000000
total E       :     -50.4092591
atomizationE  :       4.9395633     3099.62
(atE without considering molecular charge,
 total energy contains solvation terms)
H-L gap (eV)  :          8.1809
           ------------------------------------------------- 
          |                 ===============                 |
          |                   A N C O P T                   |
          |                 ===============                 |
          |          Approximate Normal Coordinate          |
          |           Rational Function Optimizer           |
           ------------------------------------------------- 
dumping coords to <xtbopt.coord> and <xtbopt.log>
 optlevel               2
 Maxcycle             520
 Maxmicro              25
 Econv         1.000000000000000E-007
 Gconv         2.000000000000000E-004
 Maxdispl       1.00000000000000     
 Hlow          5.000000000000000E-003
 S6             20.0000000000000     
 Nvar               72

generating ANC from model Hessian ...
 Shifting diagonal of input Hessian by   5.499889578892629E-003
 Lowest  eigenvalues of input Hessian
    0.005000    0.005323    0.005376    0.005447   -0.000000   -0.000000
   -0.000000   -0.000000    0.000000    0.000000    0.005636    0.005713
    0.005793    0.006002    0.006101    0.006491    0.006541    0.006624
 Highest eigenvalues
    1.434358    1.455156    1.557268    3.218451    3.413647    3.464970
 
cpu  time for ANC gen    0.01 s
wall time for ANC gen    0.01 s
................................................................................
.............................. CYCLE    1 ......................................
................................................................................
   1    -50.7252797 -0.507253E+02  0.700E-05    8.18       0.0  T
   2    -50.7252797 -0.120437E-10  0.545E-05    8.18     359.9  T
   3    -50.7252797 -0.105658E-10  0.312E-05    8.18     628.5  T
speedup  1.07
cpu  time for SCC    0.00 s
wall time for SCC    0.00 s
speedup  1.02
cpu  time for grad    0.01 s
wall time for grad    0.01 s
 E :    -50.40925908  G :  0.185377    pred/act E change:  0.000D+00  0.354D-07
Maxdispl :   0.1593   ||displ|| :   0.3232   Lambda : -0.170D-01
Largest |displ|/coords:  0.1593 (  32)  0.1079 (  29)  0.0983 (  26)
................................................................................
.............................. CYCLE    2 ......................................
................................................................................
   1    -50.7293832 -0.507294E+02  0.279E-01    8.26       0.0  T
   2    -50.7295955 -0.212298E-03  0.216E-01    8.30       1.0  T
   3    -50.7296643 -0.688625E-04  0.114E-01    8.36       1.0  T
   4    -50.7296738 -0.950105E-05  0.229E-02    8.39       1.0  T
   5    -50.7296748 -0.961749E-06  0.467E-03    8.38       4.2  T
   6    -50.7296748 -0.240726E-07  0.265E-03    8.38       7.4  T
speedup  0.96
cpu  time for SCC    0.01 s
wall time for SCC    0.01 s
speedup  0.98
cpu  time for grad    0.01 s
wall time for grad    0.01 s
 E :    -50.42303178  G :  0.119334    pred/act E change:  0.000D+00 -0.138D-01
Maxdispl :   0.1330   ||displ|| :   0.3204   Lambda : -0.101D-01
Largest |displ|/coords:  0.1330 (  26)  0.1061 (  29)  0.1003 (  28)
................................................................................
.............................. CYCLE    3 ......................................
................................................................................
   1    -50.7345141 -0.507345E+02  0.235E-01    8.36       0.0  T
   2    -50.7347611 -0.246968E-03  0.183E-01    8.40       1.0  T
   3    -50.7348325 -0.714321E-04  0.118E-01    8.44       1.0  T
   4    -50.7348389 -0.637630E-05  0.222E-02    8.47       1.0  T
   5    -50.7348396 -0.729810E-06  0.454E-03    8.47       4.3  T
   6    -50.7348396 -0.230801E-07  0.238E-03    8.47       8.2  T
speedup  1.15
cpu  time for SCC    0.01 s
wall time for SCC    0.01 s
speedup  1.05
cpu  time for grad    0.01 s
wall time for grad    0.01 s
 E :    -50.43074024  G :  0.063743    pred/act E change: -0.938D-02 -0.771D-02
Maxdispl :   0.1034   ||displ|| :   0.2734   Lambda : -0.406D-02
Largest |displ|/coords:  0.1034 (  26)  0.0939 (   6)  0.0854 (  28)
................................................................................
.............................. CYCLE    4 ......................................
................................................................................
   1    -50.7357744 -0.507358E+02  0.190E-01    8.42       0.0  T
   2    -50.7359011 -0.126686E-03  0.148E-01    8.45       1.0  T
   3    -50.7359399 -0.387727E-04  0.830E-02    8.49       1.0  T
   4    -50.7359440 -0.413044E-05  0.178E-02    8.51       1.1  T
   5    -50.7359444 -0.398517E-06  0.334E-03    8.51       5.9  T
   6    -50.7359444 -0.138520E-07  0.180E-03    8.51      10.9  T
speedup  0.94
cpu  time for SCC    0.01 s
wall time for SCC    0.01 s
speedup  0.96
cpu  time for grad    0.01 s
wall time for grad    0.01 s
 E :    -50.43361432  G :  0.029273    pred/act E change: -0.555D-02 -0.287D-02
Maxdispl :   0.1590   ||displ|| :   0.3834   Lambda : -0.262D-02
Largest |displ|/coords:  0.1590 (   5)  0.1472 (   6)  0.1391 (  15)
................................................................................
.............................. CYCLE    5 ......................................
................................................................................
   1    -50.7339963 -0.507340E+02  0.341E-01    8.37       0.0  T
   2    -50.7341215 -0.125197E-03  0.262E-01    8.39       1.0  T
   3    -50.7341548 -0.332809E-04  0.791E-02    8.44       1.0  T
   4    -50.7341737 -0.188995E-04  0.218E-02    8.44       1.0  T
   5    -50.7341743 -0.625711E-06  0.379E-03    8.44       5.2  T
   6    -50.7341743 -0.137778E-07  0.216E-03    8.44       9.1  T
speedup  0.96
cpu  time for SCC    0.00 s
wall time for SCC    0.01 s
speedup  0.97
cpu  time for grad    0.01 s
wall time for grad    0.01 s
 E :    -50.43464094  G :  0.021290    pred/act E change: -0.218D-02 -0.103D-02
Maxdispl :   0.2009   ||displ|| :   0.4055   Lambda : -0.217D-02
Largest |displ|/coords:  0.2009 (   5)  0.1532 (   6)  0.1160 (   1)
................................................................................
.............................. CYCLE    6 ......................................
................................................................................
   1    -50.7330791 -0.507331E+02  0.443E-01    8.33       0.0  T
   2    -50.7331231 -0.440017E-04  0.338E-01    8.35       1.0  T
   3    -50.7331572 -0.341510E-04  0.345E-02    8.39       1.0  T
   4    -50.7331636 -0.643091E-05  0.165E-02    8.38       1.2  T
   5    -50.7331639 -0.280426E-06  0.341E-03    8.38       5.8  T
   6    -50.7331639 -0.525647E-08  0.195E-03    8.38      10.1  T
speedup  0.96
cpu  time for SCC    0.00 s
wall time for SCC    0.01 s
speedup  0.98
cpu  time for grad    0.01 s
wall time for grad    0.01 s
 E :    -50.43512330  G :  0.028676    pred/act E change: -0.150D-02 -0.482D-03
Maxdispl :   0.0675   ||displ|| :   0.1533   Lambda : -0.932D-03
Largest |displ|/coords:  0.0675 (   7)  0.0614 (  16)  0.0489 (   5)
................................................................................
.............................. CYCLE    7 ......................................
................................................................................
   1    -50.7332181 -0.507332E+02  0.167E-01    8.39       0.0  T
   2    -50.7332331 -0.150893E-04  0.127E-01    8.38       1.0  T
   3    -50.7332380 -0.489243E-05  0.256E-02    8.37       1.0  T
   4    -50.7332410 -0.295897E-05  0.697E-03    8.37       2.8  T
   5    -50.7332411 -0.634947E-07  0.164E-03    8.37      11.9  T
   6    -50.7332411 -0.106073E-08  0.844E-04    8.37      23.2  T
speedup  0.96
cpu  time for SCC    0.00 s
wall time for SCC    0.01 s
speedup  0.97
cpu  time for grad    0.01 s
wall time for grad    0.01 s
 E :    -50.43576088  G :  0.015332    pred/act E change: -0.126D-02 -0.638D-03
Maxdispl :   0.2128   ||displ|| :   0.3223   Lambda : -0.864D-03
Largest |displ|/coords:  0.2128 (   5)  0.1272 (   6)  0.1124 (  14)
................................................................................
.............................. CYCLE    8 ......................................
................................................................................
   1    -50.7336941 -0.507337E+02  0.193E-01    8.36       0.0  T
   2    -50.7337069 -0.127819E-04  0.147E-01    8.36       1.0  T
   3    -50.7337141 -0.712553E-05  0.220E-02    8.36       1.0  T
   4    -50.7337163 -0.227486E-05  0.711E-03    8.36       2.8  T
   5    -50.7337164 -0.500446E-07  0.193E-03    8.36      10.2  T
   6    -50.7337164 -0.134563E-08  0.910E-04    8.36      21.6  T
speedup  1.09
cpu  time for SCC    0.01 s
wall time for SCC    0.01 s
speedup  1.02
cpu  time for grad    0.01 s
wall time for grad    0.01 s
 E :    -50.43620698  G :  0.009386    pred/act E change: -0.477D-03 -0.446D-03
Maxdispl :   0.2543   ||displ|| :   0.4494   Lambda : -0.760D-03
Largest |displ|/coords:  0.2543 (   5)  0.2009 (  12)  0.1809 (   6)
................................................................................
.............................. CYCLE    9 ......................................
................................................................................
   1    -50.7261152 -0.507261E+02  0.343E-01    8.35       0.0  T
   2    -50.7261479 -0.327289E-04  0.258E-01    8.35       1.0  T
   3    -50.7261756 -0.276877E-04  0.315E-02    8.35       1.0  T
   4    -50.7261793 -0.376919E-05  0.101E-02    8.35       1.9  T
   5    -50.7261795 -0.122319E-06  0.386E-03    8.35       5.1  T
   6    -50.7261795 -0.143978E-07  0.190E-03    8.35      10.3  T
   7    -50.7261795 -0.835394E-08  0.454E-04    8.35      43.2  T
speedup  1.15
cpu  time for SCC    0.01 s
wall time for SCC    0.01 s
speedup  1.04
cpu  time for grad    0.01 s
wall time for grad    0.01 s
 E :    -50.43619412  G :  0.031470    pred/act E change: -0.477D-03  0.129D-04
Maxdispl :   0.1071   ||displ|| :   0.2619   Lambda : -0.149D-02
Largest |displ|/coords:  0.1071 (   8)  0.0998 (   6)  0.0984 (  12)
................................................................................
.............................. CYCLE   10 ......................................
................................................................................
   1    -50.7300292 -0.507300E+02  0.254E-01    8.35       0.0  T
   2    -50.7300572 -0.280167E-04  0.191E-01    8.36       1.0  T
   3    -50.7300750 -0.178016E-04  0.302E-02    8.37       1.0  T
   4    -50.7300790 -0.404216E-05  0.977E-03    8.37       2.0  T
   5    -50.7300792 -0.179931E-06  0.330E-03    8.37       5.9  T
   6    -50.7300792 -0.503780E-08  0.184E-03    8.37      10.7  T
speedup  0.96
cpu  time for SCC    0.00 s
wall time for SCC    0.01 s
speedup  0.96
cpu  time for grad    0.01 s
wall time for grad    0.01 s
 E :    -50.43672425  G :  0.016253    pred/act E change: -0.457D-03 -0.530D-03
Maxdispl :   0.0791   ||displ|| :   0.1677   Lambda : -0.659D-03
Largest |displ|/coords:  0.0791 (   7)  0.0669 (  19)  0.0633 (  16)
................................................................................
.............................. CYCLE   11 ......................................
................................................................................
   1    -50.7360111 -0.507360E+02  0.171E-01    8.41       0.0  T
   2    -50.7360191 -0.799728E-05  0.129E-01    8.41       1.0  T
   3    -50.7360243 -0.519591E-05  0.175E-02    8.42       1.1  T
   4    -50.7360255 -0.126419E-05  0.528E-03    8.42       3.7  T
   5    -50.7360256 -0.249140E-07  0.176E-03    8.42      11.2  T
   6    -50.7360256 -0.133719E-08  0.719E-04    8.42      27.3  T
speedup  0.96
cpu  time for SCC    0.00 s
wall time for SCC    0.01 s
speedup  0.96
cpu  time for grad    0.01 s
wall time for grad    0.01 s
 E :    -50.43690410  G :  0.011558    pred/act E change: -0.795D-03 -0.180D-03
Maxdispl :   0.2254   ||displ|| :   0.3466   Lambda : -0.687D-03
Largest |displ|/coords:  0.2254 (   5)  0.1015 (  19)  0.1003 (   6)
................................................................................
.............................. CYCLE   12 ......................................
................................................................................
   1    -50.7301690 -0.507302E+02  0.275E-01    8.43       0.0  T
   2    -50.7301850 -0.160272E-04  0.206E-01    8.43       1.0  T
   3    -50.7302003 -0.152830E-04  0.222E-02    8.43       1.0  T
   4    -50.7302015 -0.120546E-05  0.777E-03    8.43       2.5  T
   5    -50.7302016 -0.370088E-07  0.271E-03    8.43       7.2  T
   6    -50.7302016 -0.102001E-07  0.107E-03    8.43      18.3  T
speedup  1.13
cpu  time for SCC    0.01 s
wall time for SCC    0.01 s
speedup  1.03
cpu  time for grad    0.01 s
wall time for grad    0.01 s
 E :    -50.43718932  G :  0.014813    pred/act E change: -0.339D-03 -0.285D-03
Maxdispl :   0.1569   ||displ|| :   0.3117   Lambda : -0.597D-03
Largest |displ|/coords:  0.1569 (   5)  0.1348 (   7)  0.1224 (   6)
................................................................................
.............................. CYCLE   13 ......................................
................................................................................
   1    -50.7301350 -0.507301E+02  0.167E-01    8.47       0.0  T
   2    -50.7301424 -0.740522E-05  0.126E-01    8.47       1.0  T
   3    -50.7301469 -0.449490E-05  0.159E-02    8.47       1.2  T
   4    -50.7301481 -0.119397E-05  0.640E-03    8.47       3.1  T
   5    -50.7301482 -0.472733E-07  0.160E-03    8.47      12.2  T
   6    -50.7301482 -0.230794E-08  0.907E-04    8.47      21.6  T
speedup  0.94
cpu  time for SCC    0.01 s
wall time for SCC    0.01 s
speedup  1.02
cpu  time for grad    0.01 s
wall time for grad    0.01 s
 E :    -50.43749885  G :  0.015411    pred/act E change: -0.385D-03 -0.310D-03
Maxdispl :   0.0884   ||displ|| :   0.1842   Lambda : -0.356D-03
Largest |displ|/coords:  0.0884 (   4)  0.0860 (   5)  0.0470 (   7)
................................................................................
.............................. CYCLE   14 ......................................
................................................................................
   1    -50.7314276 -0.507314E+02  0.912E-02    8.48       0.0  T
   2    -50.7314321 -0.453434E-05  0.677E-02    8.48       1.0  T
   3    -50.7314347 -0.258215E-05  0.128E-02    8.48       1.5  T
   4    -50.7314353 -0.664507E-06  0.323E-03    8.48       6.1  T
   5    -50.7314354 -0.183312E-07  0.135E-03    8.48      14.5  T
   6    -50.7314354 -0.225782E-08  0.668E-04    8.48      29.4  T
speedup  0.96
cpu  time for SCC    0.00 s
wall time for SCC    0.01 s
speedup  1.03
cpu  time for grad    0.01 s
wall time for grad    0.01 s
 E :    -50.43774329  G :  0.008894    pred/act E change: -0.327D-03 -0.244D-03
Maxdispl :   0.2076   ||displ|| :   0.3880   Lambda : -0.543D-03
Largest |displ|/coords:  0.2076 (   5)  0.1957 (   4)  0.1178 (   3)
................................................................................
.............................. CYCLE   15 ......................................
................................................................................
   1    -50.7339649 -0.507340E+02  0.198E-01    8.50       0.0  T
   2    -50.7339793 -0.143995E-04  0.148E-01    8.51       1.0  T
   3    -50.7339889 -0.955162E-05  0.230E-02    8.53       1.0  T
   4    -50.7339908 -0.192089E-05  0.813E-03    8.53       2.4  T
   5    -50.7339908 -0.726394E-07  0.242E-03    8.53       8.1  T
   6    -50.7339909 -0.642503E-08  0.136E-03    8.53      14.4  T
speedup  0.93
cpu  time for SCC    0.00 s
wall time for SCC    0.01 s
speedup  1.02
cpu  time for grad    0.01 s
wall time for grad    0.01 s
 E :    -50.43806303  G :  0.007730    pred/act E change: -0.184D-03 -0.320D-03
Maxdispl :   0.3019   ||displ|| :   0.6038   Lambda : -0.738D-03
Largest |displ|/coords:  0.3019 (   5)  0.2859 (   4)  0.1948 (  12)
................................................................................
.............................. CYCLE   16 ......................................
................................................................................
   1    -50.7214372 -0.507214E+02  0.460E-01    8.50       0.0  T
   2    -50.7215347 -0.975441E-04  0.345E-01    8.51       1.0  T
   3    -50.7215977 -0.629564E-04  0.557E-02    8.51       1.0  T
   4    -50.7216112 -0.135300E-04  0.140E-02    8.51       1.4  T
   5    -50.7216115 -0.305027E-06  0.563E-03    8.51       3.5  T
   6    -50.7216115 -0.362728E-07  0.317E-03    8.51       6.2  T
   7    -50.7216115 -0.160160E-07  0.650E-04    8.51      30.2  T
   8    -50.7216116 -0.928800E-09  0.227E-04    8.51      86.3  T
speedup  1.01
cpu  time for SCC    0.01 s
wall time for SCC    0.01 s
speedup  0.99
cpu  time for grad    0.01 s
wall time for grad    0.01 s
 E :    -50.43668937  G :  0.051919    pred/act E change: -0.313D-03  0.137D-02
Maxdispl :   0.1948   ||displ|| :   0.3880   Lambda : -0.894D-02
Largest |displ|/coords:  0.1948 (   8)  0.1456 (  12)  0.1289 (  16)
................................................................................
.............................. CYCLE   17 ......................................
................................................................................
   1    -50.7324086 -0.507324E+02  0.609E-01    8.48       0.0  T
   2    -50.7326660 -0.257417E-03  0.457E-01    8.47       1.0  T
   3    -50.7328300 -0.164037E-03  0.928E-02    8.44       1.0  T
   4    -50.7328627 -0.326507E-04  0.191E-02    8.45       1.0  T
   5    -50.7328637 -0.102748E-05  0.845E-03    8.45       2.3  T
   6    -50.7328637 -0.390013E-07  0.429E-03    8.45       4.6  T
   7    -50.7328638 -0.294314E-07  0.661E-04    8.45      29.7  T
speedup  0.98
cpu  time for SCC    0.01 s
wall time for SCC    0.01 s
speedup  1.04
cpu  time for grad    0.01 s
wall time for grad    0.01 s
 E :    -50.43575088  G :  0.064675    pred/act E change: -0.503D-03  0.938D-03
Maxdispl :   0.1255   ||displ|| :   0.3178   Lambda : -0.692D-02
Largest |displ|/coords:  0.1255 (  19)  0.1199 (   5)  0.0981 (  20)
................................................................................
.............................. CYCLE   18 ......................................
................................................................................
   1    -50.7370917 -0.507371E+02  0.372E-01    8.50       0.0  T
   2    -50.7371907 -0.989079E-04  0.276E-01    8.51       1.0  T
   3    -50.7372426 -0.519021E-04  0.557E-02    8.55       1.0  T
   4    -50.7372542 -0.116800E-04  0.182E-02    8.54       1.1  T
   5    -50.7372549 -0.650704E-06  0.440E-03    8.54       4.5  T
   6    -50.7372549 -0.173147E-07  0.269E-03    8.54       7.3  T
speedup  0.96
cpu  time for SCC    0.01 s
wall time for SCC    0.01 s
speedup  0.96
cpu  time for grad    0.01 s
wall time for grad    0.01 s
 E :    -50.43724956  G :  0.034775    pred/act E change: -0.514D-02 -0.150D-02
Maxdispl :   0.0967   ||displ|| :   0.1734   Lambda : -0.234D-02
Largest |displ|/coords:  0.0967 (  19)  0.0746 (   5)  0.0489 (  36)
................................................................................
.............................. CYCLE   19 ......................................
................................................................................
   1    -50.7285119 -0.507285E+02  0.187E-01    8.51       0.0  T
   2    -50.7285292 -0.172942E-04  0.139E-01    8.50       1.0  T
   3    -50.7285387 -0.947944E-05  0.229E-02    8.48       1.0  T
   4    -50.7285409 -0.220007E-05  0.906E-03    8.48       2.2  T
   5    -50.7285410 -0.944598E-07  0.211E-03    8.49       9.3  T
   6    -50.7285410 -0.538878E-08  0.121E-03    8.49      16.2  T
speedup  0.96
cpu  time for SCC    0.00 s
wall time for SCC    0.01 s
speedup  0.96
cpu  time for grad    0.01 s
wall time for grad    0.01 s
 E :    -50.43836829  G :  0.013453    pred/act E change: -0.381D-02 -0.112D-02
Maxdispl :   0.0810   ||displ|| :   0.1491   Lambda : -0.373D-03
Largest |displ|/coords:  0.0810 (   4)  0.0614 (   1)  0.0477 (   6)
................................................................................
.............................. CYCLE   20 ......................................
................................................................................
   1    -50.7322316 -0.507322E+02  0.848E-02    8.49       0.0  T
   2    -50.7322360 -0.433811E-05  0.635E-02    8.48       1.0  T
   3    -50.7322383 -0.232735E-05  0.120E-02    8.47       1.6  T
   4    -50.7322390 -0.676740E-06  0.289E-03    8.48       6.8  T
   5    -50.7322390 -0.162798E-07  0.111E-03    8.48      17.7  T
speedup  1.14
cpu  time for SCC    0.01 s
wall time for SCC    0.00 s
speedup  1.02
cpu  time for grad    0.01 s
wall time for grad    0.01 s
 E :    -50.43853587  G :  0.006855    pred/act E change: -0.120D-02 -0.168D-03
Maxdispl :   0.1103   ||displ|| :   0.1950   Lambda : -0.234D-03
Largest |displ|/coords:  0.1103 (   4)  0.0653 (   3)  0.0628 (  13)
................................................................................
.............................. CYCLE   21 ......................................
................................................................................
   1    -50.7312890 -0.507313E+02  0.122E-01    8.46       0.0  T
   2    -50.7312932 -0.417200E-05  0.926E-02    8.47       1.0  T
   3    -50.7312968 -0.366979E-05  0.110E-02    8.48       1.8  T
   4    -50.7312974 -0.527324E-06  0.439E-03    8.47       4.5  T
   5    -50.7312974 -0.220732E-07  0.124E-03    8.47      15.8  T
   6    -50.7312974 -0.164629E-08  0.728E-04    8.47      26.9  T
speedup  1.15
cpu  time for SCC    0.01 s
wall time for SCC    0.01 s
speedup  1.03
cpu  time for grad    0.01 s
wall time for grad    0.01 s
 E :    -50.43872105  G :  0.007352    pred/act E change: -0.191D-03 -0.185D-03
Maxdispl :   0.2526   ||displ|| :   0.5002   Lambda : -0.539D-03
Largest |displ|/coords:  0.2526 (   4)  0.1823 (   7)  0.1339 (   3)
................................................................................
.............................. CYCLE   22 ......................................
................................................................................
   1    -50.7271559 -0.507272E+02  0.274E-01    8.44       0.0  T
   2    -50.7271799 -0.239591E-04  0.207E-01    8.44       1.0  T
   3    -50.7271983 -0.183665E-04  0.279E-02    8.46       1.0  T
   4    -50.7272015 -0.325514E-05  0.107E-02    8.45       1.8  T
   5    -50.7272017 -0.161442E-06  0.303E-03    8.45       6.5  T
   6    -50.7272017 -0.762172E-08  0.182E-03    8.45      10.8  T
   7    -50.7272017 -0.708943E-08  0.421E-04    8.45      46.6  T
speedup  0.97
cpu  time for SCC    0.01 s
wall time for SCC    0.01 s
speedup  1.04
cpu  time for grad    0.01 s
wall time for grad    0.01 s
 E :    -50.43901822  G :  0.016786    pred/act E change: -0.122D-03 -0.297D-03
Maxdispl :   0.1409   ||displ|| :   0.3069   Lambda : -0.497D-03
Largest |displ|/coords:  0.1409 (   7)  0.1157 (   4)  0.1054 (  13)
................................................................................
.............................. CYCLE   23 ......................................
................................................................................
   1    -50.7280177 -0.507280E+02  0.149E-01    8.43       0.0  T
   2    -50.7280241 -0.643109E-05  0.112E-01    8.43       1.0  T
   3    -50.7280288 -0.474780E-05  0.163E-02    8.44       1.2  T
   4    -50.7280297 -0.859614E-06  0.570E-03    8.44       3.4  T
   5    -50.7280298 -0.464659E-07  0.171E-03    8.44      11.5  T
   6    -50.7280298 -0.257035E-08  0.982E-04    8.44      20.0  T
speedup  0.96
cpu  time for SCC    0.00 s
wall time for SCC    0.01 s
speedup  1.03
cpu  time for grad    0.01 s
wall time for grad    0.01 s
 E :    -50.43930879  G :  0.013800    pred/act E change: -0.337D-03 -0.291D-03
Maxdispl :   0.1615   ||displ|| :   0.3912   Lambda : -0.718D-03
Largest |displ|/coords:  0.1615 (   4)  0.1228 (  13)  0.1225 (   1)
................................................................................
.............................. CYCLE   24 ......................................
................................................................................
   1    -50.7271585 -0.507272E+02  0.231E-01    8.45       0.0  T
   2    -50.7271714 -0.128721E-04  0.175E-01    8.45       1.0  T
   3    -50.7271835 -0.121551E-04  0.205E-02    8.44       1.0  T
   4    -50.7271851 -0.155683E-05  0.685E-03    8.44       2.9  T
   5    -50.7271852 -0.609095E-07  0.259E-03    8.45       7.6  T
   6    -50.7271852 -0.747026E-08  0.132E-03    8.45      14.9  T
speedup  0.96
cpu  time for SCC    0.00 s
wall time for SCC    0.01 s
speedup  0.95
cpu  time for grad    0.01 s
wall time for grad    0.01 s
 E :    -50.43976145  G :  0.014853    pred/act E change: -0.272D-03 -0.453D-03
Maxdispl :   0.1743   ||displ|| :   0.3580   Lambda : -0.771D-03
Largest |displ|/coords:  0.1743 (   1)  0.1114 (   7)  0.1022 (  22)
................................................................................
.............................. CYCLE   25 ......................................
................................................................................
   1    -50.7324337 -0.507324E+02  0.145E-01    8.60       0.0  T
   2    -50.7324429 -0.927616E-05  0.108E-01    8.59       1.0  T
   3    -50.7324496 -0.663032E-05  0.212E-02    8.58       1.0  T
   4    -50.7324508 -0.118063E-05  0.667E-03    8.59       2.9  T
   5    -50.7324508 -0.864933E-07  0.201E-03    8.59       9.7  T
   6    -50.7324508 -0.417221E-08  0.121E-03    8.59      16.3  T
speedup  0.98
cpu  time for SCC    0.01 s
wall time for SCC    0.01 s
speedup  0.96
cpu  time for grad    0.01 s
wall time for grad    0.01 s
 E :    -50.44011640  G :  0.015510    pred/act E change: -0.414D-03 -0.355D-03
Maxdispl :   0.2348   ||displ|| :   0.5802   Lambda : -0.870D-03
Largest |displ|/coords:  0.2348 (   1)  0.2321 (   4)  0.1825 (   7)

generating ANC from model Hessian ...
 Shifting diagonal of input Hessian by   5.335145864615224E-003
 Lowest  eigenvalues of input Hessian
    0.005000    0.005134    0.005309   -0.000000   -0.000000   -0.000000
    0.000000    0.000000    0.000000    0.005525    0.005836    0.005919
    0.006010    0.006193    0.006711    0.006760    0.007114    0.008571
 Highest eigenvalues
    1.379943    1.381144    1.418455    2.744100    3.276794    3.637052
 
cpu  time for ANC gen    0.01 s
wall time for ANC gen    0.01 s
................................................................................
.............................. CYCLE   26 ......................................
................................................................................
   1    -50.7213531 -0.507214E+02  0.325E-01    8.52       0.0  T
   2    -50.7213919 -0.388194E-04  0.246E-01    8.53       1.0  T
   3    -50.7214246 -0.327348E-04  0.336E-02    8.55       1.0  T
   4    -50.7214296 -0.501549E-05  0.104E-02    8.55       1.9  T
   5    -50.7214299 -0.216656E-06  0.428E-03    8.54       4.6  T
   6    -50.7214299 -0.171998E-07  0.241E-03    8.54       8.1  T
   7    -50.7214299 -0.125306E-07  0.499E-04    8.54      39.3  T
   8    -50.7214299 -0.499682E-09  0.198E-04    8.54      98.8  T
speedup  1.01
cpu  time for SCC    0.01 s
wall time for SCC    0.01 s
speedup  1.01
cpu  time for grad    0.01 s
wall time for grad    0.01 s
 E :    -50.44046711  G :  0.022802    pred/act E change:  0.000D+00 -0.351D-03
Maxdispl :   0.1196   ||displ|| :   0.2305   Lambda : -0.118D-02
Largest |displ|/coords:  0.1196 (  10)  0.0860 (  12)  0.0753 (  11)
................................................................................
.............................. CYCLE   27 ......................................
................................................................................
   1    -50.7254000 -0.507254E+02  0.219E-01    8.57       0.0  T
   2    -50.7254095 -0.944124E-05  0.167E-01    8.58       1.0  T
   3    -50.7254203 -0.108289E-04  0.138E-02    8.58       1.4  T
   4    -50.7254210 -0.710973E-06  0.427E-03    8.58       4.6  T
   5    -50.7254210 -0.126066E-07  0.213E-03    8.58       9.2  T
speedup  1.14
cpu  time for SCC    0.01 s
wall time for SCC    0.00 s
speedup  1.03
cpu  time for grad    0.01 s
wall time for grad    0.01 s
 E :    -50.44116738  G :  0.011867    pred/act E change:  0.000D+00 -0.700D-03
Maxdispl :   0.1516   ||displ|| :   0.3252   Lambda : -0.907D-03
Largest |displ|/coords:  0.1516 (  10)  0.1377 (   6)  0.1129 (   1)
................................................................................
.............................. CYCLE   28 ......................................
................................................................................
   1    -50.7287845 -0.507288E+02  0.267E-01    8.64       0.0  T
   2    -50.7287946 -0.101407E-04  0.201E-01    8.64       1.0  T
   3    -50.7288049 -0.102411E-04  0.158E-02    8.65       1.2  T
   4    -50.7288059 -0.103134E-05  0.649E-03    8.65       3.0  T
   5    -50.7288060 -0.452178E-07  0.264E-03    8.65       7.4  T
   6    -50.7288060 -0.677156E-08  0.120E-03    8.65      16.4  T
speedup  0.96
cpu  time for SCC    0.01 s
wall time for SCC    0.01 s
speedup  1.02
cpu  time for grad    0.01 s
wall time for grad    0.01 s
 E :    -50.44168986  G :  0.010165    pred/act E change: -0.621D-03 -0.522D-03
Maxdispl :   0.1701   ||displ|| :   0.3534   Lambda : -0.736D-03
Largest |displ|/coords:  0.1701 (   2)  0.1655 (  10)  0.1202 (  15)
................................................................................
.............................. CYCLE   29 ......................................
................................................................................
   1    -50.7298924 -0.507299E+02  0.261E-01    8.69       0.0  T
   2    -50.7299040 -0.116419E-04  0.197E-01    8.69       1.0  T
   3    -50.7299142 -0.101732E-04  0.174E-02    8.68       1.1  T
   4    -50.7299156 -0.143155E-05  0.652E-03    8.69       3.0  T
   5    -50.7299157 -0.459554E-07  0.239E-03    8.69       8.2  T
   6    -50.7299157 -0.407738E-08  0.120E-03    8.69      16.3  T
speedup  1.13
cpu  time for SCC    0.01 s
wall time for SCC    0.01 s
speedup  1.02
cpu  time for grad    0.01 s
wall time for grad    0.01 s
 E :    -50.44218851  G :  0.015089    pred/act E change: -0.502D-03 -0.499D-03
Maxdispl :   0.2484   ||displ|| :   0.4560   Lambda : -0.816D-03
Largest |displ|/coords:  0.2484 (   2)  0.1782 (  12)  0.1646 (  10)
................................................................................
.............................. CYCLE   30 ......................................
................................................................................
   1    -50.7300349 -0.507300E+02  0.259E-01    8.69       0.0  T
   2    -50.7300469 -0.120661E-04  0.195E-01    8.68       1.0  T
   3    -50.7300574 -0.105154E-04  0.188E-02    8.67       1.0  T
   4    -50.7300589 -0.141675E-05  0.777E-03    8.67       2.5  T
   5    -50.7300589 -0.771621E-07  0.244E-03    8.67       8.0  T
   6    -50.7300589 -0.516118E-08  0.140E-03    8.67      14.0  T
speedup  1.15
cpu  time for SCC    0.01 s
wall time for SCC    0.01 s
speedup  1.02
cpu  time for grad    0.01 s
wall time for grad    0.01 s
 E :    -50.44275358  G :  0.014120    pred/act E change: -0.414D-03 -0.565D-03
Maxdispl :   0.3751   ||displ|| :   0.6269   Lambda : -0.993D-03
Largest |displ|/coords:  0.3751 (   2)  0.2437 (  10)  0.2218 (  12)
................................................................................
.............................. CYCLE   31 ......................................
................................................................................
   1    -50.7202425 -0.507202E+02  0.409E-01    8.55       0.0  T
   2    -50.7202757 -0.331479E-04  0.309E-01    8.56       1.0  T
   3    -50.7203058 -0.300731E-04  0.306E-02    8.58       1.0  T
   4    -50.7203096 -0.383927E-05  0.109E-02    8.58       1.8  T
   5    -50.7203098 -0.165158E-06  0.386E-03    8.58       5.1  T
   6    -50.7203098 -0.130240E-07  0.218E-03    8.58       9.0  T
   7    -50.7203098 -0.859466E-08  0.454E-04    8.58      43.2  T
speedup  0.97
cpu  time for SCC    0.01 s
wall time for SCC    0.01 s
speedup  1.03
cpu  time for grad    0.01 s
wall time for grad    0.01 s
 E :    -50.44312687  G :  0.025838    pred/act E change: -0.493D-03 -0.373D-03
Maxdispl :   0.1996   ||displ|| :   0.2611   Lambda : -0.123D-02
Largest |displ|/coords:  0.1996 (   2)  0.0779 (  18)  0.0442 (  14)
................................................................................
.............................. CYCLE   32 ......................................
................................................................................
   1    -50.7305380 -0.507305E+02  0.124E-01    8.64       0.0  T
   2    -50.7305496 -0.116236E-04  0.926E-02    8.63       1.0  T
   3    -50.7305578 -0.813979E-05  0.198E-02    8.62       1.0  T
   4    -50.7305591 -0.134887E-05  0.644E-03    8.63       3.0  T
   5    -50.7305592 -0.828289E-07  0.231E-03    8.63       8.5  T
   6    -50.7305592 -0.490022E-08  0.117E-03    8.63      16.8  T
speedup  0.94
cpu  time for SCC    0.01 s
wall time for SCC    0.01 s
speedup  0.94
cpu  time for grad    0.01 s
wall time for grad    0.01 s
 E :    -50.44358810  G :  0.021996    pred/act E change: -0.691D-03 -0.461D-03
Maxdispl :   0.1291   ||displ|| :   0.3213   Lambda : -0.109D-02
Largest |displ|/coords:  0.1291 (  10)  0.1210 (   4)  0.1026 (   2)
................................................................................
.............................. CYCLE   33 ......................................
................................................................................
   1    -50.7269515 -0.507270E+02  0.253E-01    8.72       0.0  T
   2    -50.7269862 -0.346850E-04  0.190E-01    8.71       1.0  T
   3    -50.7270110 -0.248195E-04  0.321E-02    8.70       1.0  T
   4    -50.7270158 -0.485124E-05  0.717E-03    8.70       2.7  T
   5    -50.7270159 -0.564732E-07  0.386E-03    8.70       5.1  T
   6    -50.7270159 -0.161808E-07  0.149E-03    8.70      13.2  T
speedup  1.13
cpu  time for SCC    0.01 s
wall time for SCC    0.01 s
speedup  1.02
cpu  time for grad    0.01 s
wall time for grad    0.01 s
 E :    -50.44333459  G :  0.037561    pred/act E change: -0.655D-03  0.254D-03
Maxdispl :   0.0826   ||displ|| :   0.1851   Lambda : -0.198D-02
Largest |displ|/coords:  0.0826 (   2)  0.0542 (  19)  0.0536 (  10)
................................................................................
.............................. CYCLE   34 ......................................
................................................................................
   1    -50.7280004 -0.507280E+02  0.179E-01    8.72       0.0  T
   2    -50.7280207 -0.203231E-04  0.134E-01    8.72       1.0  T
   3    -50.7280362 -0.155039E-04  0.253E-02    8.73       1.0  T
   4    -50.7280387 -0.253580E-05  0.664E-03    8.73       3.0  T
   5    -50.7280388 -0.629485E-07  0.299E-03    8.73       6.6  T
   6    -50.7280388 -0.647688E-08  0.133E-03    8.73      14.7  T
speedup  0.98
cpu  time for SCC    0.00 s
wall time for SCC    0.01 s
speedup  1.03
cpu  time for grad    0.01 s
wall time for grad    0.01 s
 E :    -50.44422587  G :  0.016563    pred/act E change: -0.599D-03 -0.891D-03
Maxdispl :   0.2006   ||displ|| :   0.4115   Lambda : -0.114D-02
Largest |displ|/coords:  0.2006 (   2)  0.1343 (   4)  0.1170 (  15)
................................................................................
.............................. CYCLE   35 ......................................
................................................................................
   1    -50.7266139 -0.507266E+02  0.275E-01    8.66       0.0  T
   2    -50.7266472 -0.332958E-04  0.207E-01    8.65       1.0  T
   3    -50.7266712 -0.239807E-04  0.326E-02    8.62       1.0  T
   4    -50.7266759 -0.472748E-05  0.747E-03    8.64       2.6  T
   5    -50.7266760 -0.770090E-07  0.392E-03    8.64       5.0  T
   6    -50.7266760 -0.175472E-07  0.167E-03    8.64      11.7  T
   7    -50.7266760 -0.642648E-08  0.387E-04    8.64      50.7  T
speedup  1.00
cpu  time for SCC    0.01 s
wall time for SCC    0.01 s
speedup  1.01
cpu  time for grad    0.01 s
wall time for grad    0.01 s
 E :    -50.44394172  G :  0.037543    pred/act E change: -0.102D-02  0.284D-03
Maxdispl :   0.1074   ||displ|| :   0.2446   Lambda : -0.177D-02
Largest |displ|/coords:  0.1074 (   2)  0.0911 (   6)  0.0908 (  17)
................................................................................
.............................. CYCLE   36 ......................................
................................................................................
   1    -50.7253369 -0.507253E+02  0.281E-01    8.59       0.0  T
   2    -50.7253816 -0.447410E-04  0.212E-01    8.63       1.0  T
   3    -50.7254102 -0.286099E-04  0.379E-02    8.72       1.0  T
   4    -50.7254166 -0.641600E-05  0.658E-03    8.68       3.0  T
   5    -50.7254167 -0.514458E-07  0.360E-03    8.68       5.5  T
   6    -50.7254167 -0.996229E-08  0.152E-03    8.68      12.9  T
speedup  0.96
cpu  time for SCC    0.00 s
wall time for SCC    0.01 s
speedup  1.02
cpu  time for grad    0.01 s
wall time for grad    0.01 s
 E :    -50.44422657  G :  0.034629    pred/act E change: -0.668D-03 -0.285D-03
Maxdispl :   0.1714   ||displ|| :   0.3434   Lambda : -0.371D-02
Largest |displ|/coords:  0.1714 (  19)  0.1573 (   1)  0.1121 (   5)
................................................................................
.............................. CYCLE   37 ......................................
................................................................................
   1    -50.7326527 -0.507327E+02  0.446E-01    9.04       0.0  T
   2    -50.7327881 -0.135423E-03  0.336E-01    8.98       1.0  T
   3    -50.7328678 -0.797294E-04  0.668E-02    8.85       1.0  T
   4    -50.7328869 -0.190901E-04  0.119E-02    8.91       1.6  T
   5    -50.7328872 -0.240453E-06  0.586E-03    8.91       3.3  T
   6    -50.7328872 -0.183760E-07  0.287E-03    8.91       6.8  T
speedup  0.96
cpu  time for SCC    0.00 s
wall time for SCC    0.01 s
speedup  1.02
cpu  time for grad    0.01 s
wall time for grad    0.01 s
 E :    -50.44264620  G :  0.062485    pred/act E change: -0.941D-03  0.158D-02
Maxdispl :   0.1715   ||displ|| :   0.4050   Lambda : -0.944D-02
Largest |displ|/coords:  0.1715 (   1)  0.1696 (  19)  0.1114 (  26)
................................................................................
.............................. CYCLE   38 ......................................
................................................................................
   1    -50.7260689 -0.507261E+02  0.517E-01    8.60       0.0  T
   2    -50.7262444 -0.175439E-03  0.389E-01    8.65       1.0  T
   3    -50.7263541 -0.109690E-03  0.743E-02    8.75       1.0  T
   4    -50.7263787 -0.246650E-04  0.140E-02    8.71       1.4  T
   5    -50.7263789 -0.194084E-06  0.771E-03    8.71       2.5  T
   6    -50.7263790 -0.540963E-07  0.242E-03    8.71       8.1  T
   7    -50.7263790 -0.127199E-07  0.757E-04    8.71      25.9  T
speedup  0.95
cpu  time for SCC    0.01 s
wall time for SCC    0.01 s
speedup  0.94
cpu  time for grad    0.01 s
wall time for grad    0.01 s
 E :    -50.44349751  G :  0.054343    pred/act E change: -0.208D-02 -0.851D-03
Maxdispl :   0.0766   ||displ|| :   0.2467   Lambda : -0.483D-02
Largest |displ|/coords:  0.0766 (  19)  0.0751 (   1)  0.0743 (  26)
................................................................................
.............................. CYCLE   39 ......................................
................................................................................
   1    -50.7336614 -0.507337E+02  0.325E-01    8.90       0.0  T
   2    -50.7337370 -0.755684E-04  0.244E-01    8.87       1.0  T
   3    -50.7337840 -0.470349E-04  0.493E-02    8.81       1.0  T
   4    -50.7337944 -0.103238E-04  0.983E-03    8.84       2.0  T
   5    -50.7337945 -0.138964E-06  0.478E-03    8.84       4.1  T
   6    -50.7337945 -0.164147E-07  0.225E-03    8.84       8.7  T
speedup  0.94
cpu  time for SCC    0.00 s
wall time for SCC    0.01 s
speedup  0.94
cpu  time for grad    0.01 s
wall time for grad    0.01 s
 E :    -50.44494165  G :  0.025384    pred/act E change: -0.549D-02 -0.144D-02
Maxdispl :   0.1609   ||displ|| :   0.2854   Lambda : -0.921D-03
Largest |displ|/coords:  0.1609 (   2)  0.1111 (   4)  0.0915 (  10)
................................................................................
.............................. CYCLE   40 ......................................
................................................................................
   1    -50.7279042 -0.507279E+02  0.181E-01    8.70       0.0  T
   2    -50.7279150 -0.107931E-04  0.137E-01    8.72       1.0  T
   3    -50.7279233 -0.825357E-05  0.186E-02    8.75       1.1  T
   4    -50.7279247 -0.143135E-05  0.584E-03    8.74       3.4  T
   5    -50.7279248 -0.726466E-07  0.200E-03    8.74       9.8  T
speedup  0.91
cpu  time for SCC    0.00 s
wall time for SCC    0.00 s
speedup  1.00
cpu  time for grad    0.01 s
wall time for grad    0.01 s
 E :    -50.44553450  G :  0.014497    pred/act E change: -0.256D-02 -0.593D-03
Maxdispl :   0.1437   ||displ|| :   0.3193   Lambda : -0.617D-03
Largest |displ|/coords:  0.1437 (   2)  0.1224 (  18)  0.1180 (   4)
................................................................................
.............................. CYCLE   41 ......................................
................................................................................
   1    -50.7267791 -0.507268E+02  0.158E-01    8.84       0.0  T
   2    -50.7267883 -0.917395E-05  0.119E-01    8.85       1.0  T
   3    -50.7267954 -0.703767E-05  0.166E-02    8.88       1.2  T
   4    -50.7267966 -0.121419E-05  0.549E-03    8.88       3.6  T
   5    -50.7267966 -0.541928E-07  0.208E-03    8.87       9.4  T
   6    -50.7267966 -0.483416E-08  0.118E-03    8.87      16.6  T
speedup  0.94
cpu  time for SCC    0.00 s
wall time for SCC    0.01 s
speedup  1.01
cpu  time for grad    0.01 s
wall time for grad    0.01 s
 E :    -50.44571997  G :  0.017697    pred/act E change: -0.498D-03 -0.185D-03
Maxdispl :   0.1775   ||displ|| :   0.3682   Lambda : -0.650D-03
Largest |displ|/coords:  0.1775 (   4)  0.1774 (   2)  0.1028 (   8)
................................................................................
.............................. CYCLE   42 ......................................
................................................................................
   1    -50.7253668 -0.507254E+02  0.159E-01    8.84       0.0  T
   2    -50.7253727 -0.589011E-05  0.120E-01    8.84       1.0  T
   3    -50.7253782 -0.549850E-05  0.130E-02    8.84       1.5  T
   4    -50.7253789 -0.661725E-06  0.499E-03    8.84       3.9  T
   5    -50.7253789 -0.418939E-07  0.180E-03    8.84      10.9  T
   6    -50.7253789 -0.478936E-08  0.935E-04    8.84      21.0  T
speedup  0.96
cpu  time for SCC    0.00 s
wall time for SCC    0.01 s
speedup  1.00
cpu  time for grad    0.01 s
wall time for grad    0.01 s
 E :    -50.44619155  G :  0.014378    pred/act E change: -0.340D-03 -0.472D-03
Maxdispl :   0.2418   ||displ|| :   0.4706   Lambda : -0.871D-03
Largest |displ|/coords:  0.2418 (   4)  0.1896 (   2)  0.1598 (   3)
................................................................................
.............................. CYCLE   43 ......................................
................................................................................
   1    -50.7288528 -0.507289E+02  0.193E-01    8.87       0.0  T
   2    -50.7288712 -0.183664E-04  0.144E-01    8.87       1.0  T
   3    -50.7288822 -0.110570E-04  0.245E-02    8.85       1.0  T
   4    -50.7288850 -0.282673E-05  0.673E-03    8.86       2.9  T
   5    -50.7288851 -0.885136E-07  0.279E-03    8.86       7.0  T
   6    -50.7288851 -0.817169E-08  0.153E-03    8.86      12.8  T
speedup  1.11
cpu  time for SCC    0.01 s
wall time for SCC    0.01 s
speedup  1.00
cpu  time for grad    0.01 s
wall time for grad    0.01 s
 E :    -50.44670986  G :  0.019157    pred/act E change: -0.369D-03 -0.518D-03
Maxdispl :   0.2873   ||displ|| :   0.5371   Lambda : -0.876D-03
Largest |displ|/coords:  0.2873 (   4)  0.2148 (   3)  0.1909 (   2)
................................................................................
.............................. CYCLE   44 ......................................
................................................................................
   1    -50.7309372 -0.507309E+02  0.192E-01    8.99       0.0  T
   2    -50.7309569 -0.197237E-04  0.144E-01    8.98       1.0  T
   3    -50.7309680 -0.111056E-04  0.253E-02    8.99       1.0  T
   4    -50.7309709 -0.292531E-05  0.808E-03    8.99       2.4  T
   5    -50.7309711 -0.147961E-06  0.284E-03    8.99       6.9  T
   6    -50.7309711 -0.887145E-08  0.169E-03    8.99      11.6  T
speedup  0.94
cpu  time for SCC    0.00 s
wall time for SCC    0.01 s
speedup  1.00
cpu  time for grad    0.01 s
wall time for grad    0.01 s
 E :    -50.44731227  G :  0.020896    pred/act E change: -0.532D-03 -0.602D-03
Maxdispl :   0.3459   ||displ|| :   0.5758   Lambda : -0.923D-03
Largest |displ|/coords:  0.3459 (   4)  0.2178 (   3)  0.1877 (   2)
................................................................................
.............................. CYCLE   45 ......................................
................................................................................
   1    -50.7316107 -0.507316E+02  0.209E-01    9.20       0.0  T
   2    -50.7316406 -0.299002E-04  0.156E-01    9.21       1.0  T
   3    -50.7316554 -0.148842E-04  0.314E-02    9.24       1.0  T
   4    -50.7316596 -0.420079E-05  0.977E-03    9.24       2.0  T
   5    -50.7316599 -0.216370E-06  0.333E-03    9.23       5.9  T
   6    -50.7316599 -0.133229E-07  0.206E-03    9.23       9.5  T
speedup  0.94
cpu  time for SCC    0.00 s
wall time for SCC    0.01 s
speedup  1.00
cpu  time for grad    0.01 s
wall time for grad    0.01 s
 E :    -50.44800016  G :  0.018423    pred/act E change: -0.564D-03 -0.688D-03
Maxdispl :   0.3662   ||displ|| :   0.6379   Lambda : -0.126D-02
Largest |displ|/coords:  0.3662 (   4)  0.2604 (   3)  0.2190 (   2)
................................................................................
.............................. CYCLE   46 ......................................
................................................................................
   1    -50.7270703 -0.507271E+02  0.283E-01    9.05       0.0  T
   2    -50.7271162 -0.458627E-04  0.212E-01    9.08       1.0  T
   3    -50.7271459 -0.296879E-04  0.385E-02    9.10       1.0  T
   4    -50.7271521 -0.620778E-05  0.110E-02    9.10       1.8  T
   5    -50.7271523 -0.203096E-06  0.455E-03    9.10       4.3  T
   6    -50.7271523 -0.310680E-07  0.258E-03    9.10       7.6  T
   7    -50.7271523 -0.156569E-07  0.600E-04    9.10      32.7  T
speedup  1.00
cpu  time for SCC    0.01 s
wall time for SCC    0.01 s
speedup  1.01
cpu  time for grad    0.01 s
wall time for grad    0.01 s
 E :    -50.44839975  G :  0.022386    pred/act E change: -0.614D-03 -0.400D-03
Maxdispl :   0.1561   ||displ|| :   0.2447   Lambda : -0.987D-03
Largest |displ|/coords:  0.1561 (   4)  0.0763 (   5)  0.0755 (  10)
................................................................................
.............................. CYCLE   47 ......................................
................................................................................
   1    -50.7353220 -0.507353E+02  0.153E-01    9.35       0.0  T
   2    -50.7353444 -0.223194E-04  0.112E-01    9.35       1.0  T
   3    -50.7353531 -0.871787E-05  0.280E-02    9.34       1.0  T
   4    -50.7353557 -0.257715E-05  0.768E-03    9.35       2.6  T
   5    -50.7353558 -0.134692E-06  0.232E-03    9.35       8.4  T
   6    -50.7353558 -0.684615E-08  0.143E-03    9.35      13.7  T
speedup  0.94
cpu  time for SCC    0.00 s
wall time for SCC    0.01 s
speedup  1.00
cpu  time for grad    0.01 s
wall time for grad    0.01 s
 E :    -50.44886860  G :  0.017667    pred/act E change: -0.888D-03 -0.469D-03
Maxdispl :   0.2487   ||displ|| :   0.4349   Lambda : -0.107D-02
Largest |displ|/coords:  0.2487 (   4)  0.1776 (   3)  0.1548 (   5)
................................................................................
.............................. CYCLE   48 ......................................
................................................................................
   1    -50.7256689 -0.507257E+02  0.247E-01    9.37       0.0  T
   2    -50.7256948 -0.259078E-04  0.184E-01    9.38       1.0  T
   3    -50.7257127 -0.179263E-04  0.280E-02    9.39       1.0  T
   4    -50.7257162 -0.348073E-05  0.974E-03    9.38       2.0  T
   5    -50.7257163 -0.136980E-06  0.375E-03    9.38       5.2  T
   6    -50.7257164 -0.191656E-07  0.199E-03    9.38       9.9  T
   7    -50.7257164 -0.915116E-08  0.456E-04    9.38      43.0  T
speedup  1.13
cpu  time for SCC    0.01 s
wall time for SCC    0.01 s
speedup  1.00
cpu  time for grad    0.01 s
wall time for grad    0.01 s
 E :    -50.44875339  G :  0.031472    pred/act E change: -0.523D-03  0.115D-03
Maxdispl :   0.1029   ||displ|| :   0.1929   Lambda : -0.139D-02
Largest |displ|/coords:  0.1029 (   2)  0.0790 (  10)  0.0763 (  17)
................................................................................
.............................. CYCLE   49 ......................................
................................................................................
   1    -50.7322578 -0.507323E+02  0.142E-01    9.44       0.0  T
   2    -50.7322708 -0.130012E-04  0.107E-01    9.43       1.0  T
   3    -50.7322795 -0.862806E-05  0.210E-02    9.42       1.0  T
   4    -50.7322813 -0.180650E-05  0.742E-03    9.43       2.6  T
   5    -50.7322814 -0.902797E-07  0.224E-03    9.43       8.8  T
   6    -50.7322814 -0.617968E-08  0.120E-03    9.43      16.4  T
speedup  0.96
cpu  time for SCC    0.00 s
wall time for SCC    0.01 s
speedup  0.99
cpu  time for grad    0.01 s
wall time for grad    0.01 s
 E :    -50.44941415  G :  0.023933    pred/act E change: -0.636D-03 -0.661D-03
Maxdispl :   0.2023   ||displ|| :   0.3584   Lambda : -0.153D-02
Largest |displ|/coords:  0.2023 (   2)  0.1163 (  15)  0.1142 (   4)
................................................................................
.............................. CYCLE   50 ......................................
................................................................................
   1    -50.7333212 -0.507333E+02  0.212E-01    9.08       0.0  T
   2    -50.7333498 -0.286472E-04  0.156E-01    9.08       1.0  T
   3    -50.7333672 -0.173370E-04  0.353E-02    9.07       1.0  T
   4    -50.7333704 -0.322257E-05  0.847E-03    9.08       2.3  T
   5    -50.7333705 -0.136220E-06  0.304E-03    9.08       6.4  T
   6    -50.7333706 -0.149504E-07  0.160E-03    9.08      12.3  T
speedup  0.96
cpu  time for SCC    0.00 s
wall time for SCC    0.01 s
speedup  1.00
cpu  time for grad    0.01 s
wall time for grad    0.01 s
 E :    -50.44900462  G :  0.031285    pred/act E change: -0.723D-03  0.410D-03
Maxdispl :   0.0948   ||displ|| :   0.2222   Lambda : -0.194D-02
Largest |displ|/coords:  0.0948 (   2)  0.0914 (   5)  0.0791 (  15)
................................................................................
.............................. CYCLE   51 ......................................
................................................................................
   1    -50.7323411 -0.507323E+02  0.173E-01    9.28       0.0  T
   2    -50.7323537 -0.126096E-04  0.127E-01    9.29       1.0  T
   3    -50.7323606 -0.689206E-05  0.232E-02    9.31       1.0  T
   4    -50.7323622 -0.163920E-05  0.669E-03    9.30       2.9  T
   5    -50.7323623 -0.665903E-07  0.221E-03    9.30       8.9  T
   6    -50.7323623 -0.614496E-08  0.121E-03    9.30      16.2  T
speedup  1.13
cpu  time for SCC    0.01 s
wall time for SCC    0.01 s
speedup  0.98
cpu  time for grad    0.01 s
wall time for grad    0.01 s
 E :    -50.45014795  G :  0.015476    pred/act E change: -0.864D-03 -0.114D-02
Maxdispl :   0.1868   ||displ|| :   0.3056   Lambda : -0.700D-03
Largest |displ|/coords:  0.1868 (   4)  0.1421 (   5)  0.0703 (   6)
................................................................................
.............................. CYCLE   52 ......................................
................................................................................
   1    -50.7284297 -0.507284E+02  0.182E-01    9.36       0.0  T
   2    -50.7284476 -0.179307E-04  0.137E-01    9.36       1.0  T
   3    -50.7284583 -0.106338E-04  0.238E-02    9.35       1.0  T
   4    -50.7284610 -0.272723E-05  0.863E-03    9.36       2.3  T
   5    -50.7284611 -0.135715E-06  0.285E-03    9.36       6.9  T
   6    -50.7284611 -0.864402E-08  0.166E-03    9.35      11.8  T
speedup  0.94
cpu  time for SCC    0.00 s
wall time for SCC    0.01 s
speedup  0.98
cpu  time for grad    0.01 s
wall time for grad    0.01 s
 E :    -50.45027032  G :  0.022630    pred/act E change: -0.102D-02 -0.122D-03
Maxdispl :   0.0853   ||displ|| :   0.2467   Lambda : -0.109D-02
Largest |displ|/coords:  0.0853 (   3)  0.0753 (   5)  0.0683 (   9)

generating ANC from model Hessian ...
 Shifting diagonal of input Hessian by   5.544022993707730E-003
 Lowest  eigenvalues of input Hessian
    0.005000    0.005496   -0.000000   -0.000000   -0.000000   -0.000000
   -0.000000    0.000000    0.005733    0.005906    0.006165    0.006420
    0.007072    0.007242    0.007734    0.008173    0.010060    0.010827
 Highest eigenvalues
    1.377347    1.385588    1.396982    2.855359    3.368046    3.647957
 
cpu  time for ANC gen    0.01 s
wall time for ANC gen    0.01 s
................................................................................
.............................. CYCLE   53 ......................................
................................................................................
   1    -50.7274255 -0.507274E+02  0.185E-01    9.34       0.0  T
   2    -50.7274386 -0.130914E-04  0.139E-01    9.34       1.0  T
   3    -50.7274476 -0.898983E-05  0.217E-02    9.35       1.0  T
   4    -50.7274493 -0.176017E-05  0.860E-03    9.34       2.3  T
   5    -50.7274494 -0.717623E-07  0.248E-03    9.34       7.9  T
   6    -50.7274494 -0.948888E-08  0.147E-03    9.34      13.4  T
   7    -50.7274494 -0.469029E-08  0.375E-04    9.34      52.3  T
   8    -50.7274494 -0.323716E-09  0.100E-04    9.34     196.0  T
speedup  0.86
cpu  time for SCC    0.01 s
wall time for SCC    0.01 s
speedup  0.91
cpu  time for grad    0.01 s
wall time for grad    0.02 s
 E :    -50.45080823  G :  0.021419    pred/act E change:  0.000D+00 -0.538D-03
Maxdispl :   0.0949   ||displ|| :   0.2027   Lambda : -0.917D-03
Largest |displ|/coords:  0.0949 (   1)  0.0874 (  14)  0.0694 (   9)
................................................................................
.............................. CYCLE   54 ......................................
................................................................................
   1    -50.7291638 -0.507292E+02  0.239E-01    9.30       0.0  T
   2    -50.7291755 -0.117233E-04  0.182E-01    9.30       1.0  T
   3    -50.7291873 -0.117629E-04  0.169E-02    9.28       1.2  T
   4    -50.7291884 -0.117954E-05  0.560E-03    9.29       3.5  T
   5    -50.7291885 -0.314552E-07  0.207E-03    9.29       9.5  T
speedup  1.14
cpu  time for SCC    0.01 s
wall time for SCC    0.00 s
speedup  1.07
cpu  time for grad    0.01 s
wall time for grad    0.01 s
 E :    -50.45123786  G :  0.014010    pred/act E change:  0.000D+00 -0.430D-03
Maxdispl :   0.1223   ||displ|| :   0.2424   Lambda : -0.858D-03
Largest |displ|/coords:  0.1223 (   5)  0.0835 (   9)  0.0822 (   1)
................................................................................
.............................. CYCLE   55 ......................................
................................................................................
   1    -50.7328721 -0.507329E+02  0.226E-01    9.27       0.0  T
   2    -50.7328862 -0.141539E-04  0.168E-01    9.26       1.0  T
   3    -50.7328936 -0.741818E-05  0.226E-02    9.25       1.0  T
   4    -50.7328958 -0.215616E-05  0.585E-03    9.25       3.4  T
   5    -50.7328959 -0.733681E-07  0.239E-03    9.26       8.2  T
   6    -50.7328959 -0.208085E-08  0.121E-03    9.25      16.2  T
speedup  1.15
cpu  time for SCC    0.01 s
wall time for SCC    0.01 s
speedup  0.99
cpu  time for grad    0.01 s
wall time for grad    0.01 s
 E :    -50.45154386  G :  0.010862    pred/act E change: -0.477D-03 -0.306D-03
Maxdispl :   0.1138   ||displ|| :   0.2218   Lambda : -0.430D-03
Largest |displ|/coords:  0.1138 (   5)  0.0924 (   8)  0.0758 (  14)
................................................................................
.............................. CYCLE   56 ......................................
................................................................................
   1    -50.7293003 -0.507293E+02  0.208E-01    9.21       0.0  T
   2    -50.7293053 -0.494094E-05  0.157E-01    9.21       1.0  T
   3    -50.7293105 -0.524825E-05  0.119E-02    9.21       1.6  T
   4    -50.7293109 -0.414568E-06  0.454E-03    9.21       4.3  T
   5    -50.7293109 -0.180125E-07  0.181E-03    9.21      10.8  T
   6    -50.7293110 -0.431513E-08  0.819E-04    9.21      24.0  T
speedup  0.96
cpu  time for SCC    0.00 s
wall time for SCC    0.01 s
speedup  1.00
cpu  time for grad    0.01 s
wall time for grad    0.01 s
 E :    -50.45178121  G :  0.011329    pred/act E change: -0.454D-03 -0.237D-03
Maxdispl :   0.1096   ||displ|| :   0.1783   Lambda : -0.307D-03
Largest |displ|/coords:  0.1096 (   8)  0.0598 (   2)  0.0546 (   3)
................................................................................
.............................. CYCLE   57 ......................................
................................................................................
   1    -50.7277516 -0.507278E+02  0.966E-02    9.17       0.0  T
   2    -50.7277531 -0.155798E-05  0.721E-02    9.17       1.0  T
   3    -50.7277544 -0.131051E-05  0.720E-03    9.17       2.7  T
   4    -50.7277546 -0.159442E-06  0.315E-03    9.17       6.2  T
   5    -50.7277546 -0.955641E-08  0.900E-04    9.17      21.8  T
   6    -50.7277546 -0.109234E-08  0.549E-04    9.17      35.7  T
speedup  0.93
cpu  time for SCC    0.00 s
wall time for SCC    0.01 s
speedup  0.98
cpu  time for grad    0.01 s
wall time for grad    0.01 s
 E :    -50.45196407  G :  0.010333    pred/act E change: -0.225D-03 -0.183D-03
Maxdispl :   0.0695   ||displ|| :   0.1500   Lambda : -0.243D-03
Largest |displ|/coords:  0.0695 (   2)  0.0545 (   3)  0.0539 (   5)
................................................................................
.............................. CYCLE   58 ......................................
................................................................................
   1    -50.7290136 -0.507290E+02  0.892E-02    9.18       0.0  T
   2    -50.7290152 -0.164329E-05  0.667E-02    9.17       1.0  T
   3    -50.7290165 -0.129892E-05  0.829E-03    9.17       2.4  T
   4    -50.7290167 -0.188605E-06  0.292E-03    9.17       6.7  T
   5    -50.7290167 -0.941123E-08  0.900E-04    9.17      21.8  T
speedup  1.14
cpu  time for SCC    0.00 s
wall time for SCC    0.00 s
speedup  1.06
cpu  time for grad    0.01 s
wall time for grad    0.01 s
 E :    -50.45214163  G :  0.006583    pred/act E change: -0.158D-03 -0.178D-03
Maxdispl :   0.1366   ||displ|| :   0.3259   Lambda : -0.292D-03
Largest |displ|/coords:  0.1366 (   5)  0.1270 (   2)  0.1242 (   3)
................................................................................
.............................. CYCLE   59 ......................................
................................................................................
   1    -50.7270280 -0.507270E+02  0.233E-01    9.17       0.0  T
   2    -50.7270335 -0.542822E-05  0.174E-01    9.17       1.0  T
   3    -50.7270387 -0.526653E-05  0.147E-02    9.16       1.3  T
   4    -50.7270392 -0.504324E-06  0.541E-03    9.16       3.6  T
   5    -50.7270393 -0.313683E-07  0.202E-03    9.16       9.7  T
   6    -50.7270393 -0.726197E-08  0.112E-03    9.16      17.5  T
speedup  0.94
cpu  time for SCC    0.00 s
wall time for SCC    0.01 s
speedup  0.98
cpu  time for grad    0.01 s
wall time for grad    0.01 s
 E :    -50.45227619  G :  0.012402    pred/act E change: -0.124D-03 -0.135D-03
Maxdispl :   0.1494   ||displ|| :   0.2407   Lambda : -0.455D-03
Largest |displ|/coords:  0.1494 (   3)  0.1121 (   2)  0.0678 (   7)
................................................................................
.............................. CYCLE   60 ......................................
................................................................................
   1    -50.7315142 -0.507315E+02  0.113E-01    9.22       0.0  T
   2    -50.7315245 -0.102692E-04  0.831E-02    9.21       1.0  T
   3    -50.7315306 -0.613680E-05  0.194E-02    9.21       1.0  T
   4    -50.7315316 -0.992447E-06  0.619E-03    9.21       3.2  T
   5    -50.7315317 -0.746033E-07  0.206E-03    9.21       9.5  T
   6    -50.7315317 -0.451873E-08  0.113E-03    9.21      17.4  T
speedup  0.96
cpu  time for SCC    0.00 s
wall time for SCC    0.01 s
speedup  1.00
cpu  time for grad    0.01 s
wall time for grad    0.01 s
 E :    -50.45228684  G :  0.014934    pred/act E change: -0.161D-03 -0.107D-04
Maxdispl :   0.0314   ||displ|| :   0.0666   Lambda : -0.323D-03
Largest |displ|/coords:  0.0314 (   9)  0.0311 (  14)  0.0269 (  10)
................................................................................
.............................. CYCLE   61 ......................................
................................................................................
   1    -50.7303191 -0.507303E+02  0.713E-02    9.20       0.0  T
   2    -50.7303224 -0.329780E-05  0.530E-02    9.21       1.0  T
   3    -50.7303248 -0.234348E-05  0.109E-02    9.21       1.8  T
   4    -50.7303251 -0.359398E-06  0.318E-03    9.21       6.2  T
   5    -50.7303251 -0.212051E-07  0.118E-03    9.21      16.7  T
   6    -50.7303251 -0.165953E-08  0.597E-04    9.21      32.8  T
speedup  0.96
cpu  time for SCC    0.00 s
wall time for SCC    0.01 s
speedup  1.05
cpu  time for grad    0.01 s
wall time for grad    0.01 s
 E :    -50.45245787  G :  0.003863    pred/act E change: -0.241D-03 -0.171D-03
Maxdispl :   0.0445   ||displ|| :   0.0981   Lambda : -0.664D-04
Largest |displ|/coords:  0.0445 (   3)  0.0443 (   8)  0.0441 (   2)
................................................................................
.............................. CYCLE   62 ......................................
................................................................................
   1    -50.7287731 -0.507288E+02  0.633E-02    9.19       0.0  T
   2    -50.7287736 -0.474094E-06  0.471E-02    9.19       1.0  T
   3    -50.7287739 -0.276229E-06  0.438E-03    9.20       4.5  T
   4    -50.7287740 -0.750120E-07  0.126E-03    9.20      15.6  T
   5    -50.7287740 -0.155829E-08  0.496E-04    9.20      39.6  T
   6    -50.7287740 -0.267910E-09  0.226E-04    9.20      86.7  T
speedup  0.98
cpu  time for SCC    0.00 s
wall time for SCC    0.01 s
speedup  1.04
cpu  time for grad    0.01 s
wall time for grad    0.01 s
 E :    -50.45248621  G :  0.005917    pred/act E change: -0.162D-03 -0.283D-04
Maxdispl :   0.0498   ||displ|| :   0.0820   Lambda : -0.698D-04
Largest |displ|/coords:  0.0498 (   2)  0.0402 (   3)  0.0227 (   9)
................................................................................
.............................. CYCLE   63 ......................................
................................................................................
   1    -50.7300508 -0.507301E+02  0.535E-02    9.21       0.0  T
   2    -50.7300513 -0.539494E-06  0.398E-02    9.21       1.0  T
   3    -50.7300517 -0.387805E-06  0.467E-03    9.20       4.2  T
   4    -50.7300518 -0.685097E-07  0.128E-03    9.21      15.3  T
   5    -50.7300518 -0.291534E-08  0.489E-04    9.21      40.1  T
speedup  1.16
cpu  time for SCC    0.01 s
wall time for SCC    0.00 s
speedup  0.98
cpu  time for grad    0.01 s
wall time for grad    0.01 s
 E :    -50.45253599  G :  0.003884    pred/act E change: -0.335D-04 -0.498D-04
Maxdispl :   0.1662   ||displ|| :   0.2780   Lambda : -0.139D-03
Largest |displ|/coords:  0.1662 (   2)  0.1652 (   3)  0.0637 (   9)
................................................................................
.............................. CYCLE   64 ......................................
................................................................................
   1    -50.7302795 -0.507303E+02  0.154E-01    9.20       0.0  T
   2    -50.7302821 -0.260882E-05  0.115E-01    9.20       1.0  T
   3    -50.7302849 -0.284113E-05  0.114E-02    9.19       1.7  T
   4    -50.7302851 -0.151812E-06  0.344E-03    9.19       5.7  T
   5    -50.7302851 -0.112361E-07  0.135E-03    9.19      14.5  T
   6    -50.7302851 -0.200307E-08  0.576E-04    9.19      34.0  T
   7    -50.7302851 -0.580208E-09  0.148E-04    9.19     132.3  T
speedup  1.00
cpu  time for SCC    0.01 s
wall time for SCC    0.01 s
speedup  1.04
cpu  time for grad    0.01 s
wall time for grad    0.01 s
 E :    -50.45258702  G :  0.008286    pred/act E change: -0.351D-04 -0.510D-04
Maxdispl :   0.0741   ||displ|| :   0.1260   Lambda : -0.101D-03
Largest |displ|/coords:  0.0741 (   2)  0.0681 (   3)  0.0360 (   9)
................................................................................
.............................. CYCLE   65 ......................................
................................................................................
   1    -50.7306177 -0.507306E+02  0.759E-02    9.19       0.0  T
   2    -50.7306183 -0.684835E-06  0.565E-02    9.19       1.0  T
   3    -50.7306190 -0.631616E-06  0.562E-03    9.18       3.5  T
   4    -50.7306190 -0.570062E-07  0.186E-03    9.19      10.6  T
   5    -50.7306190 -0.372024E-08  0.611E-04    9.19      32.1  T
speedup  1.16
cpu  time for SCC    0.00 s
wall time for SCC    0.00 s
speedup  1.07
cpu  time for grad    0.01 s
[...]
Maxdispl :   0.0131   ||displ|| :   0.0214   Lambda : -0.187D-05
Largest |displ|/coords:  0.0131 (   2)  0.0093 (   5)  0.0089 (   4)
................................................................................
.............................. CYCLE  158 ......................................
................................................................................
   1    -50.7334813 -0.507335E+02  0.113E-02    9.09       0.0  T
   2    -50.7334813 -0.420922E-07  0.841E-03    9.09       2.3  T
   3    -50.7334813 -0.250474E-07  0.110E-03    9.09      17.8  T
   4    -50.7334813 -0.605867E-08  0.368E-04    9.09      53.2  T
   5    -50.7334813 -0.161698E-09  0.123E-04    9.09     159.2  T
speedup  1.14
cpu  time for SCC    0.00 s
wall time for SCC    0.00 s
speedup  1.00
cpu  time for grad    0.01 s
wall time for grad    0.01 s
 E :    -50.45852123  G :  0.000700    pred/act E change: -0.143D-05 -0.102D-05
Maxdispl :   0.0143   ||displ|| :   0.0193   Lambda : -0.122D-05
Largest |displ|/coords:  0.0143 (   2)  0.0094 (   5)  0.0047 (   8)
................................................................................
.............................. CYCLE  159 ......................................
................................................................................
   1    -50.7334397 -0.507334E+02  0.106E-02    9.09       0.0  T
   2    -50.7334397 -0.259011E-07  0.793E-03    9.09       2.5  T
   3    -50.7334397 -0.200251E-07  0.932E-04    9.10      21.0  T
   4    -50.7334397 -0.296581E-08  0.340E-04    9.10      57.7  T
speedup  1.08
cpu  time for SCC    0.00 s
wall time for SCC    0.00 s
speedup  1.02
cpu  time for grad    0.01 s
wall time for grad    0.01 s
 E :    -50.45852209  G :  0.000501    pred/act E change: -0.936D-06 -0.856D-06
Maxdispl :   0.0152   ||displ|| :   0.0222   Lambda : -0.993D-06
Largest |displ|/coords:  0.0152 (   2)  0.0112 (   5)  0.0074 (   8)
................................................................................
.............................. CYCLE  160 ......................................
................................................................................
   1    -50.7333256 -0.507333E+02  0.118E-02    9.09       0.0  T
   2    -50.7333256 -0.339707E-07  0.876E-03    9.09       2.2  T
   3    -50.7333256 -0.246137E-07  0.104E-03    9.10      18.8  T
   4    -50.7333256 -0.370985E-08  0.416E-04    9.09      47.2  T
   5    -50.7333256 -0.152170E-09  0.110E-04    9.09     178.9  T
speedup  0.93
cpu  time for SCC    0.00 s
wall time for SCC    0.00 s
speedup  0.94
cpu  time for grad    0.01 s
wall time for grad    0.01 s
 E :    -50.45852277  G :  0.000335    pred/act E change: -0.610D-06 -0.679D-06
Maxdispl :   0.0097   ||displ|| :   0.0170   Lambda : -0.519D-06
Largest |displ|/coords:  0.0097 (   2)  0.0095 (   5)  0.0048 (   3)
................................................................................
.............................. CYCLE  161 ......................................
................................................................................
   1    -50.7332791 -0.507333E+02  0.854E-03    9.09       0.0  T
   2    -50.7332792 -0.190068E-07  0.631E-03    9.09       3.1  T
   3    -50.7332792 -0.138852E-07  0.769E-04    9.09      25.5  T
   4    -50.7332792 -0.191834E-08  0.318E-04    9.09      61.7  T
speedup  1.14
cpu  time for SCC    0.00 s
wall time for SCC    0.00 s
speedup  1.00
cpu  time for grad    0.01 s
wall time for grad    0.01 s
 E :    -50.45852314  G :  0.000269    pred/act E change: -0.497D-06 -0.368D-06
Maxdispl :   0.0059   ||displ|| :   0.0127   Lambda : -0.358D-06
Largest |displ|/coords:  0.0059 (   5)  0.0057 (   3)  0.0052 (   1)
................................................................................
.............................. CYCLE  162 ......................................
................................................................................
   1    -50.7332662 -0.507333E+02  0.557E-03    9.09       0.0  T
   2    -50.7332662 -0.752173E-08  0.410E-03    9.09       4.8  T
   3    -50.7332662 -0.511474E-08  0.514E-04    9.09      38.2  T
   4    -50.7332662 -0.827846E-09  0.204E-04    9.09      95.9  T
speedup  1.08
cpu  time for SCC    0.00 s
wall time for SCC    0.00 s
speedup  0.99
cpu  time for grad    0.01 s
wall time for grad    0.01 s
 E :    -50.45852340  G :  0.000226    pred/act E change: -0.254D-06 -0.268D-06
Maxdispl :   0.0080   ||displ|| :   0.0154   Lambda : -0.316D-06
Largest |displ|/coords:  0.0080 (   3)  0.0061 (   1)  0.0056 (   5)
................................................................................
.............................. CYCLE  163 ......................................
................................................................................
   1    -50.7332653 -0.507333E+02  0.636E-03    9.09       0.0  T
   2    -50.7332653 -0.815695E-08  0.469E-03    9.09       4.2  T
   3    -50.7332653 -0.544524E-08  0.537E-04    9.09      36.5  T
   4    -50.7332653 -0.975668E-09  0.203E-04    9.09      96.6  T
speedup  0.86
cpu  time for SCC    0.00 s
wall time for SCC    0.00 s
speedup  1.00
cpu  time for grad    0.01 s
wall time for grad    0.01 s
 E :    -50.45852363  G :  0.000221    pred/act E change: -0.179D-06 -0.226D-06
Maxdispl :   0.0078   ||displ|| :   0.0132   Lambda : -0.230D-06
Largest |displ|/coords:  0.0078 (   3)  0.0057 (   1)  0.0052 (   8)
................................................................................
.............................. CYCLE  164 ......................................
................................................................................
   1    -50.7332878 -0.507333E+02  0.513E-03    9.09       0.0  T
   2    -50.7332878 -0.446163E-08  0.380E-03    9.10       5.2  T
   3    -50.7332878 -0.291096E-08  0.396E-04    9.10      49.6  T
   4    -50.7332878 -0.580272E-09  0.147E-04    9.10     133.7  T
speedup  1.14
cpu  time for SCC    0.00 s
wall time for SCC    0.00 s
speedup  1.01
cpu  time for grad    0.01 s
wall time for grad    0.01 s
 E :    -50.45852380  G :  0.000215    pred/act E change: -0.158D-06 -0.172D-06
Maxdispl :   0.0093   ||displ|| :   0.0156   Lambda : -0.221D-06
Largest |displ|/coords:  0.0093 (   3)  0.0082 (   8)  0.0047 (   1)
................................................................................
.............................. CYCLE  165 ......................................
................................................................................
   1    -50.7333018 -0.507333E+02  0.645E-03    9.10       0.0  T
   2    -50.7333018 -0.584585E-08  0.478E-03    9.10       4.1  T
   3    -50.7333018 -0.443757E-08  0.404E-04    9.10      48.6  T
   4    -50.7333018 -0.655319E-09  0.152E-04    9.10     129.2  T
speedup  0.83
cpu  time for SCC    0.00 s
wall time for SCC    0.00 s
speedup  0.90
cpu  time for grad    0.01 s
wall time for grad    0.01 s
 E :    -50.45852396  G :  0.000241    pred/act E change: -0.115D-06 -0.156D-06
Maxdispl :   0.0070   ||displ|| :   0.0114   Lambda : -0.161D-06
Largest |displ|/coords:  0.0070 (   3)  0.0059 (   8)  0.0037 (   1)
................................................................................
.............................. CYCLE  166 ......................................
................................................................................
   1    -50.7333297 -0.507333E+02  0.443E-03    9.10       0.0  T
   2    -50.7333298 -0.253502E-08  0.329E-03    9.10       6.0  T
   3    -50.7333298 -0.234484E-08  0.251E-04    9.10      78.1  T
   4    -50.7333298 -0.225036E-09  0.963E-05    9.10     203.6  T
speedup  1.11
cpu  time for SCC    0.00 s
wall time for SCC    0.00 s
speedup  1.00
cpu  time for grad    0.01 s
wall time for grad    0.01 s
 E :    -50.45852407  G :  0.000216    pred/act E change: -0.111D-06 -0.115D-06
Maxdispl :   0.0074   ||displ|| :   0.0122   Lambda : -0.129D-06
Largest |displ|/coords:  0.0074 (   8)  0.0063 (   3)  0.0055 (   2)
................................................................................
.............................. CYCLE  167 ......................................
................................................................................
   1    -50.7333245 -0.507333E+02  0.580E-03    9.10       0.0  T
   2    -50.7333245 -0.334381E-08  0.432E-03    9.10       4.5  T
   3    -50.7333245 -0.367976E-08  0.272E-04    9.10      72.1  T
   4    -50.7333245 -0.155268E-09  0.133E-04    9.10     147.1  T
speedup  0.86
cpu  time for SCC    0.00 s
wall time for SCC    0.00 s
speedup  1.01
cpu  time for grad    0.01 s
wall time for grad    0.01 s
 E :    -50.45852416  G :  0.000193    pred/act E change: -0.807D-07 -0.872D-07
Maxdispl :   0.0023   ||displ|| :   0.0049   Lambda : -0.787D-07
Largest |displ|/coords:  0.0023 (   3)  0.0022 (   8)  0.0018 (   1)

   *** GEOMETRY OPTIMIZATION CONVERGED AFTER 167 ITERATIONS ***

------------------------------------------------------------------------
 total energy gain (kcal):     -0.0625
------------------------------------------------------------------------
================
 final structure:
================
$coord
       -0.00560513454404       -2.20121371538200       -1.53242653556680      S 
        0.54746271209108       -0.36652759677271       -3.50799527558392      O 
       -2.55575520935643       -1.90309710530876       -0.54972224280653      O 
        1.86965498468919       -2.01559324826204        0.51465462211957      O 
        0.18928958773132       -4.89605857495022       -2.64662923049561      O 
        1.95638386754348       -4.89809437421298       -3.30357923562323      H 
        2.40519921022827        0.44665672563971        1.45610937993308      H 
       -0.24816548298643        2.11775002234431        5.99033535382425      O 
        0.43767009554339        1.02546655964394        7.26278995450907      H 
       -1.78267800618455        1.24782919346440        5.32387499364330      H 
        0.04016514939742        4.12819836512841       -1.49547981951475      O 
       -1.76359197644982        4.04684771703499       -1.08508073214634      H 
        0.32441159102815        2.63434126118390       -2.57521593812586      H 
        2.54002569230613        2.33780545888947        2.08985831995608      O 
        1.48141727305463        2.39836593450417        3.72246675186980      H 
        1.55199241557799        3.34902965164244        0.67744151259883      H 
       -4.09021022869017       -0.23777960070796        3.97863776636569      O 
       -5.18106331557179        1.01937619316326        3.24351571624363      H 
       -3.46422518131019       -1.21074083950262        2.53824049575677      H 
       -4.76349368644972        2.57147148820301       -0.82752215448619      O 
       -4.05683959688387        0.85177848605975       -0.87597364353973      H 
       -5.78806125799650        2.73532303153621       -2.31173191612628      H 
        4.74691334781269       -3.65730114498151       -3.99575111004421      N 
        5.63987570954843       -3.44061535731438       -2.31842344170458      H 
        3.93013288668714       -1.97768562979048       -4.43991253427646      H 
        6.03909455317540       -4.10553288237956       -5.33248105676101      H 
$end
 
 Bond Distances (Angstroems)
 ---------------------------
S1-O2=1.4564         S1-O3=1.4548         S1-O4=1.4724         S1-O5=1.5466         O2-S1=1.4564         O3-S1=1.4548         
O4-S1=1.4724         O5-S1=1.5466         O5-H6=0.9976         H6-O5=0.9976         H7-O14=1.0579        O8-H9=0.9588         
O8-H10=0.9978        H9-O8=0.9588         H10-O8=0.9978        O11-H12=0.9798       O11-H13=0.9869       H12-O11=0.9798       
H13-O11=0.9869       O14-H7=1.0579        O14-H15=1.0302       O14-H16=1.0575       H15-O14=1.0302       H16-O14=1.0575       
O17-H18=0.9629       O17-H19=0.9777       H18-O17=0.9629       H19-O17=0.9777       O20-H21=0.9842       O20-H22=0.9583       
H21-O20=0.9842       H22-O20=0.9583       N23-H24=1.0121       N23-H25=1.0159       N23-H26=1.0120       H24-N23=1.0121       
H25-N23=1.0159       H26-N23=1.0120       
 N  H  Rav=1.0133 sigma=0.0018  Rmin=1.0120  Rmax=1.0159     3
 O  H  Rav=0.9958 sigma=0.0336  Rmin=0.9583  Rmax=1.0579    12
 S  O  Rav=1.4825 sigma=0.0376  Rmin=1.4548  Rmax=1.5466     4
 
 selected bond angles (degree)
 --------------------
O3-S1-O2=111.76                O4-S1-O2=110.38                O4-S1-O3=110.79                O5-S1-O2=109.12                
O5-S1-O3=107.34                O5-S1-O4=107.28                H6-O5-S1=101.32                H10-O8-H9=106.15               
 
 selected dihedral angles (degree)
 ---------------------------------
H6-O5-S1-O2= 57.18            H6-O5-S1-O3=178.47            H6-O5-S1-O4=297.59            
 
 CMA Distance (Angstroems)
 ---------------------------
R(CMA):  2.2851

========================================================================
 FINAL SINGLEPOINT CALCULATION ON OPTIMIZED GEOMETRY
========================================================================

 Ncao       : 65
 Nao        : 64
 Nshell     : 38
 Nel        : 80
 T(el)      :   300.0
 intcut     :    25.0
 scfconv/Eh :  0.100E-05
   qconv/e  :  0.100E-03
 intneglect :  0.100E-07
 broydamp   :      0.250
 iter      E             dE          RMSdq      gap      omega  full diag
   1    -50.7333245 -0.507333E+02  0.279E-05    9.10       0.0  T
   2    -50.7333245 -0.123634E-11  0.184E-05    9.10    1067.0  T
   3    -50.7333245 -0.724754E-12  0.509E-06    9.10    3852.7  T
speedup  1.11
cpu  time for SCC    0.00 s
wall time for SCC    0.00 s

   *** convergence criteria satisfied after 3 iterations ***

          eigenvalues
 #    :          28         29         30         31         32         33         34         35
 occ. :        2.000      2.000      2.000      2.000      2.000      2.000      2.000      2.000
 eps  :       -13.732    -13.148    -12.609    -12.467    -12.393    -12.322    -12.256    -12.227
 #    :          36         37         38         39         40         41         42         43
 occ. :        2.000      2.000      2.000      2.000      2.000      0.000      0.000      0.000
 eps  :       -12.128    -12.054    -11.911    -11.783    -11.293     -2.196     -0.209     -0.064
 #    :          44         45         46         47         48         49         50         51
 occ. :        0.000      0.000      0.000      0.000      0.000      0.000      0.000      0.000
 eps  :         0.678      0.977      1.105      1.766      2.050      4.216      4.839      5.058


   #   Z            q   n(s)   n(p)   n(d)      C6AA      α(0)
   1  16 S      1.689  1.586  1.778  0.946    89.012    15.879
   2   8 O     -0.762  1.774  4.988  0.000    30.458     7.399
   3   8 O     -0.739  1.759  4.980  0.000    29.787     7.317
   4   8 O     -0.755  1.774  4.981  0.000    30.191     7.369
   5   8 O     -0.602  1.754  4.848  0.000    25.200     6.777
   6   1 H      0.362  0.638  0.000  0.000     0.552     1.163
   7   1 H      0.383  0.617  0.000  0.000     0.513     1.122
   8   8 O     -0.605  1.748  4.856  0.000    25.294     6.788
   9   1 H      0.295  0.705  0.000  0.000     0.736     1.348
  10   1 H      0.346  0.654  0.000  0.000     0.599     1.216
  11   8 O     -0.614  1.756  4.858  0.000    25.492     6.816
  12   1 H      0.331  0.669  0.000  0.000     0.634     1.251
  13   1 H      0.331  0.669  0.000  0.000     0.635     1.251
  14   8 O     -0.521  1.732  4.789  0.000    23.299     6.519
  15   1 H      0.382  0.618  0.000  0.000     0.519     1.131
  16   1 H      0.383  0.617  0.000  0.000     0.515     1.126
  17   8 O     -0.605  1.745  4.859  0.000    25.298     6.788
  18   1 H      0.309  0.691  0.000  0.000     0.693     1.308
  19   1 H      0.328  0.672  0.000  0.000     0.643     1.260
  20   8 O     -0.621  1.746  4.875  0.000    25.698     6.842
  21   1 H      0.329  0.671  0.000  0.000     0.641     1.258
  22   1 H      0.287  0.713  0.000  0.000     0.760     1.370
  23   7 N     -0.457  1.363  4.094  0.000    32.019     8.404
  24   1 H      0.172  0.828  0.000  0.000     1.262     1.760
  25   1 H      0.185  0.815  0.000  0.000     1.185     1.706
  26   1 H      0.168  0.832  0.000  0.000     1.282     1.774

 Mol. C6AA /au·bohr⁶  :       5479.197176
 Mol. C8AA /au·bohr⁸  :     118438.332344
 Mol. α(0) /au        :        106.941819

 
 Wiberg/Mayer (AO) data. WBOs > 0.1 written file <wbo>
 largest (>0.05) Wiberg bond orders for each atom
           total WBO             WBO to atom ...
     1  S   4.834    O    3 1.305    O    2 1.288    O    4 1.221    O    5 0.973
     2  O   1.700    S    1 1.288    O    4 0.107    O    3 0.106    O    5 0.080    H   13 0.064
     3  O   1.736    S    1 1.305    O    2 0.106    O    4 0.103    O    5 0.066    H   21 0.062
     4  O   1.738    S    1 1.221    H    7 0.177    O    2 0.107    O    3 0.103    O    5 0.072    O   14 0.053
     5  O   1.985    S    1 0.973    H    6 0.735    O    2 0.080    O    4 0.072    O    3 0.066
     6  H   0.869    O    5 0.735    N   23 0.117
     7  H   0.854    O   14 0.668    O    4 0.177
     8  O   1.939    H    9 0.910    H   10 0.784    H   15 0.146    O   14 0.053
     9  H   0.913    O    8 0.910
    10  H   0.881    O    8 0.784    O   17 0.095
    11  O   1.974    H   12 0.834    H   13 0.821    H   16 0.189    O   14 0.066
    12  H   0.890    O   11 0.834    O   20 0.053
    13  H   0.890    O   11 0.821    O    2 0.064
    14  O   2.228    H   15 0.705    H    7 0.668    H   16 0.661    O   11 0.066    O    8 0.053    O    4 0.053
    15  H   0.854    O   14 0.705    O    8 0.146
    16  H   0.853    O   14 0.661    O   11 0.189
    17  O   1.905    H   18 0.896    H   19 0.841    H   10 0.095
    18  H   0.904    O   17 0.896
    19  H   0.893    O   17 0.841
    20  O   1.859    H   22 0.914    H   21 0.823    H   12 0.053
    21  H   0.892    O   20 0.823    O    3 0.062
    22  H   0.917    O   20 0.914
    23  N   3.057    H   24 0.968    H   26 0.966    H   25 0.948    H    6 0.117
    24  H   0.971    N   23 0.968
    25  H   0.966    N   23 0.948
    26  H   0.972    N   23 0.966
 MOs/occ written to file <molden.input>
 
molecular dipole:
                 x           y           z       tot (Debye)
 q only:        0.803       0.501       0.413
   full:        0.733      -0.109      -0.187       1.943
molecular quadrupole (traceless):
                xx          xy          yy          xz          yz          zz
 q only:        5.573      -7.889      -8.593      -0.300       2.287       3.020
  q+dip:        9.615      -9.938     -13.920      -0.060       0.112       4.305
   full:        9.502     -10.558     -13.778      -0.009       0.438       4.276

SCC energy    :     -50.7333245
rep           :       0.2745653
ES            :       0.2448475
AES           :      -0.0689299
AXC           :      -0.0081681
disp          :      -0.0191896
XB            :       0.0000000
fix           :       0.0000000
total E       :     -50.4585242
atomizationE  :       4.9888283     3130.54
(atE without considering molecular charge,
 total energy contains solvation terms)
H-L gap (eV)  :          9.0974
optimized geometry written to: xtbopt.xyz


------------------------------------------------------------------------
 * finished run on 2019/09/16 at 12:28:27.702     
------------------------------------------------------------------------
 total:
 * wall-time:     0 d,  0 h,  0 min,  3.515 sec
 *  cpu-time:     0 d,  0 h,  0 min,  3.463 sec
 * ratio c/w:     0.985 speedup
 SCF:
 * wall-time:     0 d,  0 h,  0 min,  0.148 sec
 *  cpu-time:     0 d,  0 h,  0 min,  0.145 sec
 * ratio c/w:     0.978 speedup
 ANC optimizer:
 * wall-time:     0 d,  0 h,  0 min,  3.341 sec
 *  cpu-time:     0 d,  0 h,  0 min,  3.295 sec
 * ratio c/w:     0.986 speedup

