      -----------------------------------------------------------      
     |                   =====================                   |     
     |                           x T B                           |     
     |                   =====================                   |     
     |                         S. Grimme                         |     
     |          Mulliken Center for Theoretical Chemistry        |     
     |                    University of Bonn                     |     
     |                 Version 6.0.1 (SAW181210)                 |     
      -----------------------------------------------------------      

   This program is distributed in the hope that it will be useful,
   but WITHOUT ANY WARRANTY; without even the implied warranty of
   MERCHANTABILITY or FITNESS FOR A PARTICULAR PURPOSE.
   
   FOR NON-COMMERCIAL, ACADEMIA USE ONLY.
   
   Cite this work as:
   S. Grimme, C. Bannwarth, P. Shushkov, J. Comput. Theory Chem., 2017,
   13, 1989-2009.
   C. Bannwarth, S. Ehlert and S. Grimme., ChemRxiv, 2018, preprint.
   http://doi.org/10.26434/chemrxiv.7246238.v1
   
   for sTDA-xTB:
   S. Grimme and C. Bannwarth, J. Chem. Phys., 2016, 145, 054103.
   
   in the mass-spec context:
   V. Asgeirsson, C. Bauer and S. Grimme, Chem. Sci., 2017, 8, 4879.
   
   if GBSA is used:
   P. Shushkov, F. März and S. Grimme, unpublished.
   
   for ANC optimizer:
   S. Grimme, unpublished.
   Rational Function algorithm used in ANCopt:
   F. Eckert, P. Pulay, H.-J. Werner, J. Comput. Chem., 1997, 18, 1473.
   
   with help from (in alphabetical order)
   C. Bannwarth, F. Bohle, G. Brandenburg, E. Caldeweyher, M. Checinski,
   S. Dohm, S. Ehlert, S. Ehrlich, F. März, H. Neugebauer, J. Pisarek,
   P. Pracht, P. Shushkov, and S. Spicher.
   
 * started run on 2019/09/16 at 11:33:31.959     
========================================================================
 # omp threads = 1
========================================================================
number of atoms            : 26
number of electrons        : 80
charge                     : 0
spin                       : .0
first test random number   : .9234

########################################################################
# WARNING! Please study the warnings concerning your input carefully
#  - XTBPATH is not set, using XTBHOME instead
#  - the use of '-opt' is discouraged, please use '--opt' next time
#  - the use of '-chrg' is discouraged, please use '--chrg' next time
#  - the use of '-uhf' is discouraged, please use '--uhf' next time
########################################################################

           ------------------------------------------------- 
          |                 G F N 2 - x T B                 |
          | Geometry, Frequencies, Noncovalent interactions |
          |            JCTC 2018 parametrisation            |
           ------------------------------------------------- 
      method parameters     
 k(s)        :  1.8500
 k(p)        :  2.2300
 k(d)        :  2.2300
 k(f)        :  2.0000
 kEN (H0ij)  : -2.0000
 D4 a1       :  0.5200
 D4 a2       :  5.0000
 D4 s6       :  1.0000
 D4 s8       :  2.7000
 D4 s9       :  5.0000
 alphaj      :  2.0000


            Z     q(EN)     CN     RAES       Cart. coordinates
     1  S   6.0    0.61    4.53    4.60    -2.73680     0.87413     1.69902
     2  O   6.0   -0.32    1.20    1.80    -2.96021    -1.51526     0.22625
     3  O   6.0   -0.31    1.20    1.80    -1.82712     2.93573     0.01071
     4  O   6.0   -0.27    2.13    1.84    -0.93040     0.51493     3.77758
     5  O   6.0   -0.25    2.10    1.84    -5.22009     1.55662     2.73826
     6  H   1.0    0.16    1.29    1.49    -5.12241     1.61943     4.54868
     7  H   1.0    0.18    1.38    1.53     0.69211     0.06905     3.09955
     8  O   6.0   -0.39    1.63    1.81     3.06199    -0.50405     1.60066
     9  H   1.0    0.17    0.95    1.42     4.57356    -1.06140     2.54315
    10  O   6.0   -0.29    2.01    1.83    -4.85560     1.66006     7.77612
    11  H   1.0    0.14    0.97    1.43    -6.22133     2.09271     8.89960
    12  H   1.0    0.15    0.97    1.43    -3.46126     1.21934     8.86065
    13  O   6.0   -0.28    2.01    1.83     1.31219    -4.57760    -0.01151
    14  H   1.0    0.18    1.11    1.45     2.23291    -3.15076     0.64500
    15  H   1.0    0.16    1.01    1.43    -0.44601    -4.14972     0.18918
    16  O   6.0   -0.29    2.00    1.83    -0.26266    -2.15460    -4.20166
    17  H   1.0    0.17    1.01    1.43    -1.71242    -1.80993    -3.15571
    18  H   1.0    0.15    1.01    1.43     0.70243    -3.40129    -3.29118
    19  O   6.0   -0.22    2.92    2.59     2.72061     2.40308    -1.84599
    20  H   1.0    0.12    1.06    1.44     2.99364     1.68898    -3.55050
    21  H   1.0    0.15    1.03    1.43     0.98650     3.06464    -1.63333
    22  H   1.0    0.16    1.20    1.47     3.17619     1.19098    -0.49886
    23  N   5.0   -0.22    3.05    1.93     3.44094     0.70831    -6.67920
    24  H   1.0    0.12    1.03    1.43     2.00453    -0.51346    -6.28540
    25  H   1.0    0.10    0.99    1.43     4.94250    -0.39199    -7.17490
    26  H   1.0    0.10    0.99    1.43     2.91621     1.63207    -8.28619

  Z AO/shell   Hii/eV     exponent
  1     Wed Apr 25 08:07:45 CEST 2018   EN: 2.200 GM2: 0.406  GM3: 0.0800  RAES: 1.40
     1s    -10.707211    1.230000
  7     Wed Apr 25 08:07:45 CEST 2018   EN: 3.040 GM2: 0.461  GM3:-0.0640  RAES: 1.90
     2s    -16.686243    2.339881
     2p    -12.523956    2.014332
  8     Wed Apr 25 08:07:45 CEST 2018   EN: 3.440 GM2: 0.452  GM3:-0.0517  RAES: 1.80
     2s    -20.229985    2.439742
     2p    -15.503117    2.137023
 16     Tue Apr 24 11:44:34 CEST 2018   EN: 2.580 GM2: 0.340  GM3:-0.0502  RAES: 3.10
     3s    -20.029654    1.981333
     3p    -11.377694    2.025643
     3d     -0.420282    1.702555
 no old-style atom pair restraining (fixing) potential

molecular fragmentation (1/2 indicates fragments):
11111112222222222222222222
# atoms in fragment 1/2:     7    19
 fragment masses (1/2) :       98.07      107.11
CMA distance (Bohr)    :   4.419
constraining FC (au)   :  0.0500
           ------------------------------------------------- 
          |        Self-Consistent Charge Iterations        |
           ------------------------------------------------- 

 Ncao       : 65
 Nao        : 64
 Nshell     : 38
 Nel        : 80
 T(el)      :   300.0
 intcut     :    25.0
 scfconv/Eh :  0.100E-05
   qconv/e  :  0.100E-03
 intneglect :  0.100E-07
 broydamp   :      0.250
 iter      E             dE          RMSdq      gap      omega  full diag
   1    -50.5783463 -0.505783E+02  0.707E+00   10.32       0.0  T
   2    -50.6330094 -0.546631E-01  0.510E+00    9.49       1.0  T
   3    -50.6724600 -0.394506E-01  0.140E+00    6.84       1.0  T
   4    -50.6787971 -0.633714E-02  0.605E-01    7.09       1.0  T
   5    -50.6794694 -0.672236E-03  0.370E-01    7.02       1.0  T
   6    -50.6801681 -0.698745E-03  0.158E-01    7.12       1.0  T
   7    -50.6803316 -0.163528E-03  0.564E-02    7.12       1.0  T
   8    -50.6803478 -0.161652E-04  0.365E-02    7.12       1.0  T
   9    -50.6803568 -0.896818E-05  0.115E-02    7.13       1.7  T
  10    -50.6803577 -0.880869E-06  0.241E-03    7.14       8.1  T
  11    -50.6803577 -0.151621E-07  0.122E-03    7.13      16.1  T
  12    -50.6803577 -0.639460E-08  0.368E-04    7.14      53.3  T
  13    -50.6803577 -0.626429E-09  0.128E-04    7.14     153.8  T
speedup  1.03
cpu  time for SCC    0.02 s
wall time for SCC    0.02 s

   *** convergence criteria satisfied after 13 iterations ***

          eigenvalues
 #    :          28         29         30         31         32         33         34         35
 occ. :        2.000      2.000      2.000      2.000      2.000      2.000      2.000      2.000
 eps  :       -12.881    -12.670    -12.485    -12.322    -12.163    -12.085    -11.635    -11.503
 #    :          36         37         38         39         40         41         42         43
 occ. :        2.000      2.000      2.000      2.000      2.000      0.000      0.000      0.000
 eps  :       -11.058    -10.863    -10.207    -10.105     -9.571     -2.436     -1.108     -0.002
 #    :          44         45         46         47         48         49         50         51
 occ. :        0.000      0.000      0.000      0.000      0.000      0.000      0.000      0.000
 eps  :         0.199      0.790      0.825      2.298      3.444      4.120      5.288      5.317


   #   Z            q   n(s)   n(p)   n(d)      C6AA      α(0)
   1  16 S      1.720  1.575  1.769  0.937    88.328    15.818
   2   8 O     -0.724  1.774  4.950  0.000    29.382     7.268
   3   8 O     -0.734  1.767  4.968  0.000    29.657     7.301
   4   8 O     -0.602  1.724  4.878  0.000    25.201     6.777
   5   8 O     -0.560  1.719  4.841  0.000    24.212     6.643
   6   1 H      0.403  0.597  0.000  0.000     0.472     1.075
   7   1 H      0.415  0.585  0.000  0.000     0.450     1.049
   8   8 O     -0.872  1.841  5.031  0.000    33.834     7.800
   9   1 H      0.215  0.785  0.000  0.000     1.047     1.608
  10   8 O     -0.585  1.738  4.847  0.000    24.840     6.727
  11   1 H      0.308  0.692  0.000  0.000     0.697     1.311
  12   1 H      0.315  0.685  0.000  0.000     0.679     1.294
  13   8 O     -0.666  1.757  4.909  0.000    26.817     6.989
  14   1 H      0.315  0.685  0.000  0.000     0.676     1.291
  15   1 H      0.288  0.712  0.000  0.000     0.759     1.368
  16   8 O     -0.638  1.738  4.900  0.000    26.118     6.898
  17   1 H      0.302  0.698  0.000  0.000     0.716     1.329
  18   1 H      0.316  0.684  0.000  0.000     0.673     1.289
  19   8 O     -0.447  1.651  4.796  0.000    21.733     6.296
  20   1 H      0.388  0.612  0.000  0.000     0.506     1.118
  21   1 H      0.394  0.606  0.000  0.000     0.495     1.106
  22   1 H      0.407  0.593  0.000  0.000     0.465     1.068
  23   7 N     -0.464  1.385  4.079  0.000    32.225     8.431
  24   1 H      0.209  0.791  0.000  0.000     1.060     1.612
  25   1 H      0.150  0.850  0.000  0.000     1.403     1.855
  26   1 H      0.147  0.853  0.000  0.000     1.420     1.867

 Mol. C6AA /au·bohr⁶  :       5504.701155
 Mol. C8AA /au·bohr⁸  :     118822.960845
 Mol. α(0) /au        :        107.185972

 
 Wiberg/Mayer (AO) data. WBOs > 0.1 written file <wbo>
 largest (>0.05) Wiberg bond orders for each atom
           total WBO             WBO to atom ...
     1  S   4.803    O    2 1.328    O    3 1.310    O    4 1.070    O    5 1.049
     2  O   1.697    S    1 1.328    O    3 0.132    O    4 0.093    O    5 0.077
     3  O   1.694    S    1 1.310    O    2 0.132    O    4 0.092    O    5 0.073    H   21 0.059
     4  O   2.003    S    1 1.070    H    7 0.643    O    2 0.093    O    3 0.092    O    5 0.052
     5  O   2.045    S    1 1.049    H    6 0.759    O    2 0.077    O    3 0.073    O    4 0.052
     6  H   0.837    O    5 0.759    O   10 0.055
     7  H   0.827    O    4 0.643    O    8 0.165
     8  O   1.581    H    9 0.944    H   22 0.195    H    7 0.165    H   14 0.104    O   19 0.060
     9  H   0.954    O    8 0.944
    10  O   1.869    H   11 0.901    H   12 0.895    H    6 0.055
    11  H   0.905    O   10 0.901
    12  H   0.901    O   10 0.895
    13  O   1.814    H   15 0.892    H   14 0.795
    14  H   0.901    O   13 0.795    O    8 0.104
    15  H   0.917    O   13 0.892
    16  O   1.826    H   17 0.877    H   18 0.857
    17  H   0.909    O   16 0.877
    18  H   0.900    O   16 0.857
    19  O   2.293    H   21 0.778    H   20 0.749    H   22 0.633    O    8 0.060
    20  H   0.849    O   19 0.749    N   23 0.090
    21  H   0.844    O   19 0.778    O    3 0.059
    22  H   0.834    O   19 0.633    O    8 0.195
    23  N   3.017    H   25 0.974    H   26 0.974    H   24 0.918    H   20 0.090
    24  H   0.956    N   23 0.918
    25  H   0.978    N   23 0.974
    26  H   0.978    N   23 0.974
 MOs/occ written to file <molden.input>
 
molecular dipole:
                 x           y           z       tot (Debye)
 q only:       -0.171       1.848       1.229
   full:       -0.478       1.622       2.061       6.776
molecular quadrupole (traceless):
                xx          xy          yy          xz          yz          zz
 q only:       -3.570       1.112     -21.175     -23.470       1.966      24.745
  q+dip:       -5.692      -1.144     -28.430     -27.152       4.345      34.122
   full:       -4.705      -1.843     -29.315     -27.158       4.162      34.021

SCC energy    :     -50.6803577
rep           :       0.3024353
ES            :       0.2783049
AES           :      -0.0618757
AXC           :      -0.0066563
disp          :      -0.0181781
XB            :       0.0000000
fix           :       0.0000000
total E       :     -50.3777772
atomizationE  :       4.9080814     3079.87
(atE without considering molecular charge,
 total energy contains solvation terms)
H-L gap (eV)  :          7.1351
           ------------------------------------------------- 
          |                 ===============                 |
          |                   A N C O P T                   |
          |                 ===============                 |
          |          Approximate Normal Coordinate          |
          |           Rational Function Optimizer           |
           ------------------------------------------------- 
dumping coords to <xtbopt.coord> and <xtbopt.log>
 optlevel               2
 Maxcycle             520
 Maxmicro              25
 Econv         1.000000000000000E-007
 Gconv         2.000000000000000E-004
 Maxdispl       1.00000000000000     
 Hlow          5.000000000000000E-003
 S6             20.0000000000000     
 Nvar               72

generating ANC from model Hessian ...
 Shifting diagonal of input Hessian by   5.156736109881956E-003
 Lowest  eigenvalues of input Hessian
    0.005000   -0.000000   -0.000000   -0.000000   -0.000000    0.000000
    0.000000    0.005317    0.005604    0.005671    0.005841    0.006175
    0.006407    0.007069    0.007253    0.008291    0.008456    0.008693
 Highest eigenvalues
    1.565151    1.573883    1.587116    3.212795    3.415173    3.465895
 
cpu  time for ANC gen    0.02 s
wall time for ANC gen    0.02 s
................................................................................
.............................. CYCLE    1 ......................................
................................................................................
   1    -50.6803577 -0.506804E+02  0.784E-05    7.14       0.0  T
   2    -50.6803577 -0.158664E-10  0.600E-05    7.14     326.8  T
   3    -50.6803577 -0.144738E-10  0.328E-05    7.14     597.7  T
speedup  1.03
cpu  time for SCC    0.00 s
wall time for SCC    0.00 s
speedup  1.00
cpu  time for grad    0.01 s
wall time for grad    0.01 s
 E :    -50.37777719  G :  0.218259    pred/act E change:  0.000D+00  0.420D-07
Maxdispl :   0.1359   ||displ|| :   0.2986   Lambda : -0.301D-01
Largest |displ|/coords:  0.1359 (  21)  0.1332 (  25)  0.0769 (  43)
................................................................................
.............................. CYCLE    2 ......................................
................................................................................
   1    -50.6865094 -0.506865E+02  0.328E-01    7.38       0.0  T
   2    -50.6867827 -0.273302E-03  0.252E-01    7.48       1.0  T
   3    -50.6868893 -0.106544E-03  0.114E-01    7.64       1.0  T
   4    -50.6869006 -0.113798E-04  0.294E-02    7.67       1.0  T
   5    -50.6869023 -0.163602E-05  0.530E-03    7.66       3.7  T
   6    -50.6869023 -0.392623E-07  0.311E-03    7.66       6.3  T
speedup  1.15
cpu  time for SCC    0.01 s
wall time for SCC    0.01 s
speedup  1.02
cpu  time for grad    0.01 s
wall time for grad    0.01 s
 E :    -50.40119955  G :  0.134143    pred/act E change:  0.000D+00 -0.234D-01
Maxdispl :   0.1250   ||displ|| :   0.3288   Lambda : -0.148D-01
Largest |displ|/coords:  0.1250 (  25)  0.1198 (  21)  0.1060 (  17)
................................................................................
.............................. CYCLE    3 ......................................
................................................................................
   1    -50.6915468 -0.506915E+02  0.295E-01    7.82       0.0  T
   2    -50.6918949 -0.348088E-03  0.219E-01    7.94       1.0  T
   3    -50.6920233 -0.128433E-03  0.115E-01    8.10       1.0  T
   4    -50.6920300 -0.672203E-05  0.274E-02    8.15       1.0  T
   5    -50.6920319 -0.183721E-05  0.575E-03    8.13       3.4  T
   6    -50.6920319 -0.436481E-07  0.337E-03    8.13       5.8  T
speedup  0.98
cpu  time for SCC    0.00 s
wall time for SCC    0.01 s
speedup  0.94
cpu  time for grad    0.01 s
wall time for grad    0.01 s
 E :    -50.41333381  G :  0.083466    pred/act E change: -0.164D-01 -0.121D-01
Maxdispl :   0.1658   ||displ|| :   0.3557   Lambda : -0.855D-02
Largest |displ|/coords:  0.1658 (  25)  0.1322 (  17)  0.1130 (  21)
................................................................................
.............................. CYCLE    4 ......................................
................................................................................
   1    -50.6945220 -0.506945E+02  0.264E-01    8.12       0.0  T
   2    -50.6948328 -0.310765E-03  0.193E-01    8.18       1.0  T
   3    -50.6949510 -0.118169E-03  0.974E-02    8.27       1.0  T
   4    -50.6949574 -0.642761E-05  0.259E-02    8.30       1.0  T
   5    -50.6949590 -0.165435E-05  0.579E-03    8.29       3.4  T
   6    -50.6949591 -0.487047E-07  0.335E-03    8.29       5.8  T
speedup  0.96
cpu  time for SCC    0.00 s
wall time for SCC    0.01 s
speedup  0.94
cpu  time for grad    0.01 s
wall time for grad    0.01 s
 E :    -50.42028985  G :  0.051352    pred/act E change: -0.819D-02 -0.696D-02
Maxdispl :   0.1391   ||displ|| :   0.3591   Lambda : -0.483D-02
Largest |displ|/coords:  0.1391 (   8)  0.1374 (  17)  0.1288 (   5)
................................................................................
.............................. CYCLE    5 ......................................
................................................................................
   1    -50.6958780 -0.506959E+02  0.239E-01    8.20       0.0  T
   2    -50.6960623 -0.184348E-03  0.176E-01    8.26       1.0  T
   3    -50.6961337 -0.713708E-04  0.740E-02    8.35       1.0  T
   4    -50.6961407 -0.697319E-05  0.208E-02    8.36       1.0  T
   5    -50.6961419 -0.120331E-05  0.480E-03    8.36       4.1  T
   6    -50.6961419 -0.300942E-07  0.272E-03    8.36       7.2  T
speedup  0.96
cpu  time for SCC    0.00 s
wall time for SCC    0.01 s
speedup  1.02
cpu  time for grad    0.01 s
wall time for grad    0.01 s
 E :    -50.42426388  G :  0.035525    pred/act E change: -0.481D-02 -0.397D-02
Maxdispl :   0.2156   ||displ|| :   0.5655   Lambda : -0.659D-02
Largest |displ|/coords:  0.2156 (  25)  0.2026 (   8)  0.1959 (  17)
................................................................................
.............................. CYCLE    6 ......................................
................................................................................
   1    -50.7003210 -0.507003E+02  0.392E-01    8.23       0.0  T
   2    -50.7009269 -0.605906E-03  0.286E-01    8.32       1.0  T
   3    -50.7011607 -0.233817E-03  0.122E-01    8.46       1.0  T
   4    -50.7011817 -0.210273E-04  0.375E-02    8.49       1.0  T
   5    -50.7011850 -0.326828E-05  0.880E-03    8.48       2.2  T
   6    -50.7011851 -0.121271E-06  0.504E-03    8.48       3.9  T
   7    -50.7011851 -0.368712E-07  0.140E-03    8.48      14.0  T
speedup  1.13
cpu  time for SCC    0.01 s
wall time for SCC    0.01 s
speedup  1.01
cpu  time for grad    0.01 s
wall time for grad    0.01 s
 E :    -50.42764971  G :  0.033245    pred/act E change: -0.273D-02 -0.339D-02
Maxdispl :   0.2359   ||displ|| :   0.5207   Lambda : -0.417D-02
Largest |displ|/coords:  0.2359 (   5)  0.1865 (   8)  0.1687 (   6)
................................................................................
.............................. CYCLE    7 ......................................
................................................................................
   1    -50.6985430 -0.506985E+02  0.385E-01    8.34       0.0  T
   2    -50.6987627 -0.219760E-03  0.284E-01    8.37       1.0  T
   3    -50.6988505 -0.878275E-04  0.770E-02    8.41       1.0  T
   4    -50.6988744 -0.238684E-04  0.238E-02    8.41       1.0  T
   5    -50.6988760 -0.161848E-05  0.693E-03    8.41       2.8  T
   6    -50.6988761 -0.913574E-07  0.430E-03    8.41       4.6  T
   7    -50.6988761 -0.214819E-07  0.939E-04    8.41      20.9  T
speedup  0.97
cpu  time for SCC    0.01 s
wall time for SCC    0.01 s
speedup  1.01
cpu  time for grad    0.01 s
wall time for grad    0.01 s
 E :    -50.42900316  G :  0.037800    pred/act E change: -0.435D-02 -0.135D-02
Maxdispl :   0.1337   ||displ|| :   0.2822   Lambda : -0.244D-02
Largest |displ|/coords:  0.1337 (  18)  0.1169 (  12)  0.0889 (   6)
................................................................................
.............................. CYCLE    8 ......................................
................................................................................
   1    -50.7022365 -0.507022E+02  0.243E-01    8.37       0.0  T
   2    -50.7022682 -0.317063E-04  0.184E-01    8.39       1.0  T
   3    -50.7022898 -0.216260E-04  0.334E-02    8.43       1.0  T
   4    -50.7022941 -0.430778E-05  0.110E-02    8.42       1.8  T
   5    -50.7022943 -0.237175E-06  0.336E-03    8.41       5.8  T
   6    -50.7022943 -0.100545E-07  0.190E-03    8.41      10.3  T
speedup  0.94
cpu  time for SCC    0.00 s
wall time for SCC    0.01 s
speedup  1.01
cpu  time for grad    0.01 s
wall time for grad    0.01 s
 E :    -50.42986935  G :  0.030725    pred/act E change: -0.265D-02 -0.866D-03
Maxdispl :   0.1586   ||displ|| :   0.3656   Lambda : -0.301D-02
Largest |displ|/coords:  0.1586 (  11)  0.1220 (   3)  0.1207 (  16)
................................................................................
.............................. CYCLE    9 ......................................
................................................................................
   1    -50.6980698 -0.506981E+02  0.344E-01    8.52       0.0  T
   2    -50.6981245 -0.546805E-04  0.260E-01    8.53       1.0  T
   3    -50.6981554 -0.308901E-04  0.435E-02    8.57       1.0  T
   4    -50.6981638 -0.846656E-05  0.163E-02    8.56       1.2  T
   5    -50.6981643 -0.513157E-06  0.408E-03    8.56       4.8  T
   6    -50.6981644 -0.130482E-07  0.244E-03    8.56       8.0  T
speedup  1.15
cpu  time for SCC    0.01 s
wall time for SCC    0.01 s
speedup  1.02
cpu  time for grad    0.01 s
wall time for grad    0.01 s
 E :    -50.43057347  G :  0.037288    pred/act E change: -0.132D-02 -0.704D-03
Maxdispl :   0.2624   ||displ|| :   0.4148   Lambda : -0.379D-02
Largest |displ|/coords:  0.2624 (   6)  0.1591 (  11)  0.1051 (  13)
................................................................................
.............................. CYCLE   10 ......................................
................................................................................
   1    -50.7135090 -0.507135E+02  0.552E-01    8.81       0.0  T
   2    -50.7136485 -0.139497E-03  0.418E-01    8.82       1.0  T
   3    -50.7137478 -0.992629E-04  0.654E-02    8.83       1.0  T
   4    -50.7137685 -0.206875E-04  0.113E-02    8.84       1.7  T
   5    -50.7137687 -0.207556E-06  0.645E-03    8.84       3.0  T
   6    -50.7137687 -0.217211E-07  0.285E-03    8.84       6.9  T
   7    -50.7137687 -0.117300E-07  0.581E-04    8.84      33.8  T
speedup  1.00
cpu  time for SCC    0.01 s
wall time for SCC    0.01 s
speedup  0.95
cpu  time for grad    0.01 s
wall time for grad    0.01 s
 E :    -50.43038661  G :  0.043648    pred/act E change: -0.170D-02  0.187D-03
Maxdispl :   0.1621   ||displ|| :   0.3444   Lambda : -0.320D-02
Largest |displ|/coords:  0.1621 (   3)  0.1524 (   5)  0.1184 (   6)
................................................................................
.............................. CYCLE   11 ......................................
................................................................................
   1    -50.7088276 -0.507088E+02  0.272E-01    8.80       0.0  T
   2    -50.7088784 -0.508409E-04  0.205E-01    8.80       1.0  T
   3    -50.7089088 -0.303558E-04  0.413E-02    8.80       1.0  T
   4    -50.7089159 -0.710223E-05  0.139E-02    8.80       1.4  T
   5    -50.7089163 -0.426277E-06  0.403E-03    8.80       4.9  T
   6    -50.7089163 -0.153342E-07  0.250E-03    8.80       7.9  T
speedup  0.96
cpu  time for SCC    0.00 s
wall time for SCC    0.01 s
speedup  0.93
cpu  time for grad    0.01 s
wall time for grad    0.01 s
 E :    -50.43192498  G :  0.031280    pred/act E change: -0.222D-02 -0.154D-02
Maxdispl :   0.1542   ||displ|| :   0.4463   Lambda : -0.381D-02
Largest |displ|/coords:  0.1542 (  11)  0.1231 (  18)  0.1228 (  12)
................................................................................
.............................. CYCLE   12 ......................................
................................................................................
   1    -50.6918191 -0.506918E+02  0.452E-01    8.64       0.0  T
   2    -50.6920350 -0.215878E-03  0.338E-01    8.66       1.0  T
   3    -50.6921421 -0.107145E-03  0.829E-02    8.71       1.0  T
   4    -50.6921728 -0.306962E-04  0.224E-02    8.70       1.0  T
   5    -50.6921740 -0.118584E-05  0.818E-03    8.70       2.4  T
   6    -50.6921741 -0.133514E-06  0.512E-03    8.70       3.8  T
   7    -50.6921742 -0.315794E-07  0.827E-04    8.70      23.7  T
speedup  1.00
cpu  time for SCC    0.01 s
wall time for SCC    0.01 s
speedup  1.01
cpu  time for grad    0.01 s
wall time for grad    0.01 s
 E :    -50.43108796  G :  0.056743    pred/act E change: -0.179D-02  0.837D-03
Maxdispl :   0.2170   ||displ|| :   0.4327   Lambda : -0.971D-02
Largest |displ|/coords:  0.2170 (  11)  0.1451 (  20)  0.1281 (  22)
................................................................................
.............................. CYCLE   13 ......................................
................................................................................
   1    -50.7148393 -0.507148E+02  0.518E-01    8.94       0.0  T
   2    -50.7150828 -0.243544E-03  0.387E-01    8.94       1.0  T
   3    -50.7152218 -0.139029E-03  0.893E-02    8.96       1.0  T
   4    -50.7152538 -0.319569E-04  0.256E-02    8.96       1.0  T
   5    -50.7152554 -0.162934E-05  0.961E-03    8.96       2.0  T
   6    -50.7152554 -0.305628E-07  0.473E-03    8.96       4.1  T
   7    -50.7152555 -0.667284E-07  0.104E-03    8.96      18.9  T
speedup  0.97
cpu  time for SCC    0.01 s
wall time for SCC    0.01 s
speedup  1.01
cpu  time for grad    0.01 s
wall time for grad    0.01 s
 E :    -50.43185438  G :  0.055122    pred/act E change: -0.229D-02 -0.766D-03
Maxdispl :   0.1054   ||displ|| :   0.3084   Lambda : -0.593D-02
Largest |displ|/coords:  0.1054 (   6)  0.0934 (  26)  0.0886 (  20)
................................................................................
.............................. CYCLE   14 ......................................
................................................................................
   1    -50.7011248 -0.507011E+02  0.331E-01    8.83       0.0  T
   2    -50.7012488 -0.123980E-03  0.245E-01    8.84       1.0  T
   3    -50.7013134 -0.645867E-04  0.651E-02    8.85       1.0  T
   4    -50.7013277 -0.142552E-04  0.186E-02    8.85       1.1  T
   5    -50.7013286 -0.933213E-06  0.609E-03    8.85       3.2  T
   6    -50.7013286 -0.655212E-07  0.386E-03    8.85       5.1  T
   7    -50.7013287 -0.212115E-07  0.674E-04    8.85      29.1  T
speedup  0.97
cpu  time for SCC    0.01 s
wall time for SCC    0.01 s
speedup  1.01
cpu  time for grad    0.01 s
wall time for grad    0.01 s
 E :    -50.43382714  G :  0.032944    pred/act E change: -0.577D-02 -0.197D-02
Maxdispl :   0.1276   ||displ|| :   0.2433   Lambda : -0.165D-02
Largest |displ|/coords:  0.1276 (   3)  0.1172 (   5)  0.0878 (  13)
................................................................................
.............................. CYCLE   15 ......................................
................................................................................
   1    -50.7033247 -0.507033E+02  0.254E-01    8.92       0.0  T
   2    -50.7033569 -0.321941E-04  0.192E-01    8.93       1.0  T
   3    -50.7033785 -0.216673E-04  0.324E-02    8.94       1.0  T
   4    -50.7033831 -0.457843E-05  0.857E-03    8.95       2.3  T
   5    -50.7033833 -0.137350E-06  0.291E-03    8.95       6.7  T
   6    -50.7033833 -0.800652E-08  0.168E-03    8.95      11.7  T
speedup  0.94
cpu  time for SCC    0.00 s
wall time for SCC    0.01 s
speedup  1.00
cpu  time for grad    0.01 s
wall time for grad    0.01 s
 E :    -50.43436522  G :  0.039196    pred/act E change: -0.324D-02 -0.538D-03
Maxdispl :   0.2247   ||displ|| :   0.3366   Lambda : -0.337D-02
Largest |displ|/coords:  0.2247 (   6)  0.0840 (  11)  0.0766 (  19)
................................................................................
.............................. CYCLE   16 ......................................
................................................................................
   1    -50.7151367 -0.507151E+02  0.298E-01    8.99       0.0  T
   2    -50.7152150 -0.782615E-04  0.222E-01    9.02       1.0  T
   3    -50.7152619 -0.469115E-04  0.505E-02    9.09       1.0  T
   4    -50.7152713 -0.936053E-05  0.109E-02    9.08       1.8  T
   5    -50.7152715 -0.202005E-06  0.466E-03    9.08       4.2  T
   6    -50.7152715 -0.174148E-07  0.242E-03    9.08       8.1  T
speedup  0.96
cpu  time for SCC    0.01 s
wall time for SCC    0.01 s
speedup  1.01
cpu  time for grad    0.01 s
wall time for grad    0.01 s
 E :    -50.43520520  G :  0.046648    pred/act E change: -0.874D-03 -0.840D-03
Maxdispl :   0.1305   ||displ|| :   0.2506   Lambda : -0.264D-02
Largest |displ|/coords:  0.1305 (   6)  0.0713 (   4)  0.0709 (   5)
................................................................................
.............................. CYCLE   17 ......................................
................................................................................
   1    -50.7124898 -0.507125E+02  0.157E-01    9.06       0.0  T
   2    -50.7125141 -0.243263E-04  0.118E-01    9.07       1.0  T
   3    -50.7125282 -0.141193E-04  0.320E-02    9.08       1.0  T
   4    -50.7125315 -0.325708E-05  0.107E-02    9.08       1.8  T
   5    -50.7125317 -0.234067E-06  0.309E-03    9.08       6.3  T
   6    -50.7125317 -0.112027E-07  0.177E-03    9.08      11.1  T
speedup  1.15
cpu  time for SCC    0.01 s
wall time for SCC    0.01 s
speedup  1.01
cpu  time for grad    0.01 s
wall time for grad    0.01 s
 E :    -50.43742942  G :  0.030377    pred/act E change: -0.187D-02 -0.222D-02
Maxdispl :   0.1872   ||displ|| :   0.5685   Lambda : -0.637D-02
Largest |displ|/coords:  0.1872 (  29)  0.1764 (   6)  0.1747 (   5)
................................................................................
.............................. CYCLE   18 ......................................
................................................................................
   1    -50.7082231 -0.507082E+02  0.404E-01    9.00       0.0  T
   2    -50.7083989 -0.175723E-03  0.311E-01    9.02       1.0  T
   3    -50.7085338 -0.134894E-03  0.829E-02    9.07       1.0  T
   4    -50.7085577 -0.239531E-04  0.334E-02    9.07       1.0  T
   5    -50.7085592 -0.153357E-05  0.855E-03    9.07       2.3  T
   6    -50.7085593 -0.104032E-06  0.483E-03    9.07       4.1  T
   7    -50.7085594 -0.576718E-07  0.117E-03    9.07      16.8  T
speedup  1.00
cpu  time for SCC    0.01 s
wall time for SCC    0.01 s
speedup  1.02
cpu  time for grad    0.01 s
wall time for grad    0.01 s
 E :    -50.44114657  G :  0.046493    pred/act E change: -0.140D-02 -0.372D-02
Maxdispl :   0.1514   ||displ|| :   0.3839   Lambda : -0.410D-02
Largest |displ|/coords:  0.1514 (   4)  0.1357 (  24)  0.1207 (  33)
................................................................................
.............................. CYCLE   19 ......................................
................................................................................
   1    -50.7153329 -0.507153E+02  0.250E-01    9.08       0.0  T
   2    -50.7153721 -0.391982E-04  0.188E-01    9.09       1.0  T
   3    -50.7153992 -0.270953E-04  0.371E-02    9.09       1.0  T
   4    -50.7154047 -0.550457E-05  0.106E-02    9.10       1.8  T
   5    -50.7154049 -0.181088E-06  0.407E-03    9.10       4.8  T
   6    -50.7154049 -0.152414E-07  0.194E-03    9.10      10.1  T
speedup  0.96
cpu  time for SCC    0.00 s
wall time for SCC    0.01 s
speedup  1.01
cpu  time for grad    0.01 s
wall time for grad    0.01 s
 E :    -50.44326073  G :  0.046369    pred/act E change: -0.421D-02 -0.211D-02
Maxdispl :   0.1594   ||displ|| :   0.2937   Lambda : -0.396D-02
Largest |displ|/coords:  0.1594 (   4)  0.1115 (  33)  0.0897 (   3)
................................................................................
.............................. CYCLE   20 ......................................
................................................................................
   1    -50.7281466 -0.507281E+02  0.253E-01    9.13       0.0  T
   2    -50.7281939 -0.473686E-04  0.187E-01    9.14       1.0  T
   3    -50.7282188 -0.248252E-04  0.385E-02    9.17       1.0  T
   4    -50.7282250 -0.625927E-05  0.133E-02    9.17       1.5  T
   5    -50.7282253 -0.233486E-06  0.387E-03    9.18       5.1  T
   6    -50.7282253 -0.168466E-07  0.225E-03    9.17       8.7  T
speedup  1.13
cpu  time for SCC    0.01 s
wall time for SCC    0.01 s
speedup  0.99
cpu  time for grad    0.01 s
wall time for grad    0.01 s
 E :    -50.44523280  G :  0.024585    pred/act E change: -0.235D-02 -0.197D-02
Maxdispl :   0.1563   ||displ|| :   0.3640   Lambda : -0.218D-02
Largest |displ|/coords:  0.1563 (   5)  0.1297 (   6)  0.1026 (  21)
................................................................................
.............................. CYCLE   21 ......................................
................................................................................
   1    -50.7245267 -0.507245E+02  0.258E-01    9.15       0.0  T
   2    -50.7245886 -0.619034E-04  0.192E-01    9.17       1.0  T
   3    -50.7246191 -0.305401E-04  0.444E-02    9.21       1.0  T
   4    -50.7246278 -0.868895E-05  0.142E-02    9.20       1.4  T
   5    -50.7246281 -0.260084E-06  0.444E-03    9.20       4.4  T
   6    -50.7246281 -0.265265E-07  0.232E-03    9.20       8.5  T
speedup  0.94
cpu  time for SCC    0.00 s
wall time for SCC    0.01 s
speedup  0.99
cpu  time for grad    0.01 s
wall time for grad    0.01 s
 E :    -50.44574822  G :  0.036481    pred/act E change: -0.215D-02 -0.515D-03
Maxdispl :   0.0944   ||displ|| :   0.2399   Lambda : -0.217D-02
Largest |displ|/coords:  0.0944 (   9)  0.0933 (   2)  0.0917 (   8)
................................................................................
.............................. CYCLE   22 ......................................
................................................................................
   1    -50.7218581 -0.507219E+02  0.181E-01    9.19       0.0  T
   2    -50.7218917 -0.336260E-04  0.135E-01    9.20       1.0  T
   3    -50.7219064 -0.146765E-04  0.329E-02    9.23       1.0  T
   4    -50.7219107 -0.433413E-05  0.811E-03    9.22       2.4  T
   5    -50.7219109 -0.165953E-06  0.262E-03    9.22       7.5  T
   6    -50.7219109 -0.593230E-08  0.149E-03    9.22      13.2  T
speedup  0.93
cpu  time for SCC    0.00 s
wall time for SCC    0.01 s
speedup  0.98
cpu  time for grad    0.01 s
wall time for grad    0.01 s
 E :    -50.44683715  G :  0.022255    pred/act E change: -0.124D-02 -0.109D-02
Maxdispl :   0.1100   ||displ|| :   0.2885   Lambda : -0.174D-02
Largest |displ|/coords:  0.1100 (   2)  0.1040 (  10)  0.0995 (   9)
................................................................................
.............................. CYCLE   23 ......................................
................................................................................
   1    -50.7315590 -0.507316E+02  0.199E-01    9.32       0.0  T
   2    -50.7316232 -0.641217E-04  0.148E-01    9.33       1.0  T
   3    -50.7316486 -0.254199E-04  0.439E-02    9.35       1.0  T
   4    -50.7316564 -0.786711E-05  0.105E-02    9.36       1.9  T
   5    -50.7316566 -0.166516E-06  0.337E-03    9.36       5.8  T
   6    -50.7316566 -0.120922E-07  0.165E-03    9.36      11.9  T
speedup  0.96
cpu  time for SCC    0.00 s
wall time for SCC    0.01 s
speedup  1.00
cpu  time for grad    0.01 s
wall time for grad    0.01 s
 E :    -50.44743929  G :  0.025828    pred/act E change: -0.115D-02 -0.602D-03
Maxdispl :   0.1427   ||displ|| :   0.3287   Lambda : -0.200D-02
Largest |displ|/coords:  0.1427 (   5)  0.1247 (   2)  0.1154 (   8)
................................................................................
.............................. CYCLE   24 ......................................
................................................................................
   1    -50.7263575 -0.507264E+02  0.225E-01    9.40       0.0  T
   2    -50.7264550 -0.975222E-04  0.167E-01    9.40       1.0  T
   3    -50.7264940 -0.390017E-04  0.552E-02    9.40       1.0  T
   4    -50.7265043 -0.103090E-04  0.118E-02    9.40       1.7  T
   5    -50.7265047 -0.324815E-06  0.358E-03    9.40       5.5  T
   6    -50.7265047 -0.108143E-07  0.194E-03    9.40      10.1  T
speedup  1.15
cpu  time for SCC    0.01 s
wall time for SCC    0.01 s
speedup  1.01
cpu  time for grad    0.01 s
wall time for grad    0.01 s
 E :    -50.44837614  G :  0.039515    pred/act E change: -0.942D-03 -0.937D-03
Maxdispl :   0.1370   ||displ|| :   0.3763   Lambda : -0.279D-02
Largest |displ|/coords:  0.1370 (   9)  0.1212 (  24)  0.1165 (   6)
................................................................................
.............................. CYCLE   25 ......................................
................................................................................
   1    -50.7277898 -0.507278E+02  0.252E-01    9.42       0.0  T
   2    -50.7279906 -0.200778E-03  0.181E-01    9.42       1.0  T
   3    -50.7280669 -0.762819E-04  0.676E-02    9.41       1.0  T
   4    -50.7280785 -0.116019E-04  0.137E-02    9.41       1.4  T
   5    -50.7280790 -0.527740E-06  0.501E-03    9.41       3.9  T
   6    -50.7280790 -0.266483E-07  0.240E-03    9.41       8.2  T
speedup  1.15
cpu  time for SCC    0.01 s
wall time for SCC    0.01 s
speedup  1.00
cpu  time for grad    0.01 s
wall time for grad    0.01 s
 E :    -50.45017612  G :  0.033042    pred/act E change: -0.111D-02 -0.180D-02
Maxdispl :   0.1408   ||displ|| :   0.3987   Lambda : -0.264D-02
Largest |displ|/coords:  0.1408 (   2)  0.1404 (   9)  0.1231 (   5)

generating ANC from model Hessian ...
 Shifting diagonal of input Hessian by   4.975442965139036E-003
 Lowest  eigenvalues of input Hessian
   -0.000000   -0.000000   -0.000000    0.000000    0.000000    0.000000
    0.005000    0.005335    0.005495    0.006179    0.006493    0.006709
    0.007296    0.007359    0.008260    0.008692    0.008878    0.009982
 Highest eigenvalues
    1.411450    1.424026    1.427677    2.778961    3.405865    3.504349
 
cpu  time for ANC gen    0.02 s
wall time for ANC gen    0.02 s
................................................................................
.............................. CYCLE   26 ......................................
................................................................................
   1    -50.7316623 -0.507317E+02  0.217E-01    9.40       0.0  T
   2    -50.7317263 -0.640329E-04  0.162E-01    9.40       1.0  T
   3    -50.7317562 -0.298870E-04  0.421E-02    9.39       1.0  T
   4    -50.7317646 -0.836861E-05  0.106E-02    9.39       1.9  T
   5    -50.7317649 -0.279786E-06  0.364E-03    9.39       5.4  T
   6    -50.7317649 -0.120412E-07  0.188E-03    9.39      10.5  T
   7    -50.7317649 -0.777837E-08  0.481E-04    9.39      40.8  T
   8    -50.7317649 -0.605660E-09  0.124E-04    9.39     158.0  T
speedup  1.13
cpu  time for SCC    0.01 s
wall time for SCC    0.01 s
speedup  1.03
cpu  time for grad    0.02 s
wall time for grad    0.02 s
 E :    -50.45178052  G :  0.030258    pred/act E change:  0.000D+00 -0.160D-02
Maxdispl :   0.1703   ||displ|| :   0.3576   Lambda : -0.316D-02
Largest |displ|/coords:  0.1703 (  19)  0.1573 (   5)  0.1183 (   8)
................................................................................
.............................. CYCLE   27 ......................................
................................................................................
   1    -50.7328908 -0.507329E+02  0.307E-01    9.38       0.0  T
   2    -50.7329199 -0.291451E-04  0.232E-01    9.39       1.0  T
   3    -50.7329432 -0.233057E-04  0.352E-02    9.40       1.0  T
   4    -50.7329476 -0.432901E-05  0.950E-03    9.40       2.1  T
   5    -50.7329477 -0.165507E-06  0.407E-03    9.40       4.8  T
   6    -50.7329478 -0.239265E-07  0.189E-03    9.40      10.4  T
speedup  0.96
cpu  time for SCC    0.00 s
wall time for SCC    0.01 s
speedup  1.01
cpu  time for grad    0.01 s
wall time for grad    0.01 s
 E :    -50.45417859  G :  0.024561    pred/act E change:  0.000D+00 -0.240D-02
Maxdispl :   0.2621   ||displ|| :   0.5082   Lambda : -0.286D-02
Largest |displ|/coords:  0.2621 (   5)  0.1926 (   8)  0.1751 (  16)
................................................................................
.............................. CYCLE   28 ......................................
................................................................................
   1    -50.7314395 -0.507314E+02  0.313E-01    9.38       0.0  T
   2    -50.7314816 -0.420968E-04  0.236E-01    9.38       1.0  T
   3    -50.7315097 -0.280985E-04  0.406E-02    9.33       1.0  T
   4    -50.7315165 -0.681990E-05  0.111E-02    9.34       1.8  T
   5    -50.7315167 -0.245271E-06  0.458E-03    9.35       4.3  T
   6    -50.7315168 -0.318808E-07  0.230E-03    9.35       8.5  T
speedup  1.15
cpu  time for SCC    0.01 s
wall time for SCC    0.01 s
speedup  1.00
cpu  time for grad    0.01 s
wall time for grad    0.01 s
 E :    -50.45593606  G :  0.030881    pred/act E change: -0.178D-02 -0.176D-02
Maxdispl :   0.1578   ||displ|| :   0.3774   Lambda : -0.210D-02
Largest |displ|/coords:  0.1578 (   8)  0.1564 (  14)  0.1469 (   5)
................................................................................
.............................. CYCLE   29 ......................................
................................................................................
   1    -50.7369668 -0.507370E+02  0.191E-01    9.32       0.0  T
   2    -50.7370205 -0.537482E-04  0.139E-01    9.32       1.0  T
   3    -50.7370469 -0.263808E-04  0.385E-02    9.31       1.0  T
   4    -50.7370515 -0.463770E-05  0.853E-03    9.31       2.3  T
   5    -50.7370517 -0.197576E-06  0.344E-03    9.31       5.7  T
   6    -50.7370517 -0.116222E-07  0.191E-03    9.31      10.3  T
speedup  0.96
cpu  time for SCC    0.00 s
wall time for SCC    0.01 s
speedup  1.00
cpu  time for grad    0.01 s
wall time for grad    0.01 s
 E :    -50.45680593  G :  0.018293    pred/act E change: -0.180D-02 -0.870D-03
Maxdispl :   0.3079   ||displ|| :   0.3709   Lambda : -0.169D-02
Largest |displ|/coords:  0.3079 (   5)  0.1206 (  19)  0.0784 (  14)
................................................................................
.............................. CYCLE   30 ......................................
................................................................................
   1    -50.7346914 -0.507347E+02  0.230E-01    9.34       0.0  T
   2    -50.7347092 -0.177581E-04  0.174E-01    9.36       1.0  T
   3    -50.7347277 -0.185495E-04  0.250E-02    9.40       1.0  T
   4    -50.7347297 -0.202007E-05  0.895E-03    9.39       2.2  T
   5    -50.7347299 -0.120496E-06  0.335E-03    9.38       5.9  T
   6    -50.7347299 -0.134123E-07  0.158E-03    9.38      12.4  T
   7    -50.7347299 -0.927945E-08  0.361E-04    9.39      54.3  T
speedup  1.00
cpu  time for SCC    0.01 s
wall time for SCC    0.01 s
speedup  1.01
cpu  time for grad    0.01 s
wall time for grad    0.01 s
 E :    -50.45765413  G :  0.018750    pred/act E change: -0.120D-02 -0.848D-03
Maxdispl :   0.1150   ||displ|| :   0.2613   Lambda : -0.120D-02
Largest |displ|/coords:  0.1150 (  19)  0.0903 (   1)  0.0723 (  11)
................................................................................
.............................. CYCLE   31 ......................................
................................................................................
   1    -50.7383992 -0.507384E+02  0.214E-01    9.44       0.0  T
   2    -50.7384097 -0.105394E-04  0.162E-01    9.45       1.0  T
   3    -50.7384191 -0.935467E-05  0.185E-02    9.46       1.1  T
   4    -50.7384204 -0.134209E-05  0.694E-03    9.46       2.8  T
   5    -50.7384205 -0.665559E-07  0.216E-03    9.46       9.1  T
   6    -50.7384205 -0.263162E-08  0.117E-03    9.46      16.8  T
speedup  0.94
cpu  time for SCC    0.00 s
wall time for SCC    0.01 s
speedup  0.99
cpu  time for grad    0.01 s
wall time for grad    0.01 s
 E :    -50.45817128  G :  0.015107    pred/act E change: -0.960D-03 -0.517D-03
Maxdispl :   0.1242   ||displ|| :   0.2478   Lambda : -0.852D-03
Largest |displ|/coords:  0.1242 (   1)  0.1077 (   5)  0.0884 (   4)
................................................................................
.............................. CYCLE   32 ......................................
................................................................................
   1    -50.7404507 -0.507405E+02  0.126E-01    9.46       0.0  T
   2    -50.7404596 -0.890849E-05  0.946E-02    9.46       1.0  T
   3    -50.7404643 -0.475710E-05  0.192E-02    9.46       1.0  T
   4    -50.7404656 -0.124354E-05  0.704E-03    9.46       2.8  T
   5    -50.7404657 -0.872546E-07  0.181E-03    9.46      10.8  T
   6    -50.7404657 -0.431422E-08  0.113E-03    9.46      17.3  T
speedup  0.96
cpu  time for SCC    0.01 s
wall time for SCC    0.01 s
speedup  1.00
cpu  time for grad    0.01 s
wall time for grad    0.01 s
 E :    -50.45856903  G :  0.012206    pred/act E change: -0.639D-03 -0.398D-03
Maxdispl :   0.1524   ||displ|| :   0.3020   Lambda : -0.537D-03
Largest |displ|/coords:  0.1524 (   5)  0.1208 (   1)  0.1162 (  14)
................................................................................
.............................. CYCLE   33 ......................................
................................................................................
   1    -50.7364972 -0.507365E+02  0.156E-01    9.44       0.0  T
   2    -50.7365052 -0.796045E-05  0.118E-01    9.45       1.0  T
   3    -50.7365106 -0.540401E-05  0.161E-02    9.45       1.2  T
   4    -50.7365118 -0.121511E-05  0.537E-03    9.45       3.7  T
   5    -50.7365118 -0.524805E-07  0.207E-03    9.45       9.5  T
   6    -50.7365118 -0.470517E-08  0.107E-03    9.45      18.4  T
speedup  0.93
cpu  time for SCC    0.00 s
wall time for SCC    0.01 s
speedup  0.98
cpu  time for grad    0.01 s
wall time for grad    0.01 s
 E :    -50.45874093  G :  0.012351    pred/act E change: -0.452D-03 -0.172D-03
Maxdispl :   0.0448   ||displ|| :   0.1104   Lambda : -0.323D-03
Largest |displ|/coords:  0.0448 (   9)  0.0392 (   1)  0.0353 (   8)
................................................................................
.............................. CYCLE   34 ......................................
................................................................................
   1    -50.7397166 -0.507397E+02  0.769E-02    9.46       0.0  T
   2    -50.7397186 -0.201506E-05  0.575E-02    9.46       1.0  T
   3    -50.7397200 -0.145269E-05  0.908E-03    9.45       2.2  T
   4    -50.7397203 -0.252793E-06  0.333E-03    9.45       5.9  T
   5    -50.7397203 -0.167860E-07  0.955E-04    9.45      20.5  T
   6    -50.7397203 -0.102706E-08  0.556E-04    9.45      35.3  T
speedup  0.96
cpu  time for SCC    0.01 s
wall time for SCC    0.01 s
speedup  1.00
cpu  time for grad    0.01 s
wall time for grad    0.01 s
 E :    -50.45892262  G :  0.007120    pred/act E change: -0.293D-03 -0.182D-03
Maxdispl :   0.0860   ||displ|| :   0.1587   Lambda : -0.236D-03
Largest |displ|/coords:  0.0860 (  16)  0.0669 (   3)  0.0499 (  20)
................................................................................
.............................. CYCLE   35 ......................................
................................................................................
   1    -50.7403513 -0.507404E+02  0.116E-01    9.45       0.0  T
   2    -50.7403550 -0.368102E-05  0.872E-02    9.45       1.0  T
   3    -50.7403579 -0.286403E-05  0.117E-02    9.45       1.7  T
   4    -50.7403584 -0.477665E-06  0.367E-03    9.45       5.3  T
   5    -50.7403584 -0.176426E-07  0.130E-03    9.45      15.1  T
   6    -50.7403584 -0.216767E-08  0.724E-04    9.45      27.1  T
speedup  0.94
cpu  time for SCC    0.00 s
wall time for SCC    0.01 s
speedup  0.99
cpu  time for grad    0.01 s
wall time for grad    0.01 s
 E :    -50.45902967  G :  0.007732    pred/act E change: -0.163D-03 -0.107D-03
Maxdispl :   0.0925   ||displ|| :   0.1824   Lambda : -0.177D-03
Largest |displ|/coords:  0.0925 (   1)  0.0691 (   3)  0.0601 (   5)
................................................................................
.............................. CYCLE   36 ......................................
................................................................................
   1    -50.7412105 -0.507412E+02  0.685E-02    9.45       0.0  T
   2    -50.7412127 -0.219737E-05  0.512E-02    9.45       1.0  T
   3    -50.7412138 -0.106227E-05  0.903E-03    9.45       2.2  T
   4    -50.7412141 -0.337604E-06  0.333E-03    9.45       5.9  T
   5    -50.7412141 -0.200906E-07  0.767E-04    9.45      25.6  T
   6    -50.7412141 -0.802508E-09  0.457E-04    9.45      42.9  T
speedup  0.96
cpu  time for SCC    0.00 s
wall time for SCC    0.01 s
speedup  1.00
cpu  time for grad    0.01 s
wall time for grad    0.01 s
 E :    -50.45915282  G :  0.006238    pred/act E change: -0.121D-03 -0.123D-03
Maxdispl :   0.1382   ||displ|| :   0.3193   Lambda : -0.210D-03
Largest |displ|/coords:  0.1382 (   5)  0.1205 (   1)  0.1185 (   3)
................................................................................
.............................. CYCLE   37 ......................................
................................................................................
   1    -50.7397967 -0.507398E+02  0.139E-01    9.45       0.0  T
   2    -50.7398015 -0.486938E-05  0.105E-01    9.45       1.0  T
   3    -50.7398051 -0.358937E-05  0.133E-02    9.46       1.5  T
   4    -50.7398058 -0.713802E-06  0.562E-03    9.46       3.5  T
   5    -50.7398059 -0.424777E-07  0.144E-03    9.46      13.6  T
   6    -50.7398059 -0.254037E-08  0.900E-04    9.46      21.8  T
speedup  0.94
cpu  time for SCC    0.01 s
wall time for SCC    0.01 s
speedup  0.99
cpu  time for grad    0.01 s
wall time for grad    0.01 s
 E :    -50.45923764  G :  0.007420    pred/act E change: -0.915D-04 -0.848D-04
Maxdispl :   0.0757   ||displ|| :   0.1436   Lambda : -0.155D-03
Largest |displ|/coords:  0.0757 (   3)  0.0736 (   1)  0.0448 (  16)
................................................................................
.............................. CYCLE   38 ......................................
................................................................................
   1    -50.7405255 -0.507405E+02  0.598E-02    9.46       0.0  T
   2    -50.7405270 -0.146218E-05  0.448E-02    9.46       1.0  T
   3    -50.7405282 -0.124048E-05  0.687E-03    9.46       2.9  T
   4    -50.7405284 -0.180576E-06  0.236E-03    9.46       8.3  T
   5    -50.7405284 -0.818771E-08  0.833E-04    9.46      23.5  T
speedup  0.91
cpu  time for SCC    0.00 s
wall time for SCC    0.00 s
speedup  0.98
cpu  time for grad    0.01 s
wall time for grad    0.01 s
 E :    -50.45932098  G :  0.007347    pred/act E change: -0.116D-03 -0.833D-04
Maxdispl :   0.0561   ||displ|| :   0.1074   Lambda : -0.800D-04
Largest |displ|/coords:  0.0561 (   1)  0.0436 (   3)  0.0381 (   7)
................................................................................
.............................. CYCLE   39 ......................................
................................................................................
   1    -50.7408009 -0.507408E+02  0.441E-02    9.47       0.0  T
   2    -50.7408015 -0.591860E-06  0.328E-02    9.47       1.0  T
   3    -50.7408018 -0.334961E-06  0.504E-03    9.47       3.9  T
   4    -50.7408019 -0.855125E-07  0.128E-03    9.47      15.4  T
   5    -50.7408019 -0.438076E-08  0.468E-04    9.47      41.9  T
speedup  1.14
cpu  time for SCC    0.01 s
wall time for SCC    0.00 s
speedup  1.06
cpu  time for grad    0.01 s
wall time for grad    0.01 s
 E :    -50.45937685  G :  0.006185    pred/act E change: -0.792D-04 -0.559D-04
Maxdispl :   0.1438   ||displ|| :   0.2271   Lambda : -0.124D-03
Largest |displ|/coords:  0.1438 (   1)  0.0919 (   3)  0.0531 (   7)
................................................................................
.............................. CYCLE   40 ......................................
................................................................................
   1    -50.7411931 -0.507412E+02  0.913E-02    9.49       0.0  T
   2    -50.7411959 -0.277291E-05  0.682E-02    9.49       1.0  T
   3    -50.7411975 -0.157991E-05  0.111E-02    9.50       1.8  T
   4    -50.7411979 -0.436443E-06  0.281E-03    9.50       7.0  T
   5    -50.7411979 -0.197075E-07  0.103E-03    9.50      19.1  T
speedup  1.14
cpu  time for SCC    0.00 s
wall time for SCC    0.00 s
speedup  1.06
cpu  time for grad    0.01 s
wall time for grad    0.01 s
 E :    -50.45945436  G :  0.004742    pred/act E change: -0.404D-04 -0.775D-04
Maxdispl :   0.1425   ||displ|| :   0.2077   Lambda : -0.919D-04
Largest |displ|/coords:  0.1425 (   1)  0.0734 (   3)  0.0707 (   7)
................................................................................
.............................. CYCLE   41 ......................................
................................................................................
   1    -50.7410396 -0.507410E+02  0.823E-02    9.50       0.0  T
   2    -50.7410415 -0.188201E-05  0.616E-02    9.51       1.0  T
   3    -50.7410427 -0.114872E-05  0.865E-03    9.51       2.3  T
   4    -50.7410430 -0.307073E-06  0.249E-03    9.51       7.9  T
   5    -50.7410430 -0.130854E-07  0.900E-04    9.51      21.8  T
speedup  0.89
cpu  time for SCC    0.00 s
wall time for SCC    0.00 s
speedup  0.98
cpu  time for grad    0.01 s
wall time for grad    0.01 s
 E :    -50.45952303  G :  0.005237    pred/act E change: -0.653D-04 -0.687D-04
Maxdispl :   0.2476   ||displ|| :   0.3166   Lambda : -0.180D-03
Largest |displ|/coords:  0.2476 (   1)  0.1008 (   3)  0.0676 (   7)
................................................................................
.............................. CYCLE   42 ......................................
................................................................................
   1    -50.7423703 -0.507424E+02  0.130E-01    9.52       0.0  T
   2    -50.7423756 -0.525186E-05  0.972E-02    9.53       1.0  T
   3    -50.7423788 -0.325206E-05  0.150E-02    9.53       1.3  T
   4    -50.7423797 -0.808245E-06  0.459E-03    9.53       4.3  T
   5    -50.7423797 -0.432419E-07  0.159E-03    9.53      12.3  T
   6    -50.7423797 -0.238806E-08  0.879E-04    9.53      22.3  T
speedup  0.94
cpu  time for SCC    0.00 s
wall time for SCC    0.01 s
speedup  0.99
cpu  time for grad    0.01 s
wall time for grad    0.01 s
 E :    -50.45964727  G :  0.005939    pred/act E change: -0.479D-04 -0.124D-03
Maxdispl :   0.3647   ||displ|| :   0.4799   Lambda : -0.238D-03
Largest |displ|/coords:  0.3647 (   1)  0.1452 (   3)  0.1406 (   7)
................................................................................
.............................. CYCLE   43 ......................................
................................................................................
   1    -50.7388266 -0.507388E+02  0.197E-01    9.50       0.0  T
   2    -50.7388359 -0.929109E-05  0.147E-01    9.51       1.0  T
   3    -50.7388411 -0.519055E-05  0.202E-02    9.51       1.0  T
   4    -50.7388427 -0.161545E-05  0.615E-03    9.51       3.2  T
   5    -50.7388427 -0.622968E-07  0.213E-03    9.51       9.2  T
   6    -50.7388428 -0.340167E-08  0.115E-03    9.51      17.1  T
speedup  0.94
cpu  time for SCC    0.00 s
wall time for SCC    0.01 s
speedup  0.98
cpu  time for grad    0.01 s
wall time for grad    0.01 s
 E :    -50.45973499  G :  0.012588    pred/act E change: -0.988D-04 -0.877D-04
Maxdispl :   0.0794   ||displ|| :   0.1670   Lambda : -0.339D-03
Largest |displ|/coords:  0.0794 (   1)  0.0689 (  16)  0.0574 (   5)
................................................................................
.............................. CYCLE   44 ......................................
................................................................................
   1    -50.7411961 -0.507412E+02  0.122E-01    9.49       0.0  T
   2    -50.7412008 -0.467100E-05  0.909E-02    9.49       1.0  T
   3    -50.7412036 -0.288132E-05  0.171E-02    9.49       1.1  T
   4    -50.7412044 -0.725682E-06  0.463E-03    9.49       4.2  T
   5    -50.7412044 -0.312596E-07  0.153E-03    9.49      12.8  T
   6    -50.7412044 -0.337340E-08  0.855E-04    9.49      22.9  T
speedup  0.93
cpu  time for SCC    0.00 s
wall time for SCC    0.01 s
speedup  0.98
cpu  time for grad    0.01 s
wall time for grad    0.01 s
 E :    -50.45989547  G :  0.008050    pred/act E change: -0.147D-03 -0.160D-03
Maxdispl :   0.1210   ||displ|| :   0.1767   Lambda : -0.186D-03
Largest |displ|/coords:  0.1210 (   1)  0.0512 (   2)  0.0452 (   3)
................................................................................
.............................. CYCLE   45 ......................................
................................................................................
   1    -50.7419769 -0.507420E+02  0.809E-02    9.48       0.0  T
   2    -50.7419787 -0.179641E-05  0.607E-02    9.48       1.0  T
   3    -50.7419798 -0.109366E-05  0.812E-03    9.48       2.4  T
   4    -50.7419801 -0.278317E-06  0.331E-03    9.48       5.9  T
   5    -50.7419801 -0.151338E-07  0.792E-04    9.48      24.8  T
   6    -50.7419801 -0.748493E-09  0.485E-04    9.48      40.4  T
speedup  0.94
cpu  time for SCC    0.00 s
wall time for SCC    0.01 s
speedup  0.99
cpu  time for grad    0.01 s
wall time for grad    0.01 s
 E :    -50.46001339  G :  0.007058    pred/act E change: -0.174D-03 -0.118D-03
Maxdispl :   0.2457   ||displ|| :   0.3194   Lambda : -0.287D-03
Largest |displ|/coords:  0.2457 (   1)  0.0956 (   2)  0.0796 (   7)
................................................................................
.............................. CYCLE   46 ......................................
................................................................................
   1    -50.7406649 -0.507407E+02  0.166E-01    9.46       0.0  T
   2    -50.7406690 -0.410834E-05  0.125E-01    9.46       1.0  T
   3    -50.7406732 -0.422786E-05  0.125E-02    9.46       1.6  T
   4    -50.7406736 -0.423533E-06  0.454E-03    9.46       4.3  T
   5    -50.7406737 -0.281620E-07  0.170E-03    9.46      11.5  T
   6    -50.7406737 -0.372048E-08  0.888E-04    9.46      22.1  T
speedup  1.13
cpu  time for SCC    0.01 s
wall time for SCC    0.01 s
speedup  1.05
cpu  time for grad    0.01 s
wall time for grad    0.01 s
 E :    -50.46016633  G :  0.007012    pred/act E change: -0.960D-04 -0.153D-03
Maxdispl :   0.3740   ||displ|| :   0.4595   Lambda : -0.268D-03
Largest |displ|/coords:  0.3740 (   1)  0.1208 (   2)  0.0850 (  14)
................................................................................
.............................. CYCLE   47 ......................................
................................................................................
   1    -50.7375055 -0.507375E+02  0.196E-01    9.45       0.0  T
   2    -50.7375133 -0.784099E-05  0.147E-01    9.45       1.0  T
   3    -50.7375176 -0.431118E-05  0.178E-02    9.45       1.1  T
   4    -50.7375189 -0.133057E-05  0.634E-03    9.45       3.1  T
   5    -50.7375190 -0.688398E-07  0.177E-03    9.45      11.1  T
   6    -50.7375190 -0.225935E-08  0.103E-03    9.45      19.0  T
speedup  1.13
cpu  time for SCC    0.01 s
wall time for SCC    0.01 s
speedup  0.98
cpu  time for grad    0.01 s
wall time for grad    0.01 s
 E :    -50.46025118  G :  0.012774    pred/act E change: -0.158D-03 -0.848D-04
Maxdispl :   0.1300   ||displ|| :   0.1891   Lambda : -0.353D-03
Largest |displ|/coords:  0.1300 (   3)  0.0719 (   1)  0.0409 (   5)
................................................................................
.............................. CYCLE   48 ......................................
................................................................................
   1    -50.7431136 -0.507431E+02  0.967E-02    9.51       0.0  T
   2    -50.7431209 -0.735426E-05  0.714E-02    9.51       1.0  T
   3    -50.7431254 -0.446092E-05  0.158E-02    9.51       1.2  T
   4    -50.7431262 -0.806169E-06  0.428E-03    9.51       4.6  T
   5    -50.7431262 -0.439959E-07  0.167E-03    9.51      11.8  T
   6    -50.7431262 -0.272574E-08  0.851E-04    9.51      23.1  T
speedup  0.94
cpu  time for SCC    0.00 s
wall time for SCC    0.01 s
speedup  0.99
cpu  time for grad    0.01 s
wall time for grad    0.01 s
 E :    -50.46023927  G :  0.013961    pred/act E change: -0.162D-03  0.119D-04
Maxdispl :   0.0673   ||displ|| :   0.1346   Lambda : -0.415D-03
Largest |displ|/coords:  0.0673 (   1)  0.0514 (  16)  0.0492 (   5)
................................................................................
.............................. CYCLE   49 ......................................
................................................................................
   1    -50.7429192 -0.507429E+02  0.105E-01    9.51       0.0  T
   2    -50.7429224 -0.322878E-05  0.784E-02    9.51       1.0  T
   3    -50.7429256 -0.316057E-05  0.114E-02    9.51       1.7  T
   4    -50.7429259 -0.332453E-06  0.362E-03    9.51       5.4  T
   5    -50.7429259 -0.211283E-07  0.141E-03    9.51      13.9  T
   6    -50.7429259 -0.304660E-08  0.752E-04    9.51      26.1  T
speedup  1.15
cpu  time for SCC    0.01 s
wall time for SCC    0.01 s
speedup  1.07
cpu  time for grad    0.01 s
wall time for grad    0.01 s
 E :    -50.46040309  G :  0.008058    pred/act E change: -0.183D-03 -0.164D-03
Maxdispl :   0.1366   ||displ|| :   0.1860   Lambda : -0.154D-03
Largest |displ|/coords:  0.1366 (   1)  0.0516 (   2)  0.0467 (  14)
................................................................................
.............................. CYCLE   50 ......................................
................................................................................
   1    -50.7411799 -0.507412E+02  0.711E-02    9.51       0.0  T
   2    -50.7411821 -0.217837E-05  0.532E-02    9.51       1.0  T
   3    -50.7411830 -0.983313E-06  0.986E-03    9.51       2.0  T
   4    -50.7411834 -0.364978E-06  0.268E-03    9.51       7.3  T
   5    -50.7411834 -0.135126E-07  0.772E-04    9.51      25.4  T
speedup  1.14
cpu  time for SCC    0.00 s
wall time for SCC    0.00 s
speedup  0.98
cpu  time for grad    0.01 s
wall time for grad    0.01 s
 E :    -50.46047253  G :  0.005643    pred/act E change: -0.211D-03 -0.694D-04
Maxdispl :   0.1106   ||displ|| :   0.1449   Lambda : -0.700D-04
Largest |displ|/coords:  0.1106 (   1)  0.0447 (   2)  0.0351 (  14)
................................................................................
.............................. CYCLE   51 ......................................
................................................................................
   1    -50.7412468 -0.507412E+02  0.660E-02    9.52       0.0  T
   2    -50.7412475 -0.699030E-06  0.498E-02    9.51       1.0  T
   3    -50.7412481 -0.593098E-06  0.513E-03    9.51       3.8  T
   4    -50.7412482 -0.887736E-07  0.163E-03    9.51      12.0  T
   5    -50.7412482 -0.361030E-08  0.559E-04    9.51      35.1  T
speedup  0.91
cpu  time for SCC    0.00 s
wall time for SCC    0.00 s
speedup  0.98
cpu  time for grad    0.01 s
wall time for grad    0.01 s
 E :    -50.46051917  G :  0.007050    pred/act E change: -0.798D-04 -0.466D-04
Maxdispl :   0.1328   ||displ|| :   0.1976   Lambda : -0.112D-03
Largest |displ|/coords:  0.1328 (   1)  0.0667 (  14)  0.0665 (   3)
................................................................................
.............................. CYCLE   52 ......................................
................................................................................
   1    -50.7430249 -0.507430E+02  0.772E-02    9.54       0.0  T
   2    -50.7430263 -0.143640E-05  0.581E-02    9.54       1.0  T
   3    -50.7430277 -0.142442E-05  0.710E-03    9.54       2.8  T
   4    -50.7430279 -0.156700E-06  0.243E-03    9.54       8.1  T
   5    -50.7430279 -0.794633E-08  0.924E-04    9.54      21.2  T
speedup  0.91
cpu  time for SCC    0.00 s
wall time for SCC    0.00 s
speedup  0.98
cpu  time for grad    0.01 s
wall time for grad    0.01 s
 E :    -50.46058227  G :  0.004478    pred/act E change: -0.357D-04 -0.631D-04
Maxdispl :   0.1965   ||displ|| :   0.2637   Lambda : -0.896D-04
Largest |displ|/coords:  0.1965 (   1)  0.0873 (   2)  0.0749 (  14)

generating ANC from model Hessian ...
 Shifting diagonal of input Hessian by   4.701885676829841E-003
 Lowest  eigenvalues of input Hessian
   -0.000000   -0.000000   -0.000000   -0.000000   -0.000000    0.000000
    0.005000    0.005046    0.005386    0.006016    0.006776    0.007110
    0.007535    0.009072    0.009749    0.010267    0.011148    0.011434
 Highest eigenvalues
    1.389227    1.395897    1.432331    2.790955    3.422028    3.574991
 
cpu  time for ANC gen    0.02 s
wall time for ANC gen    0.02 s
................................................................................
.............................. CYCLE   53 ......................................
................................................................................
   1    -50.7428796 -0.507429E+02  0.125E-01    9.55       0.0  T
   2    -50.7428816 -0.198995E-05  0.941E-02    9.55       1.0  T
   3    -50.7428838 -0.214039E-05  0.100E-02    9.55       2.0  T
   4    -50.7428839 -0.177418E-06  0.355E-03    9.55       5.5  T
   5    -50.7428840 -0.131159E-07  0.108E-03    9.55      18.1  T
   6    -50.7428840 -0.102076E-08  0.615E-04    9.55      31.9  T
   7    -50.7428840 -0.499213E-09  0.116E-04    9.55     168.6  T
speedup  0.98
cpu  time for SCC    0.01 s
wall time for SCC    0.01 s
speedup  1.03
cpu  time for grad    0.01 s
wall time for grad    0.01 s
 E :    -50.46062933  G :  0.007579    pred/act E change:  0.000D+00 -0.471D-04
Maxdispl :   0.0376   ||displ|| :   0.0581   Lambda : -0.768D-04
Largest |displ|/coords:  0.0376 (   1)  0.0224 (   2)  0.0172 (   5)
................................................................................
.............................. CYCLE   54 ......................................
................................................................................
   1    -50.7433662 -0.507434E+02  0.359E-02    9.54       0.0  T
   2    -50.7433668 -0.554307E-06  0.271E-02    9.54       1.0  T
   3    -50.7433672 -0.497152E-06  0.412E-03    9.54       4.8  T
   4    -50.7433673 -0.680880E-07  0.137E-03    9.54      14.4  T
   5    -50.7433673 -0.312654E-08  0.537E-04    9.54      36.5  T
speedup  1.14
cpu  time for SCC    0.00 s
wall time for SCC    0.00 s
speedup  0.98
cpu  time for grad    0.01 s
wall time for grad    0.01 s
 E :    -50.46068650  G :  0.002890    pred/act E change:  0.000D+00 -0.572D-04
Maxdispl :   0.0796   ||displ|| :   0.1206   Lambda : -0.719D-04
Largest |displ|/coords:  0.0796 (   1)  0.0534 (   2)  0.0369 (   7)
................................................................................
.............................. CYCLE   55 ......................................
................................................................................
   1    -50.7435388 -0.507435E+02  0.650E-02    9.52       0.0  T
   2    -50.7435399 -0.108715E-05  0.491E-02    9.52       1.0  T
   3    -50.7435409 -0.989715E-06  0.578E-03    9.52       3.4  T
   4    -50.7435410 -0.131558E-06  0.188E-03    9.52      10.4  T
   5    -50.7435410 -0.726862E-08  0.738E-04    9.52      26.6  T
   6    -50.7435410 -0.504734E-09  0.376E-04    9.52      52.1  T
speedup  0.94
cpu  time for SCC    0.00 s
wall time for SCC    0.01 s
speedup  1.02
cpu  time for grad    0.01 s
wall time for grad    0.01 s
 E :    -50.46073459  G :  0.002914    pred/act E change: -0.385D-04 -0.481D-04
Maxdispl :   0.1177   ||displ|| :   0.1744   Lambda : -0.572D-04
Largest |displ|/coords:  0.1177 (   1)  0.0853 (   2)  0.0501 (   7)
................................................................................
.............................. CYCLE   56 ......................................
................................................................................
   1    -50.7430447 -0.507430E+02  0.911E-02    9.50       0.0  T
   2    -50.7430460 -0.127934E-05  0.691E-02    9.50       1.0  T
   3    -50.7430476 -0.158961E-05  0.508E-03    9.49       3.9  T
   4    -50.7430477 -0.813621E-07  0.214E-03    9.49       9.2  T
   5    -50.7430477 -0.580866E-08  0.791E-04    9.49      24.8  T
   6    -50.7430477 -0.741991E-09  0.343E-04    9.49      57.2  T
speedup  0.96
cpu  time for SCC    0.00 s
wall time for SCC    0.01 s
speedup  0.96
cpu  time for grad    0.01 s
wall time for grad    0.01 s
 E :    -50.46077662  G :  0.004054    pred/act E change: -0.365D-04 -0.420D-04
Maxdispl :   0.2101   ||displ|| :   0.3128   Lambda : -0.794D-04
Largest |displ|/coords:  0.2101 (   1)  0.1619 (   2)  0.1039 (   7)
................................................................................
.............................. CYCLE   57 ......................................
................................................................................
   1    -50.7417408 -0.507417E+02  0.147E-01    9.47       0.0  T
   2    -50.7417437 -0.284622E-05  0.111E-01    9.47       1.0  T
   3    -50.7417472 -0.347522E-05  0.790E-03    9.46       2.5  T
   4    -50.7417473 -0.180104E-06  0.317E-03    9.46       6.2  T
   5    -50.7417474 -0.111845E-07  0.115E-03    9.46      17.0  T
   6    -50.7417474 -0.140459E-08  0.447E-04    9.46      43.9  T
speedup  0.94
cpu  time for SCC    0.00 s
wall time for SCC    0.01 s
speedup  0.98
cpu  time for grad    0.01 s
wall time for grad    0.01 s
 E :    -50.46082180  G :  0.004997    pred/act E change: -0.294D-04 -0.452D-04
Maxdispl :   0.0830   ||displ|| :   0.1406   Lambda : -0.493D-04
Largest |displ|/coords:  0.0830 (   1)  0.0685 (   7)  0.0630 (   2)
................................................................................
.............................. CYCLE   58 ......................................
................................................................................
   1    -50.7421654 -0.507422E+02  0.553E-02    9.47       0.0  T
   2    -50.7421660 -0.624278E-06  0.418E-02    9.47       1.0  T
   3    -50.7421665 -0.552486E-06  0.430E-03    9.47       4.6  T
   4    -50.7421666 -0.825111E-07  0.138E-03    9.47      14.2  T
   5    -50.7421666 -0.288392E-08  0.454E-04    9.47      43.2  T
speedup  1.16
cpu  time for SCC    0.00 s
wall time for SCC    0.00 s
speedup  1.07
cpu  time for grad    0.01 s
wall time for grad    0.01 s
 E :    -50.46086244  G :  0.004521    pred/act E change: -0.436D-04 -0.406D-04
Maxdispl :   0.2071   ||displ|| :   0.3373   Lambda : -0.121D-03
Largest |displ|/coords:  0.2071 (   1)  0.1678 (   2)  0.1359 (   7)
................................................................................
.............................. CYCLE   59 ......................................
................................................................................
   1    -50.7436905 -0.507437E+02  0.108E-01    9.52       0.0  T
   2    -50.7436935 -0.294256E-05  0.818E-02    9.52       1.0  T
   3    -50.7436956 -0.208593E-05  0.958E-03    9.53       2.0  T
   4    -50.7436960 -0.463813E-06  0.311E-03    9.53       6.3  T
   5    -50.7436961 -0.166854E-07  0.980E-04    9.53      20.0  T
   6    -50.7436961 -0.104541E-08  0.511E-04    9.53      38.4  T
speedup  1.11
cpu  time for SCC    0.01 s
wall time for SCC    0.01 s
speedup  0.98
cpu  time for grad    0.01 s
wall time for grad    0.01 s
 E :    -50.46094232  G :  0.003803    pred/act E change: -0.251D-04 -0.799D-04
Maxdispl :   0.2331   ||displ|| :   0.3670   Lambda : -0.657D-04
Largest |displ|/coords:  0.2331 (   1)  0.1778 (   2)  0.1361 (   7)
................................................................................
.............................. CYCLE   60 ......................................
................................................................................
   1    -50.7430497 -0.507430E+02  0.137E-01    9.53       0.0  T
   2    -50.7430531 -0.345009E-05  0.104E-01    9.53       1.0  T
   3    -50.7430562 -0.306116E-05  0.932E-03    9.53       2.1  T
   4    -50.7430567 -0.464559E-06  0.337E-03    9.53       5.8  T
   5    -50.7430567 -0.169299E-07  0.116E-03    9.53      17.0  T
   6    -50.7430567 -0.127039E-08  0.523E-04    9.53      37.5  T
   7    -50.7430567 -0.990852E-09  0.137E-04    9.53     143.1  T
speedup  1.00
cpu  time for SCC    0.01 s
wall time for SCC    0.01 s
speedup  1.03
cpu  time for grad    0.01 s
wall time for grad    0.01 s
 E :    -50.46098804  G :  0.005190    pred/act E change: -0.671D-04 -0.457D-04
Maxdispl :   0.1977   ||displ|| :   0.3439   Lambda : -0.995D-04
Largest |displ|/coords:  0.1977 (   1)  0.1492 (   4)  0.1311 (   2)
................................................................................
.............................. CYCLE   61 ......................................
................................................................................
   1    -50.7444289 -0.507444E+02  0.119E-01    9.57       0.0  T
   2    -50.7444324 -0.353509E-05  0.896E-02    9.57       1.0  T
   3    -50.7444348 -0.239583E-05  0.104E-02    9.57       1.9  T
   4    -50.7444354 -0.612758E-06  0.374E-03    9.57       5.2  T
   5    -50.7444355 -0.205498E-07  0.113E-03    9.57      17.3  T
   6    -50.7444355 -0.170688E-08  0.588E-04    9.57      33.4  T
speedup  0.98
cpu  time for SCC    0.00 s
wall time for SCC    0.01 s
speedup  1.00
cpu  time for grad    0.01 s
wall time for grad    0.01 s
 E :    -50.46105172  G :  0.004003    pred/act E change: -0.373D-04 -0.637D-04
Maxdispl :   0.2250   ||displ|| :   0.3513   Lambda : -0.827D-04
Largest |displ|/coords:  0.2250 (   1)  0.1408 (   2)  0.1390 (   4)
................................................................................
.............................. CYCLE   62 ......................................
................................................................................
   1    -50.7435205 -0.507435E+02  0.137E-01    9.56       0.0  T
   2    -50.7435240 -0.343002E-05  0.104E-01    9.56       1.0  T
   3    -50.7435271 -0.312951E-05  0.921E-03    9.56       2.1  T
   4    -50.7435275 -0.453444E-06  0.370E-03    9.56       5.3  T
   5    -50.7435276 -0.191541E-07  0.123E-03    9.56      16.0  T
   6    -50.7435276 -0.166265E-08  0.599E-04    9.56      32.7  T
speedup  0.94
cpu  time for SCC    0.00 s
wall time for SCC    0.01 s
speedup  0.98
cpu  time for grad    0.01 s
wall time for grad    0.01 s
 E :    -50.46110449  G :  0.004910    pred/act E change: -0.557D-04 -0.528D-04
Maxdispl :   0.1108   ||displ|| :   0.1635   Lambda : -0.783D-04
Largest |displ|/coords:  0.1108 (   4)  0.0735 (   1)  0.0445 (   9)
................................................................................
.............................. CYCLE   63 ......................................
................................................................................
   1    -50.7452917 -0.507453E+02  0.665E-02    9.59       0.0  T
   2    -50.7452935 -0.184891E-05  0.490E-02    9.59       1.0  T
   3    -50.7452944 -0.895177E-06  0.107E-02    9.59       1.8  T
   4    -50.7452947 -0.250043E-06  0.244E-03    9.59       8.0  T
   5    -50.7452947 -0.119878E-07  0.805E-04    9.59      24.4  T
speedup  1.16
cpu  time for SCC    0.00 s
wall time for SCC    0.00 s
speedup  1.06
cpu  time for grad    0.01 s
wall time for grad    0.01 s
 E :    -50.46113733  G :  0.004761    pred/act E change: -0.464D-04 -0.328D-04
Maxdispl :   0.1606   ||displ|| :   0.2541   Lambda : -0.536D-04
Largest |displ|/coords:  0.1606 (   1)  0.1189 (   4)  0.0820 (   2)
................................................................................
.............................. CYCLE   64 ......................................
................................................................................
   1    -50.7439564 -0.507440E+02  0.103E-01    9.54       0.0  T
   2    -50.7439585 -0.211200E-05  0.775E-02    9.54       1.0  T
   3    -50.7439602 -0.173655E-05  0.772E-03    9.54       2.5  T
   4    -50.7439605 -0.289544E-06  0.280E-03    9.54       7.0  T
   5    -50.7439605 -0.142426E-07  0.913E-04    9.54      21.5  T
speedup  1.16
cpu  time for SCC    0.01 s
wall time for SCC    0.00 s
speedup  1.06
cpu  time for grad    0.01 s
wall time for grad    0.01 s
 E :    -50.46115659  G :  0.004308    pred/act E change: -0.402D-04 -0.193D-04
Maxdispl :   0.0362   ||displ|| :   0.0778   Lambda : -0.386D-04
Largest |displ|/coords:  0.0362 (   7)  0.0323 (   6)  0.0261 (   1)
................................................................................
.............................. CYCLE   65 ......................................
................................................................................
   1    -50.7453114 -0.507453E+02  0.425E-02    9.56       0.0  T
   2    -50.7453118 -0.405591E-06  0.320E-02    9.56       1.0  T
   3    -50.7453122 -0.363804E-06  0.380E-03    9.56       5.2  T
   4    -50.7453122 -0.508762E-07  0.150E-03    9.56      13.1  T
   5    -50.7453122 -0.292580E-08  0.433E-04    9.56      45.3  T
speedup  0.93
cpu  time for SCC    0.00 s
wall time for SCC    0.00 s
speedup  0.98
cpu  time for grad    0.01 s
wall time for grad    0.01 s
 E :    -50.46118026  G :  0.001758    pred/act E change: -0.285D-04 -0.237D-04
Maxdispl :   0.0882   ||displ|| :   0.1284   Lambda : -0.334D-04
Largest |displ|/coords:  0.0882 (   1)  0.0717 (   4)  0.0393 (   2)
................................................................................
[...]
................................................................................
.............................. CYCLE  117 ......................................
................................................................................
   1    -50.7559330 -0.507559E+02  0.289E-02    9.38       0.0  T
   2    -50.7559332 -0.132404E-06  0.218E-02    9.38       1.0  T
   3    -50.7559333 -0.148257E-06  0.191E-03    9.38      10.3  T
   4    -50.7559333 -0.115164E-07  0.981E-04    9.38      20.0  T
   5    -50.7559333 -0.103935E-08  0.270E-04    9.38      72.5  T
speedup  0.91
cpu  time for SCC    0.00 s
wall time for SCC    0.00 s
speedup  1.01
cpu  time for grad    0.01 s
wall time for grad    0.01 s
 E :    -50.46575871  G :  0.000541    pred/act E change: -0.127D-05 -0.214D-05
Maxdispl :   0.0129   ||displ|| :   0.0307   Lambda : -0.218D-05
Largest |displ|/coords:  0.0129 (  10)  0.0123 (  11)  0.0098 (   5)
................................................................................
.............................. CYCLE  118 ......................................
................................................................................
   1    -50.7558238 -0.507558E+02  0.192E-02    9.38       0.0  T
   2    -50.7558239 -0.705875E-07  0.145E-02    9.38       1.3  T
   3    -50.7558240 -0.790385E-07  0.131E-03    9.39      15.0  T
   4    -50.7558240 -0.656418E-08  0.675E-04    9.39      29.0  T
   5    -50.7558240 -0.567184E-09  0.177E-04    9.39     110.5  T
speedup  0.89
cpu  time for SCC    0.00 s
wall time for SCC    0.00 s
speedup  1.00
cpu  time for grad    0.01 s
wall time for grad    0.01 s
 E :    -50.46575999  G :  0.000571    pred/act E change: -0.169D-05 -0.128D-05
Maxdispl :   0.0109   ||displ|| :   0.0271   Lambda : -0.201D-05
Largest |displ|/coords:  0.0109 (   5)  0.0106 (  11)  0.0070 (  15)
................................................................................
.............................. CYCLE  119 ......................................
................................................................................
   1    -50.7558161 -0.507558E+02  0.151E-02    9.39       0.0  T
   2    -50.7558161 -0.483358E-07  0.114E-02    9.39       1.7  T
   3    -50.7558162 -0.513881E-07  0.132E-03    9.39      14.9  T
   4    -50.7558162 -0.494127E-08  0.498E-04    9.39      39.4  T
   5    -50.7558162 -0.355847E-09  0.142E-04    9.39     137.9  T
speedup  0.91
cpu  time for SCC    0.00 s
wall time for SCC    0.00 s
speedup  1.01
cpu  time for grad    0.01 s
wall time for grad    0.01 s
 E :    -50.46576131  G :  0.000697    pred/act E change: -0.109D-05 -0.132D-05
Maxdispl :   0.0103   ||displ|| :   0.0248   Lambda : -0.162D-05
Largest |displ|/coords:  0.0103 (   5)  0.0079 (   9)  0.0079 (   3)
................................................................................
.............................. CYCLE  120 ......................................
................................................................................
   1    -50.7558767 -0.507559E+02  0.157E-02    9.39       0.0  T
   2    -50.7558767 -0.457729E-07  0.119E-02    9.40       1.7  T
   3    -50.7558768 -0.542637E-07  0.134E-03    9.40      14.6  T
   4    -50.7558768 -0.342569E-08  0.494E-04    9.40      39.7  T
   5    -50.7558768 -0.339298E-09  0.141E-04    9.40     138.8  T
speedup  1.14
cpu  time for SCC    0.00 s
wall time for SCC    0.00 s
speedup  1.01
cpu  time for grad    0.01 s
wall time for grad    0.01 s
 E :    -50.46576247  G :  0.000658    pred/act E change: -0.101D-05 -0.116D-05
Maxdispl :   0.0149   ||displ|| :   0.0352   Lambda : -0.155D-05
Largest |displ|/coords:  0.0149 (   5)  0.0136 (   3)  0.0118 (  11)
................................................................................
.............................. CYCLE  121 ......................................
................................................................................
   1    -50.7559066 -0.507559E+02  0.203E-02    9.40       0.0  T
   2    -50.7559067 -0.670695E-07  0.153E-02    9.40       1.3  T
   3    -50.7559068 -0.811207E-07  0.150E-03    9.40      13.0  T
   4    -50.7559068 -0.476300E-08  0.587E-04    9.40      33.4  T
   5    -50.7559068 -0.488171E-09  0.187E-04    9.40     104.8  T
speedup  0.93
cpu  time for SCC    0.00 s
wall time for SCC    0.00 s
speedup  1.02
cpu  time for grad    0.01 s
wall time for grad    0.01 s
 E :    -50.46576348  G :  0.000520    pred/act E change: -0.811D-06 -0.101D-05
Maxdispl :   0.0110   ||displ|| :   0.0278   Lambda : -0.945D-06
Largest |displ|/coords:  0.0110 (   5)  0.0110 (   3)  0.0090 (   7)
................................................................................
.............................. CYCLE  122 ......................................
................................................................................
   1    -50.7558905 -0.507559E+02  0.172E-02    9.40       0.0  T
   2    -50.7558906 -0.509466E-07  0.130E-02    9.40       1.5  T
   3    -50.7558906 -0.603381E-07  0.115E-03    9.40      17.1  T
   4    -50.7558906 -0.412214E-08  0.519E-04    9.40      37.8  T
   5    -50.7558906 -0.323141E-09  0.154E-04    9.40     127.5  T
speedup  0.93
cpu  time for SCC    0.00 s
wall time for SCC    0.00 s
speedup  1.02
cpu  time for grad    0.01 s
wall time for grad    0.01 s
 E :    -50.46576408  G :  0.000424    pred/act E change: -0.776D-06 -0.607D-06
Maxdispl :   0.0093   ||displ|| :   0.0172   Lambda : -0.615D-06
Largest |displ|/coords:  0.0093 (   3)  0.0070 (   5)  0.0048 (   7)
................................................................................
.............................. CYCLE  123 ......................................
................................................................................
   1    -50.7559012 -0.507559E+02  0.925E-03    9.40       0.0  T
   2    -50.7559012 -0.196606E-07  0.697E-03    9.40       2.8  T
   3    -50.7559013 -0.188783E-07  0.757E-04    9.40      25.9  T
   4    -50.7559013 -0.252049E-08  0.317E-04    9.40      61.9  T
speedup  1.14
cpu  time for SCC    0.00 s
wall time for SCC    0.00 s
speedup  1.00
cpu  time for grad    0.01 s
wall time for grad    0.01 s
 E :    -50.46576449  G :  0.000301    pred/act E change: -0.473D-06 -0.408D-06
Maxdispl :   0.0070   ||displ|| :   0.0142   Lambda : -0.320D-06
Largest |displ|/coords:  0.0070 (   3)  0.0055 (   5)  0.0037 (  15)
................................................................................
.............................. CYCLE  124 ......................................
................................................................................
   1    -50.7558562 -0.507559E+02  0.864E-03    9.40       0.0  T
   2    -50.7558562 -0.144427E-07  0.653E-03    9.40       3.0  T
   3    -50.7558563 -0.169922E-07  0.613E-04    9.40      32.0  T
   4    -50.7558563 -0.124133E-08  0.231E-04    9.40      84.9  T
speedup  1.14
cpu  time for SCC    0.00 s
wall time for SCC    0.00 s
speedup  1.00
cpu  time for grad    0.01 s
wall time for grad    0.01 s
 E :    -50.46576472  G :  0.000250    pred/act E change: -0.308D-06 -0.232D-06
Maxdispl :   0.0043   ||displ|| :   0.0076   Lambda : -0.206D-06
Largest |displ|/coords:  0.0043 (   3)  0.0035 (   2)  0.0019 (   6)
................................................................................
.............................. CYCLE  125 ......................................
................................................................................
   1    -50.7558794 -0.507559E+02  0.427E-03    9.40       0.0  T
   2    -50.7558794 -0.465406E-08  0.321E-03    9.40       6.1  T
   3    -50.7558794 -0.445783E-08  0.449E-04    9.40      43.7  T
   4    -50.7558794 -0.492058E-09  0.118E-04    9.40     166.3  T
speedup  1.14
cpu  time for SCC    0.00 s
wall time for SCC    0.00 s
speedup  1.00
cpu  time for grad    0.01 s
wall time for grad    0.01 s
 E :    -50.46576484  G :  0.000237    pred/act E change: -0.160D-06 -0.119D-06
Maxdispl :   0.0067   ||displ|| :   0.0124   Lambda : -0.143D-06
Largest |displ|/coords:  0.0067 (   3)  0.0051 (   5)  0.0034 (  15)
................................................................................
.............................. CYCLE  126 ......................................
................................................................................
   1    -50.7558426 -0.507558E+02  0.721E-03    9.40       0.0  T
   2    -50.7558426 -0.963312E-08  0.545E-03    9.41       3.6  T
   3    -50.7558426 -0.126716E-07  0.492E-04    9.41      39.9  T
   4    -50.7558426 -0.556824E-09  0.194E-04    9.41     100.9  T
speedup  0.83
cpu  time for SCC    0.00 s
wall time for SCC    0.00 s
speedup  0.99
cpu  time for grad    0.01 s
wall time for grad    0.01 s
 E :    -50.46576493  G :  0.000144    pred/act E change: -0.103D-06 -0.879D-07
Maxdispl :   0.0021   ||displ|| :   0.0043   Lambda : -0.728D-07
Largest |displ|/coords:  0.0021 (   6)  0.0017 (   2)  0.0016 (  11)

   *** GEOMETRY OPTIMIZATION CONVERGED AFTER 126 ITERATIONS ***

------------------------------------------------------------------------
 total energy gain (kcal):     -0.0108
------------------------------------------------------------------------
================
 final structure:
================
$coord
       -2.54402785194663        0.46534078856006        0.85462469858281      S 
       -2.55448003676590       -1.69581541433710       -0.81105276534067      O 
       -1.42418970493769        2.66460220215956       -0.39154187724519      O 
       -1.26590319303031       -0.04050917728539        3.26085014592351      O 
       -5.35457649205334        1.11534214454833        1.46817802820601      O 
       -5.19520089115321        2.39160513671967        2.79067126227949      H 
        1.70388844734776       -0.79738885895621        3.01533932748794      H 
        3.50703482203064       -1.21854505455303        2.75658683985307      O 
        4.20609888051382       -1.49365850140782        4.40478395741032      H 
       -3.68919793829977        3.68281257614879        5.42531003127120      O 
       -4.35117480110860        3.17977117692350        7.03743811196048      H 
       -2.42938144607441        2.41258622887604        4.95063526261680      H 
        1.43950751963539       -4.88922695823715       -0.41595648657562      O 
        2.63398942301022       -3.92969394344953        0.58165793345492      H 
       -0.16931825752681       -4.02905689641831       -0.17527513401501      H 
        0.09805391310273       -3.56069822541069       -5.06220109014259      O 
       -1.62442840660277       -3.47472460178438       -4.46968623469385      H 
        0.98394811415266       -4.36835872716189       -3.63847857992907      H 
        3.99196042700832        2.68125457529849       -0.57172548006299      O 
        2.76317143143579        1.58952865054651       -3.37387428522986      H 
        2.38319688787525        3.38178739911813       -0.05482908535763      H 
        4.27582713961560        1.27531150535004        0.57997387747579      H 
        1.08937278608958        1.24911823391495       -4.37735015967083      N 
        0.82041301928245       -0.71869168369177       -4.77890013080036      H 
        0.99782331884835        2.31456928888440       -5.96775180772425      H 
       -0.29240714830122        1.81273817342340       -3.03742637858723      H 
$end
 
 Bond Distances (Angstroems)
 ---------------------------
S1-O2=1.4439         S1-O3=1.4630         S1-O4=1.4664         S1-O5=1.5607         O2-S1=1.4439         O3-S1=1.4630         
O4-S1=1.4664         O5-S1=1.5607         O5-H6=0.9762         H6-O5=0.9762         H7-O8=0.9894         O8-H7=0.9894         
O8-H9=0.9585         H9-O8=0.9585         O10-H11=0.9599       O10-H12=0.9795       H11-O10=0.9599       H12-O10=0.9795       
O13-H14=0.9675       O13-H15=0.9738       H14-O13=0.9675       H15-O13=0.9738       O16-H17=0.9650       O16-H18=0.9849       
H17-O16=0.9650       H18-O16=0.9849       O19-H21=0.9680       O19-H22=0.9734       H20-N23=1.0483       H21-O19=0.9680       
H22-O19=0.9734       N23-H20=1.0483       N23-H24=1.0723       N23-H25=1.0142       N23-H26=1.0613       H24-N23=1.0723       
H25-N23=1.0142       H26-N23=1.0613       
 N  H  Rav=1.0490 sigma=0.0218  Rmin=1.0142  Rmax=1.0723     4
 O  H  Rav=0.9724 sigma=0.0093  Rmin=0.9585  Rmax=0.9894    11
 S  O  Rav=1.4835 sigma=0.0454  Rmin=1.4439  Rmax=1.5607     4
 
 selected bond angles (degree)
 --------------------
O3-S1-O2=110.88                O4-S1-O2=112.78                O4-S1-O3=110.47                O5-S1-O2=107.33                
O5-S1-O3=107.72                O5-S1-O4=107.40                H6-O5-S1=102.67                H9-O8-H7=106.29                
H12-O10-H11=106.62             
 
 selected dihedral angles (degree)
 ---------------------------------
H6-O5-S1-O2=171.27            H6-O5-S1-O3=290.73            H6-O5-S1-O4= 49.74            
 
 CMA Distance (Angstroems)
 ---------------------------
R(CMA):  2.0817

========================================================================
 FINAL SINGLEPOINT CALCULATION ON OPTIMIZED GEOMETRY
========================================================================

 Ncao       : 65
 Nao        : 64
 Nshell     : 38
 Nel        : 80
 T(el)      :   300.0
 intcut     :    25.0
 scfconv/Eh :  0.100E-05
   qconv/e  :  0.100E-03
 intneglect :  0.100E-07
 broydamp   :      0.250
 iter      E             dE          RMSdq      gap      omega  full diag
   1    -50.7558426 -0.507558E+02  0.582E-05    9.41       0.0  T
   2    -50.7558426 -0.530775E-11  0.376E-05    9.41     521.9  T
   3    -50.7558426 -0.267875E-11  0.103E-05    9.41    1896.1  T
speedup  1.11
cpu  time for SCC    0.00 s
wall time for SCC    0.00 s

   *** convergence criteria satisfied after 3 iterations ***

          eigenvalues
 #    :          28         29         30         31         32         33         34         35
 occ. :        2.000      2.000      2.000      2.000      2.000      2.000      2.000      2.000
 eps  :       -13.518    -13.219    -12.539    -12.438    -12.344    -12.278    -12.230    -12.187
 #    :          36         37         38         39         40         41         42         43
 occ. :        2.000      2.000      2.000      2.000      2.000      0.000      0.000      0.000
 eps  :       -12.088    -12.009    -11.985    -11.804    -11.605     -2.200     -0.752     -0.057
 #    :          44         45         46         47         48         49         50         51
 occ. :        0.000      0.000      0.000      0.000      0.000      0.000      0.000      0.000
 eps  :         0.908      1.132      1.346      2.022      2.162      3.753      4.881      5.016


   #   Z            q   n(s)   n(p)   n(d)      C6AA      α(0)
   1  16 S      1.689  1.585  1.780  0.945    89.012    15.879
   2   8 O     -0.733  1.754  4.979  0.000    29.620     7.297
   3   8 O     -0.758  1.771  4.987  0.000    30.338     7.385
   4   8 O     -0.773  1.780  4.994  0.000    30.786     7.439
   5   8 O     -0.610  1.759  4.851  0.000    25.405     6.804
   6   1 H      0.371  0.629  0.000  0.000     0.534     1.144
   7   1 H      0.331  0.669  0.000  0.000     0.636     1.253
   8   8 O     -0.627  1.748  4.879  0.000    25.841     6.861
   9   1 H      0.290  0.710  0.000  0.000     0.751     1.361
  10   8 O     -0.612  1.749  4.863  0.000    25.473     6.812
  11   1 H      0.292  0.708  0.000  0.000     0.744     1.355
  12   1 H      0.319  0.681  0.000  0.000     0.666     1.282
  13   8 O     -0.625  1.750  4.875  0.000    25.804     6.856
  14   1 H      0.307  0.693  0.000  0.000     0.700     1.314
  15   1 H      0.311  0.689  0.000  0.000     0.689     1.304
  16   8 O     -0.593  1.747  4.845  0.000    25.010     6.750
  17   1 H      0.312  0.688  0.000  0.000     0.685     1.300
  18   1 H      0.340  0.660  0.000  0.000     0.612     1.229
  19   8 O     -0.611  1.747  4.863  0.000    25.441     6.808
  20   1 H      0.285  0.715  0.000  0.000     0.761     1.367
  21   1 H      0.308  0.692  0.000  0.000     0.697     1.312
  22   1 H      0.321  0.679  0.000  0.000     0.662     1.278
  23   7 N     -0.349  1.277  4.072  0.000    28.976     7.995
  24   1 H      0.297  0.703  0.000  0.000     0.721     1.330
  25   1 H      0.229  0.771  0.000  0.000     0.969     1.542
  26   1 H      0.288  0.712  0.000  0.000     0.750     1.356

 Mol. C6AA /au·bohr⁶  :       5452.723814
 Mol. C8AA /au·bohr⁸  :     117986.394838
 Mol. α(0) /au        :        106.612787

 
 Wiberg/Mayer (AO) data. WBOs > 0.1 written file <wbo>
 largest (>0.05) Wiberg bond orders for each atom
           total WBO             WBO to atom ...
     1  S   4.837    O    2 1.364    O    3 1.260    O    4 1.236    O    5 0.939
     2  O   1.722    S    1 1.364    O    3 0.111    O    4 0.105    O    5 0.066
     3  O   1.720    S    1 1.260    O    2 0.111    O    4 0.103    H   26 0.102    O    5 0.076
     4  O   1.709    S    1 1.236    O    2 0.105    O    3 0.103    O    5 0.076    H    7 0.074    H   12 0.058
     5  O   1.972    S    1 0.939    H    6 0.779    O    3 0.076    O    4 0.076    O    2 0.066
     6  H   0.862    O    5 0.779    O   10 0.065
     7  H   0.891    O    8 0.811    O    4 0.074
     8  O   1.863    H    9 0.909    H    7 0.811
     9  H   0.916    O    8 0.909
    10  O   1.870    H   11 0.912    H   12 0.836    H    6 0.065
    11  H   0.915    O   10 0.912
    12  H   0.898    O   10 0.836    O    4 0.058
    13  O   1.858    H   14 0.872    H   15 0.861    H   18 0.058
    14  H   0.906    O   13 0.872
    15  H   0.903    O   13 0.861
    16  O   1.958    H   17 0.892    H   18 0.823    H   24 0.139    N   23 0.066
    17  H   0.902    O   16 0.892
    18  H   0.884    O   16 0.823    O   13 0.058
    19  O   1.893    H   21 0.886    H   22 0.853    H   20 0.077
    20  H   0.919    N   23 0.837    O   19 0.077
    21  H   0.905    O   19 0.886
    22  H   0.897    O   19 0.853
    23  N   3.520    H   25 0.944    H   20 0.837    H   26 0.806    H   24 0.769    O   16 0.066
    24  H   0.912    N   23 0.769    O   16 0.139
    25  H   0.947    N   23 0.944
    26  H   0.917    N   23 0.806    O    3 0.102
 MOs/occ written to file <molden.input>
 
molecular dipole:
                 x           y           z       tot (Debye)
 q only:        0.856       0.567      -1.007
   full:        0.222       0.688       0.093       1.853
molecular quadrupole (traceless):
                xx          xy          yy          xz          yz          zz
 q only:       -5.653       0.174     -13.189      -2.175      -7.270      18.842
  q+dip:       -5.201       0.620     -16.588      -0.672      -9.832      21.789
   full:       -4.702       0.002     -17.126      -0.917      -9.765      21.827

SCC energy    :     -50.7558426
rep           :       0.2897890
ES            :       0.2656530
AES           :      -0.0756023
AXC           :      -0.0093287
disp          :      -0.0194270
XB            :       0.0000000
fix           :       0.0000000
total E       :     -50.4657649
atomizationE  :       4.9960691     3135.08
(atE without considering molecular charge,
 total energy contains solvation terms)
H-L gap (eV)  :          9.4059
optimized geometry written to: xtbopt.xyz


------------------------------------------------------------------------
 * finished run on 2019/09/16 at 11:33:34.747     
------------------------------------------------------------------------
 total:
 * wall-time:     0 d,  0 h,  0 min,  2.786 sec
 *  cpu-time:     0 d,  0 h,  0 min,  2.765 sec
 * ratio c/w:     0.992 speedup
 SCF:
 * wall-time:     0 d,  0 h,  0 min,  0.157 sec
 *  cpu-time:     0 d,  0 h,  0 min,  0.154 sec
 * ratio c/w:     0.983 speedup
 ANC optimizer:
 * wall-time:     0 d,  0 h,  0 min,  2.603 sec
 *  cpu-time:     0 d,  0 h,  0 min,  2.587 sec
 * ratio c/w:     0.994 speedup

