      -----------------------------------------------------------      
     |                   =====================                   |     
     |                           x T B                           |     
     |                   =====================                   |     
     |                         S. Grimme                         |     
     |          Mulliken Center for Theoretical Chemistry        |     
     |                    University of Bonn                     |     
     |                 Version 6.0.1 (SAW181210)                 |     
      -----------------------------------------------------------      

   This program is distributed in the hope that it will be useful,
   but WITHOUT ANY WARRANTY; without even the implied warranty of
   MERCHANTABILITY or FITNESS FOR A PARTICULAR PURPOSE.
   
   FOR NON-COMMERCIAL, ACADEMIA USE ONLY.
   
   Cite this work as:
   S. Grimme, C. Bannwarth, P. Shushkov, J. Comput. Theory Chem., 2017,
   13, 1989-2009.
   C. Bannwarth, S. Ehlert and S. Grimme., ChemRxiv, 2018, preprint.
   http://doi.org/10.26434/chemrxiv.7246238.v1
   
   for sTDA-xTB:
   S. Grimme and C. Bannwarth, J. Chem. Phys., 2016, 145, 054103.
   
   in the mass-spec context:
   V. Asgeirsson, C. Bauer and S. Grimme, Chem. Sci., 2017, 8, 4879.
   
   if GBSA is used:
   P. Shushkov, F. März and S. Grimme, unpublished.
   
   for ANC optimizer:
   S. Grimme, unpublished.
   Rational Function algorithm used in ANCopt:
   F. Eckert, P. Pulay, H.-J. Werner, J. Comput. Chem., 1997, 18, 1473.
   
   with help from (in alphabetical order)
   C. Bannwarth, F. Bohle, G. Brandenburg, E. Caldeweyher, M. Checinski,
   S. Dohm, S. Ehlert, S. Ehrlich, F. März, H. Neugebauer, J. Pisarek,
   P. Pracht, P. Shushkov, and S. Spicher.
   
 * started run on 2019/09/16 at 12:34:27.604     
========================================================================
 # omp threads = 1
========================================================================
number of atoms            : 26
number of electrons        : 80
charge                     : 0
spin                       : .0
first test random number   : .2750

########################################################################
# WARNING! Please study the warnings concerning your input carefully
#  - XTBPATH is not set, using XTBHOME instead
#  - the use of '-opt' is discouraged, please use '--opt' next time
#  - the use of '-chrg' is discouraged, please use '--chrg' next time
#  - the use of '-uhf' is discouraged, please use '--uhf' next time
########################################################################

           ------------------------------------------------- 
          |                 G F N 2 - x T B                 |
          | Geometry, Frequencies, Noncovalent interactions |
          |            JCTC 2018 parametrisation            |
           ------------------------------------------------- 
      method parameters     
 k(s)        :  1.8500
 k(p)        :  2.2300
 k(d)        :  2.2300
 k(f)        :  2.0000
 kEN (H0ij)  : -2.0000
 D4 a1       :  0.5200
 D4 a2       :  5.0000
 D4 s6       :  1.0000
 D4 s8       :  2.7000
 D4 s9       :  5.0000
 alphaj      :  2.0000


            Z     q(EN)     CN     RAES       Cart. coordinates
     1  S   6.0    0.61    4.51    4.58     3.68249     1.11558    -2.30294
     2  O   6.0   -0.32    1.22    1.80     3.18898     2.33038     0.18881
     3  O   6.0   -0.30    1.18    1.80     1.58429     1.72834    -4.07782
     4  O   6.0   -0.28    2.13    1.84     3.84333    -1.63743    -1.97498
     5  O   6.0   -0.25    2.08    1.84     6.07787     2.06606    -3.33797
     6  H   1.0    0.14    1.22    1.47     7.22674     0.68218    -3.57479
     7  H   1.0    0.18    1.38    1.53     2.27891    -2.25917    -1.29886
     8  O   6.0   -0.41    1.70    1.81    -0.27596    -2.92338    -0.19360
     9  H   1.0    0.17    0.95    1.42    -0.43092    -4.78332    -0.21239
    10  O   6.0   -0.30    2.06    1.83    -0.41573     3.77884     3.32168
    11  H   1.0    0.18    1.05    1.44     0.98701     3.41793     2.21864
    12  H   1.0    0.15    0.97    1.43    -0.08805     5.44061     3.98932
    13  O   6.0   -0.29    2.06    1.83    -2.75767    -0.90835    -3.67918
    14  H   1.0    0.18    1.02    1.43    -1.50429     0.25119    -4.31094
    15  H   1.0    0.18    1.10    1.44    -1.88251    -1.95211    -2.47119
    16  O   6.0   -0.29    2.05    1.83    -6.61045     0.67760    -0.99077
    17  H   1.0    0.15    0.97    1.43    -8.16141     1.07808    -1.85609
    18  H   1.0    0.16    1.05    1.44    -5.46324     0.12250    -2.29091
    19  O   6.0   -0.23    2.92    2.58    -3.01143    -0.23554     2.23779
    20  H   1.0    0.14    1.06    1.44    -4.53165     0.15855     1.22612
    21  H   1.0    0.16    1.21    1.47    -1.87523    -1.42970     1.35855
    22  H   1.0    0.14    1.07    1.44    -2.11408     1.31021     2.78270
    23  N   5.0   -0.20    2.94    1.92     3.04577    -2.29896     3.81157
    24  H   1.0    0.12    0.99    1.43     3.30882    -0.41009     3.53953
    25  H   1.0    0.10    0.99    1.43     2.07291    -2.45864     5.46660
    26  H   1.0    0.12    1.04    1.43     1.82550    -2.86136     2.43110

  Z AO/shell   Hii/eV     exponent
  1     Wed Apr 25 08:07:45 CEST 2018   EN: 2.200 GM2: 0.406  GM3: 0.0800  RAES: 1.40
     1s    -10.707211    1.230000
  7     Wed Apr 25 08:07:45 CEST 2018   EN: 3.040 GM2: 0.461  GM3:-0.0640  RAES: 1.90
     2s    -16.686243    2.339881
     2p    -12.523956    2.014332
  8     Wed Apr 25 08:07:45 CEST 2018   EN: 3.440 GM2: 0.452  GM3:-0.0517  RAES: 1.80
     2s    -20.229985    2.439742
     2p    -15.503117    2.137023
 16     Tue Apr 24 11:44:34 CEST 2018   EN: 2.580 GM2: 0.340  GM3:-0.0502  RAES: 3.10
     3s    -20.029654    1.981333
     3p    -11.377694    2.025643
     3d     -0.420282    1.702555
 no old-style atom pair restraining (fixing) potential

molecular fragmentation (1/2 indicates fragments):
11111112222222222222222222
# atoms in fragment 1/2:     7    19
 fragment masses (1/2) :       98.07      107.11
CMA distance (Bohr)    :   6.348
constraining FC (au)   :  0.0500
           ------------------------------------------------- 
          |        Self-Consistent Charge Iterations        |
           ------------------------------------------------- 

 Ncao       : 65
 Nao        : 64
 Nshell     : 38
 Nel        : 80
 T(el)      :   300.0
 intcut     :    25.0
 scfconv/Eh :  0.100E-05
   qconv/e  :  0.100E-03
 intneglect :  0.100E-07
 broydamp   :      0.250
 iter      E             dE          RMSdq      gap      omega  full diag
   1    -50.5672123 -0.505672E+02  0.707E+00   10.03       0.0  T
   2    -50.6276459 -0.604336E-01  0.510E+00    8.79       1.0  T
   3    -50.6674881 -0.398422E-01  0.149E+00    6.40       1.0  T
   4    -50.6746547 -0.716657E-02  0.591E-01    6.81       1.0  T
   5    -50.6752373 -0.582671E-03  0.377E-01    6.67       1.0  T
   6    -50.6759576 -0.720292E-03  0.164E-01    6.70       1.0  T
   7    -50.6761273 -0.169710E-03  0.658E-02    6.70       1.0  T
   8    -50.6761511 -0.237670E-04  0.385E-02    6.70       1.0  T
   9    -50.6761608 -0.965633E-05  0.147E-02    6.72       1.3  T
  10    -50.6761623 -0.149205E-05  0.286E-03    6.73       6.9  T
  11    -50.6761623 -0.274997E-07  0.138E-03    6.72      14.2  T
  12    -50.6761623 -0.799323E-08  0.570E-04    6.72      34.4  T
  13    -50.6761623 -0.146986E-08  0.189E-04    6.72     103.5  T
speedup  1.01
cpu  time for SCC    0.01 s
wall time for SCC    0.01 s

   *** convergence criteria satisfied after 13 iterations ***

          eigenvalues
 #    :          28         29         30         31         32         33         34         35
 occ. :        2.000      2.000      2.000      2.000      2.000      2.000      2.000      2.000
 eps  :       -12.769    -12.663    -12.565    -12.437    -12.257    -12.244    -12.012    -11.840
 #    :          36         37         38         39         40         41         42         43
 occ. :        2.000      2.000      2.000      2.000      2.000      0.000      0.000      0.000
 eps  :       -11.706    -10.922    -10.804    -10.208     -9.483     -2.759     -1.484     -0.639
 #    :          44         45         46         47         48         49         50         51
 occ. :        0.000      0.000      0.000      0.000      0.000      0.000      0.000      0.000
 eps  :        -0.179      0.506      1.965      2.150      3.547      3.881      4.997      5.693


   #   Z            q   n(s)   n(p)   n(d)      C6AA      α(0)
   1  16 S      1.721  1.571  1.768  0.940    88.288    15.814
   2   8 O     -0.729  1.767  4.962  0.000    29.517     7.284
   3   8 O     -0.711  1.774  4.937  0.000    29.013     7.222
   4   8 O     -0.598  1.723  4.875  0.000    25.111     6.765
   5   8 O     -0.541  1.719  4.822  0.000    23.788     6.584
   6   1 H      0.380  0.620  0.000  0.000     0.516     1.124
   7   1 H      0.419  0.581  0.000  0.000     0.444     1.042
   8   8 O     -0.856  1.843  5.013  0.000    33.290     7.737
   9   1 H      0.227  0.773  0.000  0.000     0.991     1.564
  10   8 O     -0.613  1.722  4.891  0.000    25.494     6.815
  11   1 H      0.338  0.662  0.000  0.000     0.617     1.234
  12   1 H      0.294  0.706  0.000  0.000     0.739     1.350
  13   8 O     -0.668  1.749  4.919  0.000    26.877     6.997
  14   1 H      0.304  0.696  0.000  0.000     0.709     1.322
  15   1 H      0.319  0.681  0.000  0.000     0.666     1.281
  16   8 O     -0.627  1.731  4.896  0.000    25.832     6.860
  17   1 H      0.285  0.715  0.000  0.000     0.768     1.376
  18   1 H      0.340  0.660  0.000  0.000     0.612     1.229
  19   8 O     -0.460  1.659  4.801  0.000    21.981     6.332
  20   1 H      0.406  0.594  0.000  0.000     0.474     1.082
  21   1 H      0.410  0.590  0.000  0.000     0.459     1.061
  22   1 H      0.402  0.598  0.000  0.000     0.481     1.089
  23   7 N     -0.487  1.422  4.065  0.000    32.940     8.524
  24   1 H      0.141  0.859  0.000  0.000     1.467     1.897
  25   1 H      0.127  0.873  0.000  0.000     1.566     1.961
  26   1 H      0.177  0.823  0.000  0.000     1.230     1.737

 Mol. C6AA /au·bohr⁶  :       5512.851595
 Mol. C8AA /au·bohr⁸  :     118948.957113
 Mol. α(0) /au        :        107.284067

 
 Wiberg/Mayer (AO) data. WBOs > 0.1 written file <wbo>
 largest (>0.05) Wiberg bond orders for each atom
           total WBO             WBO to atom ...
     1  S   4.807    O    3 1.353    O    2 1.318    O    4 1.076    O    5 1.015
     2  O   1.694    S    1 1.318    O    3 0.135    O    4 0.091    O    5 0.071
     3  O   1.706    S    1 1.353    O    2 0.135    O    4 0.095    O    5 0.074
     4  O   2.008    S    1 1.076    H    7 0.642    O    3 0.095    O    2 0.091
     5  O   2.052    S    1 1.015    H    6 0.832    O    3 0.074    O    2 0.071
     6  H   0.855    O    5 0.832
     7  H   0.825    O    4 0.642    O    8 0.158
     8  O   1.629    H    9 0.940    H   21 0.189    H    7 0.158    H   15 0.099    O   19 0.057
     9  H   0.949    O    8 0.940
    10  O   1.860    H   12 0.898    H   11 0.834    H   22 0.075
    11  H   0.886    O   10 0.834
    12  H   0.913    O   10 0.898
    13  O   1.834    H   14 0.873    H   15 0.796    H   18 0.067
    14  H   0.908    O   13 0.873
    15  H   0.898    O   13 0.796    O    8 0.099
    16  O   1.842    H   17 0.902    H   18 0.817    H   20 0.068
    17  H   0.919    O   16 0.902
    18  H   0.884    O   16 0.817    O   13 0.067
    19  O   2.283    H   20 0.758    H   22 0.756    H   21 0.635    O    8 0.057
    20  H   0.835    O   19 0.758    O   16 0.068
    21  H   0.832    O   19 0.635    O    8 0.189
    22  H   0.838    O   19 0.756    O   10 0.075
    23  N   2.915    H   25 0.982    H   24 0.972    H   26 0.914
    24  H   0.980    N   23 0.972
    25  H   0.984    N   23 0.982
    26  H   0.969    N   23 0.914
 MOs/occ written to file <molden.input>
 
molecular dipole:
                 x           y           z       tot (Debye)
 q only:       -0.065       0.363       0.474
   full:        0.422       0.385       0.021       1.453
molecular quadrupole (traceless):
                xx          xy          yy          xz          yz          zz
 q only:       14.269      -2.099      -5.860     -11.582       6.321      -8.409
  q+dip:       15.109      -0.506      -5.364     -13.149       9.070      -9.745
   full:       15.374      -0.305      -5.094     -13.637       8.947     -10.280

SCC energy    :     -50.6761623
rep           :       0.3026088
ES            :       0.2712605
AES           :      -0.0605977
AXC           :      -0.0056391
disp          :      -0.0188213
XB            :       0.0000000
fix           :       0.0000000
total E       :     -50.3732320
atomizationE  :       4.9035362     3077.02
(atE without considering molecular charge,
 total energy contains solvation terms)
H-L gap (eV)  :          6.7245
           ------------------------------------------------- 
          |                 ===============                 |
          |                   A N C O P T                   |
          |                 ===============                 |
          |          Approximate Normal Coordinate          |
          |           Rational Function Optimizer           |
           ------------------------------------------------- 
dumping coords to <xtbopt.coord> and <xtbopt.log>
 optlevel               2
 Maxcycle             520
 Maxmicro              25
 Econv         1.000000000000000E-007
 Gconv         2.000000000000000E-004
 Maxdispl       1.00000000000000     
 Hlow          5.000000000000000E-003
 S6             20.0000000000000     
 Nvar               72

generating ANC from model Hessian ...
 Shifting diagonal of input Hessian by   5.075629567589160E-003
 Lowest  eigenvalues of input Hessian
    0.005000   -0.000000   -0.000000    0.000000    0.000000    0.000000
    0.000000    0.005221    0.005413    0.005560    0.005702    0.005817
    0.006098    0.006235    0.006399    0.006865    0.007131    0.007621
 Highest eigenvalues
    1.566011    1.569355    1.594931    3.214517    3.413020    3.462518
 
cpu  time for ANC gen    0.02 s
wall time for ANC gen    0.02 s
................................................................................
.............................. CYCLE    1 ......................................
................................................................................
   1    -50.6761623 -0.506762E+02  0.600E-05    6.72       0.0  T
   2    -50.6761623 -0.869704E-11  0.464E-05    6.72     422.7  T
   3    -50.6761623 -0.618883E-11  0.237E-05    6.72     826.2  T
speedup  1.07
cpu  time for SCC    0.00 s
wall time for SCC    0.00 s
speedup  0.98
cpu  time for grad    0.01 s
wall time for grad    0.01 s
 E :    -50.37323197  G :  0.230336    pred/act E change:  0.000D+00  0.378D-07
Maxdispl :   0.1144   ||displ|| :   0.2571   Lambda : -0.281D-01
Largest |displ|/coords:  0.1144 (  23)  0.0746 (  25)  0.0640 (  43)
................................................................................
.............................. CYCLE    2 ......................................
................................................................................
   1    -50.6835846 -0.506836E+02  0.274E-01    6.77       0.0  T
   2    -50.6837902 -0.205604E-03  0.213E-01    6.79       1.0  T
   3    -50.6838696 -0.794727E-04  0.105E-01    6.83       1.0  T
   4    -50.6838787 -0.903586E-05  0.275E-02    6.84       1.0  T
   5    -50.6838796 -0.970301E-06  0.514E-03    6.84       3.8  T
   6    -50.6838797 -0.355134E-07  0.276E-03    6.84       7.1  T
speedup  0.93
cpu  time for SCC    0.00 s
wall time for SCC    0.01 s
speedup  0.98
cpu  time for grad    0.01 s
wall time for grad    0.01 s
 E :    -50.39495963  G :  0.142703    pred/act E change:  0.000D+00 -0.217D-01
Maxdispl :   0.1166   ||displ|| :   0.2890   Lambda : -0.137D-01
Largest |displ|/coords:  0.1166 (  23)  0.1094 (  13)  0.0874 (  25)
................................................................................
.............................. CYCLE    3 ......................................
................................................................................
   1    -50.6908249 -0.506908E+02  0.214E-01    6.85       0.0  T
   2    -50.6910449 -0.220012E-03  0.167E-01    6.88       1.0  T
   3    -50.6911147 -0.698106E-04  0.106E-01    6.91       1.0  T
   4    -50.6911198 -0.513438E-05  0.229E-02    6.94       1.0  T
   5    -50.6911205 -0.644137E-06  0.489E-03    6.93       4.0  T
   6    -50.6911205 -0.252976E-07  0.228E-03    6.93       8.6  T
speedup  0.94
cpu  time for SCC    0.00 s
wall time for SCC    0.01 s
speedup  0.99
cpu  time for grad    0.01 s
wall time for grad    0.01 s
 E :    -50.40610632  G :  0.083408    pred/act E change: -0.150D-01 -0.111D-01
Maxdispl :   0.1349   ||displ|| :   0.3426   Lambda : -0.785D-02
Largest |displ|/coords:  0.1349 (  23)  0.1323 (  13)  0.0979 (  15)
................................................................................
.............................. CYCLE    4 ......................................
................................................................................
   1    -50.6944530 -0.506945E+02  0.222E-01    6.86       0.0  T
   2    -50.6946345 -0.181553E-03  0.170E-01    6.88       1.0  T
   3    -50.6946954 -0.608423E-04  0.921E-02    6.92       1.0  T
   4    -50.6946996 -0.420589E-05  0.211E-02    6.93       1.0  T
   5    -50.6947003 -0.679050E-06  0.467E-03    6.93       4.2  T
   6    -50.6947003 -0.225496E-07  0.226E-03    6.93       8.7  T
speedup  0.91
cpu  time for SCC    0.00 s
wall time for SCC    0.01 s
speedup  0.97
cpu  time for grad    0.01 s
wall time for grad    0.01 s
 E :    -50.41245397  G :  0.044150    pred/act E change: -0.743D-02 -0.635D-02
Maxdispl :   0.2185   ||displ|| :   0.5087   Lambda : -0.732D-02
Largest |displ|/coords:  0.2185 (  23)  0.1912 (  13)  0.1631 (  25)
................................................................................
.............................. CYCLE    5 ......................................
................................................................................
   1    -50.6945072 -0.506945E+02  0.348E-01    6.72       0.0  T
   2    -50.6948961 -0.388935E-03  0.261E-01    6.75       1.0  T
   3    -50.6950366 -0.140537E-03  0.120E-01    6.80       1.0  T
   4    -50.6950500 -0.133327E-04  0.322E-02    6.81       1.0  T
   5    -50.6950519 -0.198569E-05  0.725E-03    6.81       2.7  T
   6    -50.6950520 -0.655600E-07  0.379E-03    6.81       5.2  T
   7    -50.6950520 -0.199535E-07  0.130E-03    6.81      15.1  T
speedup  0.97
cpu  time for SCC    0.01 s
wall time for SCC    0.01 s
speedup  0.99
cpu  time for grad    0.01 s
wall time for grad    0.01 s
 E :    -50.41737319  G :  0.028960    pred/act E change: -0.439D-02 -0.492D-02
Maxdispl :   0.2155   ||displ|| :   0.5421   Lambda : -0.362D-02
Largest |displ|/coords:  0.2155 (   8)  0.1967 (  23)  0.1873 (  13)
................................................................................
.............................. CYCLE    6 ......................................
................................................................................
   1    -50.6942129 -0.506942E+02  0.469E-01    6.51       0.0  T
   2    -50.6944125 -0.199677E-03  0.353E-01    6.53       1.0  T
   3    -50.6945081 -0.956098E-04  0.771E-02    6.58       1.0  T
   4    -50.6945380 -0.298520E-04  0.252E-02    6.57       1.0  T
   5    -50.6945394 -0.137349E-05  0.683E-03    6.57       2.9  T
   6    -50.6945394 -0.380942E-07  0.383E-03    6.57       5.1  T
   7    -50.6945394 -0.172580E-07  0.924E-04    6.57      21.2  T
speedup  0.97
cpu  time for SCC    0.01 s
wall time for SCC    0.01 s
speedup  1.00
cpu  time for grad    0.01 s
wall time for grad    0.01 s
 E :    -50.41792708  G :  0.048750    pred/act E change: -0.461D-02 -0.554D-03
Maxdispl :   0.2745   ||displ|| :   0.4774   Lambda : -0.446D-02
Largest |displ|/coords:  0.2745 (   6)  0.1534 (  13)  0.1311 (  23)
................................................................................
.............................. CYCLE    7 ......................................
................................................................................
   1    -50.6935340 -0.506935E+02  0.467E-01    6.48       0.0  T
   2    -50.6936151 -0.810069E-04  0.354E-01    6.49       1.0  T
   3    -50.6936730 -0.579890E-04  0.434E-02    6.52       1.0  T
   4    -50.6936857 -0.126952E-04  0.130E-02    6.51       1.5  T
   5    -50.6936860 -0.289454E-06  0.515E-03    6.51       3.8  T
   6    -50.6936861 -0.240214E-07  0.269E-03    6.51       7.3  T
speedup  0.94
cpu  time for SCC    0.00 s
wall time for SCC    0.01 s
speedup  0.98
cpu  time for grad    0.01 s
wall time for grad    0.01 s
 E :    -50.42025732  G :  0.031403    pred/act E change: -0.234D-02 -0.233D-02
Maxdispl :   0.2632   ||displ|| :   0.4531   Lambda : -0.302D-02
Largest |displ|/coords:  0.2632 (   5)  0.1666 (   6)  0.1546 (   4)
................................................................................
.............................. CYCLE    8 ......................................
................................................................................
   1    -50.6896855 -0.506897E+02  0.410E-01    6.74       0.0  T
   2    -50.6898301 -0.144581E-03  0.304E-01    6.73       1.0  T
   3    -50.6899113 -0.812111E-04  0.675E-02    6.70       1.0  T
   4    -50.6899294 -0.180733E-04  0.193E-02    6.71       1.0  T
   5    -50.6899300 -0.584307E-06  0.702E-03    6.71       2.8  T
   6    -50.6899301 -0.920514E-07  0.401E-03    6.71       4.9  T
   7    -50.6899301 -0.265843E-07  0.920E-04    6.71      21.3  T
speedup  1.13
cpu  time for SCC    0.01 s
wall time for SCC    0.01 s
speedup  1.00
cpu  time for grad    0.01 s
wall time for grad    0.01 s
 E :    -50.41851060  G :  0.070138    pred/act E change: -0.274D-02  0.175D-02
Maxdispl :   0.2666   ||displ|| :   0.4573   Lambda : -0.133D-01
Largest |displ|/coords:  0.2666 (   5)  0.2239 (   6)  0.1480 (   8)
................................................................................
.............................. CYCLE    9 ......................................
................................................................................
   1    -50.7019150 -0.507019E+02  0.581E-01    6.70       0.0  T
   2    -50.7021706 -0.255650E-03  0.434E-01    6.72       1.0  T
   3    -50.7023455 -0.174866E-03  0.894E-02    6.75       1.0  T
   4    -50.7023761 -0.306120E-04  0.162E-02    6.73       1.2  T
   5    -50.7023766 -0.508772E-06  0.992E-03    6.74       2.0  T
   6    -50.7023767 -0.796504E-07  0.258E-03    6.74       7.6  T
   7    -50.7023767 -0.235942E-07  0.633E-04    6.74      31.0  T
speedup  0.97
cpu  time for SCC    0.01 s
wall time for SCC    0.01 s
speedup  1.00
cpu  time for grad    0.01 s
wall time for grad    0.01 s
 E :    -50.42062277  G :  0.049891    pred/act E change: -0.182D-02 -0.211D-02
Maxdispl :   0.0879   ||displ|| :   0.2347   Lambda : -0.244D-02
Largest |displ|/coords:  0.0879 (  12)  0.0833 (   1)  0.0780 (   4)
................................................................................
.............................. CYCLE   10 ......................................
................................................................................
   1    -50.7009832 -0.507010E+02  0.157E-01    6.81       0.0  T
   2    -50.7009972 -0.140192E-04  0.118E-01    6.81       1.0  T
   3    -50.7010049 -0.760329E-05  0.208E-02    6.81       1.0  T
   4    -50.7010069 -0.200779E-05  0.800E-03    6.81       2.5  T
   5    -50.7010070 -0.123826E-06  0.211E-03    6.81       9.3  T
   6    -50.7010070 -0.438011E-08  0.116E-03    6.81      16.8  T
speedup  1.11
cpu  time for SCC    0.01 s
wall time for SCC    0.01 s
speedup  1.06
cpu  time for grad    0.01 s
wall time for grad    0.01 s
 E :    -50.42220896  G :  0.021144    pred/act E change: -0.803D-02 -0.159D-02
Maxdispl :   0.1441   ||displ|| :   0.3859   Lambda : -0.212D-02
Largest |displ|/coords:  0.1441 (  13)  0.1426 (  23)  0.1191 (   1)
................................................................................
.............................. CYCLE   11 ......................................
................................................................................
   1    -50.7026585 -0.507027E+02  0.266E-01    7.00       0.0  T
   2    -50.7027247 -0.662084E-04  0.196E-01    6.98       1.0  T
   3    -50.7027557 -0.310081E-04  0.418E-02    6.96       1.0  T
   4    -50.7027646 -0.884762E-05  0.107E-02    6.98       1.8  T
   5    -50.7027647 -0.160666E-06  0.396E-03    6.98       5.0  T
   6    -50.7027647 -0.162620E-07  0.205E-03    6.98       9.6  T
speedup  1.13
cpu  time for SCC    0.01 s
wall time for SCC    0.01 s
speedup  0.99
cpu  time for grad    0.01 s
wall time for grad    0.01 s
 E :    -50.42274830  G :  0.029662    pred/act E change: -0.129D-02 -0.539D-03
Maxdispl :   0.1604   ||displ|| :   0.3101   Lambda : -0.171D-02
Largest |displ|/coords:  0.1604 (  10)  0.0976 (   3)  0.0926 (  23)
................................................................................
.............................. CYCLE   12 ......................................
................................................................................
   1    -50.6940893 -0.506941E+02  0.311E-01    6.90       0.0  T
   2    -50.6941497 -0.603946E-04  0.230E-01    6.93       1.0  T
   3    -50.6941772 -0.275347E-04  0.416E-02    6.99       1.0  T
   4    -50.6941862 -0.900238E-05  0.986E-03    6.96       2.0  T
   5    -50.6941863 -0.948506E-07  0.426E-03    6.96       4.6  T
   6    -50.6941863 -0.134783E-07  0.151E-03    6.97      13.0  T
speedup  0.94
cpu  time for SCC    0.00 s
wall time for SCC    0.01 s
speedup  0.99
cpu  time for grad    0.01 s
wall time for grad    0.01 s
 E :    -50.42324796  G :  0.036986    pred/act E change: -0.122D-02 -0.500D-03
Maxdispl :   0.1778   ||displ|| :   0.3180   Lambda : -0.230D-02
Largest |displ|/coords:  0.1778 (   2)  0.1130 (  11)  0.1095 (   4)
................................................................................
.............................. CYCLE   13 ......................................
................................................................................
   1    -50.7030726 -0.507031E+02  0.323E-01    6.95       0.0  T
   2    -50.7031506 -0.780316E-04  0.242E-01    6.96       1.0  T
   3    -50.7031986 -0.479287E-04  0.485E-02    6.98       1.0  T
   4    -50.7032091 -0.105332E-04  0.118E-02    6.97       1.7  T
   5    -50.7032094 -0.305676E-06  0.506E-03    6.97       3.9  T
   6    -50.7032094 -0.178631E-07  0.243E-03    6.97       8.1  T
speedup  1.11
cpu  time for SCC    0.01 s
wall time for SCC    0.01 s
speedup  0.98
cpu  time for grad    0.01 s
wall time for grad    0.01 s
 E :    -50.42297529  G :  0.046782    pred/act E change: -0.937D-03  0.273D-03
Maxdispl :   0.2883   ||displ|| :   0.3577   Lambda : -0.353D-02
Largest |displ|/coords:  0.2883 (  10)  0.0991 (   9)  0.0791 (  13)
................................................................................
.............................. CYCLE   14 ......................................
................................................................................
   1    -50.7140529 -0.507141E+02  0.405E-01    6.99       0.0  T
   2    -50.7141507 -0.977667E-04  0.298E-01    6.93       1.0  T
   3    -50.7141965 -0.457933E-04  0.554E-02    6.82       1.0  T
   4    -50.7142108 -0.142688E-04  0.132E-02    6.86       1.5  T
   5    -50.7142110 -0.205830E-06  0.609E-03    6.86       3.2  T
   6    -50.7142110 -0.137489E-07  0.208E-03    6.86       9.4  T
   7    -50.7142110 -0.114186E-07  0.608E-04    6.86      32.2  T
speedup  0.97
cpu  time for SCC    0.01 s
wall time for SCC    0.01 s
speedup  1.00
cpu  time for grad    0.01 s
wall time for grad    0.01 s
 E :    -50.42314609  G :  0.040996    pred/act E change: -0.127D-02 -0.171D-03
Maxdispl :   0.1077   ||displ|| :   0.3045   Lambda : -0.339D-02
Largest |displ|/coords:  0.1077 (  12)  0.1059 (  11)  0.0939 (   6)
................................................................................
.............................. CYCLE   15 ......................................
................................................................................
   1    -50.7063896 -0.507064E+02  0.265E-01    6.95       0.0  T
   2    -50.7064225 -0.328504E-04  0.197E-01    6.97       1.0  T
   3    -50.7064389 -0.164204E-04  0.321E-02    7.01       1.0  T
   4    -50.7064439 -0.497868E-05  0.119E-02    7.00       1.6  T
   5    -50.7064440 -0.192288E-06  0.364E-03    6.99       5.4  T
   6    -50.7064441 -0.165723E-07  0.207E-03    7.00       9.5  T
speedup  1.13
cpu  time for SCC    0.01 s
wall time for SCC    0.01 s
speedup  0.99
cpu  time for grad    0.01 s
wall time for grad    0.01 s
 E :    -50.42468553  G :  0.025360    pred/act E change: -0.199D-02 -0.154D-02
Maxdispl :   0.1620   ||displ|| :   0.3505   Lambda : -0.162D-02
Largest |displ|/coords:  0.1620 (   2)  0.1312 (  23)  0.1026 (   3)
................................................................................
.............................. CYCLE   16 ......................................
................................................................................
   1    -50.6992083 -0.506992E+02  0.274E-01    6.96       0.0  T
   2    -50.6993024 -0.941013E-04  0.201E-01    6.98       1.0  T
   3    -50.6993465 -0.441051E-04  0.490E-02    7.00       1.0  T
   4    -50.6993577 -0.112126E-04  0.105E-02    6.98       1.9  T
   5    -50.6993579 -0.213054E-06  0.540E-03    6.98       3.6  T
   6    -50.6993579 -0.384864E-07  0.247E-03    6.99       7.9  T
speedup  0.94
cpu  time for SCC    0.01 s
wall time for SCC    0.01 s
speedup  0.99
cpu  time for grad    0.01 s
wall time for grad    0.01 s
 E :    -50.42501459  G :  0.034109    pred/act E change: -0.185D-02 -0.329D-03
Maxdispl :   0.0937   ||displ|| :   0.1910   Lambda : -0.145D-02
Largest |displ|/coords:  0.0937 (   3)  0.0541 (  20)  0.0514 (  17)
................................................................................
.............................. CYCLE   17 ......................................
................................................................................
   1    -50.7082430 -0.507082E+02  0.127E-01    6.96       0.0  T
   2    -50.7082564 -0.133573E-04  0.957E-02    6.96       1.0  T
   3    -50.7082662 -0.979076E-05  0.197E-02    6.95       1.0  T
   4    -50.7082677 -0.153192E-05  0.478E-03    6.95       4.1  T
   5    -50.7082678 -0.332120E-07  0.238E-03    6.95       8.3  T
speedup  1.11
cpu  time for SCC    0.00 s
wall time for SCC    0.00 s
speedup  1.05
cpu  time for grad    0.01 s
wall time for grad    0.01 s
 E :    -50.42585460  G :  0.018023    pred/act E change: -0.908D-03 -0.840D-03
Maxdispl :   0.1863   ||displ|| :   0.3930   Lambda : -0.169D-02
Largest |displ|/coords:  0.1863 (   3)  0.1458 (  11)  0.1219 (  18)
................................................................................
.............................. CYCLE   18 ......................................
................................................................................
   1    -50.7103286 -0.507103E+02  0.296E-01    6.96       0.0  T
   2    -50.7103936 -0.650505E-04  0.221E-01    6.94       1.0  T
   3    -50.7104310 -0.373454E-04  0.434E-02    6.89       1.0  T
   4    -50.7104406 -0.959647E-05  0.111E-02    6.91       1.8  T
   5    -50.7104407 -0.158975E-06  0.476E-03    6.91       4.1  T
   6    -50.7104407 -0.244669E-07  0.232E-03    6.91       8.5  T
   7    -50.7104407 -0.839200E-08  0.457E-04    6.91      42.9  T
speedup  0.95
cpu  time for SCC    0.01 s
wall time for SCC    0.01 s
speedup  0.99
cpu  time for grad    0.01 s
wall time for grad    0.01 s
 E :    -50.42606845  G :  0.039252    pred/act E change: -0.754D-03 -0.214D-03
Maxdispl :   0.1177   ||displ|| :   0.2495   Lambda : -0.204D-02
Largest |displ|/coords:  0.1177 (   2)  0.0956 (  14)  0.0905 (   4)
................................................................................
.............................. CYCLE   19 ......................................
................................................................................
   1    -50.7155778 -0.507156E+02  0.163E-01    6.91       0.0  T
   2    -50.7156015 -0.236974E-04  0.121E-01    6.90       1.0  T
   3    -50.7156184 -0.169322E-04  0.253E-02    6.88       1.0  T
   4    -50.7156212 -0.273592E-05  0.856E-03    6.88       2.3  T
   5    -50.7156213 -0.121117E-06  0.352E-03    6.88       5.6  T
   6    -50.7156213 -0.126309E-07  0.165E-03    6.88      11.9  T
speedup  0.93
cpu  time for SCC    0.01 s
wall time for SCC    0.01 s
speedup  0.98
cpu  time for grad    0.01 s
wall time for grad    0.01 s
 E :    -50.42734812  G :  0.016908    pred/act E change: -0.976D-03 -0.128D-02
Maxdispl :   0.1729   ||displ|| :   0.4403   Lambda : -0.146D-02
Largest |displ|/coords:  0.1729 (   3)  0.1679 (   2)  0.1290 (   6)
................................................................................
.............................. CYCLE   20 ......................................
................................................................................
   1    -50.7147826 -0.507148E+02  0.277E-01    6.81       0.0  T
   2    -50.7148360 -0.533947E-04  0.206E-01    6.81       1.0  T
   3    -50.7148685 -0.325426E-04  0.376E-02    6.79       1.0  T
   4    -50.7148762 -0.766400E-05  0.101E-02    6.78       1.9  T
   5    -50.7148763 -0.120370E-06  0.462E-03    6.78       4.2  T
   6    -50.7148763 -0.251934E-07  0.188E-03    6.78      10.4  T
   7    -50.7148763 -0.707711E-08  0.501E-04    6.78      39.1  T
speedup  0.97
cpu  time for SCC    0.01 s
wall time for SCC    0.01 s
speedup  1.00
cpu  time for grad    0.01 s
wall time for grad    0.01 s
 E :    -50.42816448  G :  0.022797    pred/act E change: -0.108D-02 -0.816D-03
Maxdispl :   0.1626   ||displ|| :   0.4239   Lambda : -0.158D-02
Largest |displ|/coords:  0.1626 (   3)  0.1452 (  11)  0.1369 (  18)
................................................................................
.............................. CYCLE   21 ......................................
................................................................................
   1    -50.7190509 -0.507191E+02  0.240E-01    6.71       0.0  T
   2    -50.7190864 -0.354853E-04  0.181E-01    6.68       1.0  T
   3    -50.7191134 -0.269355E-04  0.320E-02    6.61       1.0  T
   4    -50.7191181 -0.473993E-05  0.129E-02    6.62       1.5  T
   5    -50.7191184 -0.276807E-06  0.453E-03    6.63       4.3  T
   6    -50.7191184 -0.254150E-07  0.253E-03    6.63       7.8  T
speedup  0.94
cpu  time for SCC    0.00 s
wall time for SCC    0.01 s
speedup  1.00
cpu  time for grad    0.01 s
wall time for grad    0.01 s
 E :    -50.42896504  G :  0.026739    pred/act E change: -0.871D-03 -0.801D-03
Maxdispl :   0.1135   ||displ|| :   0.3370   Lambda : -0.161D-02
Largest |displ|/coords:  0.1135 (   3)  0.1077 (  10)  0.0887 (  19)
................................................................................
.............................. CYCLE   22 ......................................
................................................................................
   1    -50.7228895 -0.507229E+02  0.241E-01    6.51       0.0  T
   2    -50.7229175 -0.279456E-04  0.179E-01    6.49       1.0  T
   3    -50.7229397 -0.222738E-04  0.293E-02    6.43       1.0  T
   4    -50.7229424 -0.270658E-05  0.101E-02    6.44       1.9  T
   5    -50.7229426 -0.154599E-06  0.377E-03    6.44       5.2  T
   6    -50.7229426 -0.193314E-07  0.212E-03    6.44       9.3  T
speedup  1.13
cpu  time for SCC    0.01 s
wall time for SCC    0.01 s
speedup  1.00
cpu  time for grad    0.01 s
wall time for grad    0.01 s
 E :    -50.42950893  G :  0.019779    pred/act E change: -0.934D-03 -0.544D-03
Maxdispl :   0.0947   ||displ|| :   0.1796   Lambda : -0.950D-03
Largest |displ|/coords:  0.0947 (  15)  0.0685 (  10)  0.0594 (   7)
................................................................................
.............................. CYCLE   23 ......................................
................................................................................
   1    -50.7319420 -0.507319E+02  0.173E-01    6.48       0.0  T
   2    -50.7319599 -0.178471E-04  0.127E-01    6.46       1.0  T
   3    -50.7319705 -0.105963E-04  0.245E-02    6.41       1.0  T
   4    -50.7319726 -0.213465E-05  0.805E-03    6.42       2.4  T
   5    -50.7319727 -0.786301E-07  0.265E-03    6.42       7.4  T
   6    -50.7319727 -0.682267E-08  0.134E-03    6.42      14.6  T
speedup  0.93
cpu  time for SCC    0.00 s
wall time for SCC    0.01 s
speedup  0.98
cpu  time for grad    0.01 s
wall time for grad    0.01 s
 E :    -50.42956062  G :  0.024296    pred/act E change: -0.896D-03 -0.517D-04
Maxdispl :   0.0878   ||displ|| :   0.1918   Lambda : -0.126D-02
Largest |displ|/coords:  0.0878 (  10)  0.0768 (  20)  0.0661 (  23)
................................................................................
.............................. CYCLE   24 ......................................
................................................................................
   1    -50.7246846 -0.507247E+02  0.157E-01    6.30       0.0  T
   2    -50.7247107 -0.261260E-04  0.113E-01    6.33       1.0  T
   3    -50.7247210 -0.103018E-04  0.287E-02    6.38       1.0  T
   4    -50.7247238 -0.276204E-05  0.606E-03    6.36       3.2  T
   5    -50.7247238 -0.493506E-07  0.225E-03    6.36       8.7  T
   6    -50.7247238 -0.481264E-08  0.106E-03    6.36      18.4  T
speedup  1.07
cpu  time for SCC    0.01 s
wall time for SCC    0.01 s
speedup  1.04
cpu  time for grad    0.01 s
wall time for grad    0.01 s
 E :    -50.42968143  G :  0.026982    pred/act E change: -0.490D-03 -0.121D-03
Maxdispl :   0.0436   ||displ|| :   0.1514   Lambda : -0.104D-02
Largest |displ|/coords:  0.0436 (   4)  0.0435 (  20)  0.0429 (  19)
................................................................................
.............................. CYCLE   25 ......................................
................................................................................
   1    -50.7273119 -0.507273E+02  0.124E-01    6.44       0.0  T
   2    -50.7273224 -0.104231E-04  0.920E-02    6.44       1.0  T
   3    -50.7273292 -0.688291E-05  0.194E-02    6.43       1.0  T
   4    -50.7273304 -0.112872E-05  0.542E-03    6.43       3.6  T
   5    -50.7273304 -0.540424E-07  0.199E-03    6.43       9.9  T
speedup  1.09
cpu  time for SCC    0.00 s
wall time for SCC    0.00 s
speedup  1.05
cpu  time for grad    0.01 s
wall time for grad    0.01 s
 E :    -50.43003019  G :  0.014838    pred/act E change: -0.653D-03 -0.349D-03
Maxdispl :   0.0614   ||displ|| :   0.1371   Lambda : -0.449D-03
Largest |displ|/coords:  0.0614 (  11)  0.0410 (  10)  0.0388 (  14)

generating ANC from model Hessian ...
 Shifting diagonal of input Hessian by   5.128848776354499E-003
 Lowest  eigenvalues of input Hessian
    0.005000   -0.000000   -0.000000   -0.000000    0.000000    0.000000
    0.000000    0.005234    0.005364    0.005584    0.005694    0.005867
    0.006188    0.006425    0.006903    0.006986    0.007218    0.007481
 Highest eigenvalues
    1.405610    1.408846    1.411986    2.576613    3.373060    3.805030
 
cpu  time for ANC gen    0.02 s
wall time for ANC gen    0.02 s
................................................................................
.............................. CYCLE   26 ......................................
................................................................................
   1    -50.7267000 -0.507267E+02  0.979E-02    6.45       0.0  T
   2    -50.7267069 -0.695135E-05  0.723E-02    6.43       1.0  T
   3    -50.7267105 -0.360587E-05  0.156E-02    6.40       1.3  T
   4    -50.7267114 -0.901921E-06  0.365E-03    6.41       5.4  T
   5    -50.7267114 -0.229055E-07  0.132E-03    6.41      14.8  T
   6    -50.7267114 -0.162508E-08  0.664E-04    6.41      29.5  T
   7    -50.7267114 -0.651823E-09  0.215E-04    6.41      91.4  T
speedup  0.95
cpu  time for SCC    0.01 s
wall time for SCC    0.01 s
speedup  1.02
cpu  time for grad    0.01 s
wall time for grad    0.01 s
 E :    -50.43009396  G :  0.011828    pred/act E change:  0.000D+00 -0.638D-04
Maxdispl :   0.0637   ||displ|| :   0.1540   Lambda : -0.443D-03
Largest |displ|/coords:  0.0637 (  15)  0.0629 (  18)  0.0502 (  11)
................................................................................
.............................. CYCLE   27 ......................................
................................................................................
   1    -50.7270385 -0.507270E+02  0.141E-01    6.39       0.0  T
   2    -50.7270416 -0.311739E-05  0.106E-01    6.40       1.0  T
   3    -50.7270445 -0.283680E-05  0.941E-03    6.41       2.1  T
   4    -50.7270448 -0.358753E-06  0.334E-03    6.40       5.9  T
   5    -50.7270448 -0.945749E-08  0.134E-03    6.40      14.7  T
   6    -50.7270448 -0.280527E-08  0.455E-04    6.40      43.1  T
speedup  0.93
cpu  time for SCC    0.01 s
wall time for SCC    0.01 s
speedup  0.98
cpu  time for grad    0.01 s
wall time for grad    0.01 s
 E :    -50.43043157  G :  0.005117    pred/act E change:  0.000D+00 -0.338D-03
Maxdispl :   0.1343   ||displ|| :   0.3171   Lambda : -0.508D-03
Largest |displ|/coords:  0.1343 (  15)  0.1256 (   6)  0.0998 (  18)
................................................................................
.............................. CYCLE   28 ......................................
................................................................................
   1    -50.7244319 -0.507244E+02  0.284E-01    6.39       0.0  T
   2    -50.7244438 -0.119640E-04  0.213E-01    6.40       1.0  T
   3    -50.7244553 -0.114398E-04  0.186E-02    6.43       1.1  T
   4    -50.7244566 -0.129522E-05  0.739E-03    6.41       2.7  T
   5    -50.7244566 -0.394881E-07  0.293E-03    6.41       6.7  T
   6    -50.7244566 -0.135060E-07  0.114E-03    6.41      17.2  T
speedup  0.93
cpu  time for SCC    0.00 s
wall time for SCC    0.01 s
speedup  0.98
cpu  time for grad    0.01 s
wall time for grad    0.01 s
 E :    -50.43068783  G :  0.012240    pred/act E change: -0.227D-03 -0.256D-03
Maxdispl :   0.0590   ||displ|| :   0.1244   Lambda : -0.235D-03
Largest |displ|/coords:  0.0590 (  15)  0.0460 (  18)  0.0374 (   1)
................................................................................
.............................. CYCLE   29 ......................................
................................................................................
   1    -50.7257345 -0.507257E+02  0.909E-02    6.42       0.0  T
   2    -50.7257356 -0.103278E-05  0.682E-02    6.42       1.0  T
   3    -50.7257366 -0.102808E-05  0.537E-03    6.41       3.7  T
   4    -50.7257367 -0.103649E-06  0.223E-03    6.41       8.8  T
   5    -50.7257367 -0.613672E-08  0.841E-04    6.41      23.3  T
speedup  0.87
cpu  time for SCC    0.00 s
wall time for SCC    0.00 s
speedup  0.98
cpu  time for grad    0.01 s
wall time for grad    0.01 s
 E :    -50.43084332  G :  0.007892    pred/act E change: -0.279D-03 -0.155D-03
Maxdispl :   0.0800   ||displ|| :   0.1923   Lambda : -0.247D-03
Largest |displ|/coords:  0.0800 (   6)  0.0758 (   1)  0.0671 (  15)
................................................................................
.............................. CYCLE   30 ......................................
................................................................................
   1    -50.7275566 -0.507276E+02  0.144E-01    6.41       0.0  T
   2    -50.7275606 -0.399930E-05  0.109E-01    6.41       1.0  T
   3    -50.7275642 -0.355165E-05  0.109E-02    6.39       1.8  T
   4    -50.7275647 -0.494691E-06  0.423E-03    6.39       4.6  T
   5    -50.7275647 -0.153676E-07  0.145E-03    6.39      13.6  T
   6    -50.7275647 -0.262698E-08  0.721E-04    6.39      27.2  T
speedup  0.94
cpu  time for SCC    0.00 s
wall time for SCC    0.01 s
speedup  0.99
cpu  time for grad    0.01 s
wall time for grad    0.01 s
 E :    -50.43100682  G :  0.004551    pred/act E change: -0.119D-03 -0.164D-03
Maxdispl :   0.0929   ||displ|| :   0.2421   Lambda : -0.161D-03
Largest |displ|/coords:  0.0929 (   6)  0.0884 (   1)  0.0783 (   3)
................................................................................
.............................. CYCLE   31 ......................................
................................................................................
   1    -50.7262187 -0.507262E+02  0.173E-01    6.39       0.0  T
   2    -50.7262229 -0.419893E-05  0.130E-01    6.38       1.0  T
   3    -50.7262269 -0.396535E-05  0.119E-02    6.38       1.6  T
   4    -50.7262273 -0.449441E-06  0.535E-03    6.38       3.7  T
   5    -50.7262273 -0.301201E-07  0.145E-03    6.38      13.5  T
   6    -50.7262273 -0.252376E-08  0.851E-04    6.38      23.1  T
speedup  1.09
cpu  time for SCC    0.01 s
wall time for SCC    0.01 s
speedup  1.05
cpu  time for grad    0.01 s
wall time for grad    0.01 s
 E :    -50.43111161  G :  0.005902    pred/act E change: -0.128D-03 -0.105D-03
Maxdispl :   0.0846   ||displ|| :   0.1796   Lambda : -0.135D-03
Largest |displ|/coords:  0.0846 (   1)  0.0729 (   3)  0.0604 (  11)
................................................................................
.............................. CYCLE   32 ......................................
................................................................................
   1    -50.7280483 -0.507280E+02  0.109E-01    6.38       0.0  T
   2    -50.7280515 -0.317578E-05  0.810E-02    6.37       1.0  T
   3    -50.7280535 -0.205616E-05  0.114E-02    6.36       1.7  T
   4    -50.7280540 -0.430870E-06  0.433E-03    6.36       4.5  T
   5    -50.7280540 -0.266955E-07  0.110E-03    6.36      17.9  T
   6    -50.7280540 -0.141399E-08  0.649E-04    6.36      30.2  T
speedup  0.94
cpu  time for SCC    0.00 s
wall time for SCC    0.01 s
speedup  0.99
cpu  time for grad    0.01 s
wall time for grad    0.01 s
 E :    -50.43116572  G :  0.009614    pred/act E change: -0.851D-04 -0.541D-04
Maxdispl :   0.1258   ||displ|| :   0.2805   Lambda : -0.203D-03
Largest |displ|/coords:  0.1258 (   3)  0.1148 (   1)  0.0858 (  14)
................................................................................
.............................. CYCLE   33 ......................................
................................................................................
   1    -50.7258595 -0.507259E+02  0.209E-01    6.34       0.0  T
   2    -50.7258678 -0.835242E-05  0.157E-01    6.34       1.0  T
   3    -50.7258747 -0.689069E-05  0.175E-02    6.33       1.1  T
   4    -50.7258757 -0.102018E-05  0.628E-03    6.33       3.1  T
   5    -50.7258758 -0.514541E-07  0.200E-03    6.33       9.8  T
   6    -50.7258758 -0.380146E-08  0.111E-03    6.33      17.6  T
speedup  0.94
cpu  time for SCC    0.00 s
wall time for SCC    0.01 s
speedup  0.99
cpu  time for grad    0.01 s
wall time for grad    0.01 s
 E :    -50.43121938  G :  0.012793    pred/act E change: -0.696D-04 -0.537D-04
Maxdispl :   0.0305   ||displ|| :   0.0882   Lambda : -0.229D-03
Largest |displ|/coords:  0.0305 (   8)  0.0292 (   6)  0.0280 (   1)
................................................................................
.............................. CYCLE   34 ......................................
................................................................................
   1    -50.7276024 -0.507276E+02  0.651E-02    6.36       0.0  T
   2    -50.7276047 -0.233429E-05  0.484E-02    6.36       1.0  T
   3    -50.7276061 -0.138954E-05  0.899E-03    6.36       2.2  T
   4    -50.7276064 -0.292184E-06  0.223E-03    6.36       8.8  T
   5    -50.7276064 -0.769926E-08  0.873E-04    6.36      22.5  T
speedup  1.11
cpu  time for SCC    0.01 s
wall time for SCC    0.00 s
speedup  1.06
cpu  time for grad    0.01 s
wall time for grad    0.01 s
 E :    -50.43134772  G :  0.004831    pred/act E change: -0.110D-03 -0.128D-03
Maxdispl :   0.0982   ||displ|| :   0.1758   Lambda : -0.189D-03
Largest |displ|/coords:  0.0982 (   3)  0.0585 (   1)  0.0567 (  12)
................................................................................
.............................. CYCLE   35 ......................................
................................................................................
   1    -50.7295232 -0.507295E+02  0.133E-01    6.38       0.0  T
   2    -50.7295270 -0.381502E-05  0.987E-02    6.38       1.0  T
   3    -50.7295302 -0.314692E-05  0.121E-02    6.38       1.6  T
   4    -50.7295305 -0.366544E-06  0.428E-03    6.38       4.6  T
   5    -50.7295306 -0.215051E-07  0.137E-03    6.38      14.3  T
   6    -50.7295306 -0.144489E-08  0.703E-04    6.38      27.9  T
speedup  0.91
cpu  time for SCC    0.00 s
wall time for SCC    0.01 s
speedup  0.98
cpu  time for grad    0.01 s
wall time for grad    0.01 s
 E :    -50.43148170  G :  0.005860    pred/act E change: -0.115D-03 -0.134D-03
Maxdispl :   0.3108   ||displ|| :   0.5383   Lambda : -0.368D-03
Largest |displ|/coords:  0.3108 (   3)  0.1886 (   1)  0.1555 (   9)
................................................................................
.............................. CYCLE   36 ......................................
................................................................................
   1    -50.7258621 -0.507259E+02  0.372E-01    6.40       0.0  T
   2    -50.7258863 -0.242116E-04  0.275E-01    6.40       1.0  T
   3    -50.7259027 -0.163431E-04  0.363E-02    6.40       1.0  T
   4    -50.7259056 -0.297023E-05  0.125E-02    6.39       1.6  T
   5    -50.7259058 -0.112246E-06  0.345E-03    6.39       5.7  T
   6    -50.7259058 -0.833718E-08  0.175E-03    6.39      11.2  T
   7    -50.7259058 -0.391960E-08  0.449E-04    6.39      43.6  T
speedup  0.95
cpu  time for SCC    0.01 s
wall time for SCC    0.01 s
speedup  0.99
cpu  time for grad    0.01 s
wall time for grad    0.01 s
 E :    -50.43159424  G :  0.019561    pred/act E change: -0.973D-04 -0.113D-03
Maxdispl :   0.0530   ||displ|| :   0.1563   Lambda : -0.460D-03
Largest |displ|/coords:  0.0530 (  11)  0.0515 (  13)  0.0509 (  18)
................................................................................
.............................. CYCLE   37 ......................................
................................................................................
   1    -50.7307859 -0.507308E+02  0.119E-01    6.44       0.0  T
   2    -50.7307912 -0.529248E-05  0.884E-02    6.44       1.0  T
   3    -50.7307948 -0.360743E-05  0.146E-02    6.43       1.3  T
   4    -50.7307955 -0.685201E-06  0.509E-03    6.44       3.9  T
   5    -50.7307955 -0.338033E-07  0.165E-03    6.44      11.9  T
   6    -50.7307955 -0.351877E-08  0.810E-04    6.44      24.2  T
speedup  1.11
cpu  time for SCC    0.01 s
wall time for SCC    0.01 s
speedup  0.99
cpu  time for grad    0.01 s
wall time for grad    0.01 s
 E :    -50.43178772  G :  0.010902    pred/act E change: -0.237D-03 -0.193D-03
Maxdispl :   0.1201   ||displ|| :   0.1725   Lambda : -0.245D-03
Largest |displ|/coords:  0.1201 (   3)  0.0753 (   1)  0.0372 (  11)
................................................................................
.............................. CYCLE   38 ......................................
................................................................................
   1    -50.7294602 -0.507295E+02  0.971E-02    6.43       0.0  T
   2    -50.7294624 -0.225800E-05  0.723E-02    6.43       1.0  T
   3    -50.7294638 -0.139707E-05  0.935E-03    6.43       2.1  T
   4    -50.7294642 -0.314656E-06  0.273E-03    6.43       7.2  T
   5    -50.7294642 -0.112988E-07  0.977E-04    6.43      20.1  T
speedup  0.89
cpu  time for SCC    0.00 s
wall time for SCC    0.00 s
speedup  0.98
cpu  time for grad    0.01 s
wall time for grad    0.01 s
 E :    -50.43192085  G :  0.008552    pred/act E change: -0.236D-03 -0.133D-03
Maxdispl :   0.2672   ||displ|| :   0.4007   Lambda : -0.316D-03
Largest |displ|/coords:  0.2672 (   3)  0.1720 (   1)  0.0974 (   9)
................................................................................
.............................. CYCLE   39 ......................................
................................................................................
   1    -50.7268316 -0.507268E+02  0.240E-01    6.43       0.0  T
   2    -50.7268427 -0.110674E-04  0.177E-01    6.43       1.0  T
   3    -50.7268497 -0.701458E-05  0.258E-02    6.43       1.0  T
   4    -50.7268513 -0.155123E-05  0.809E-03    6.43       2.4  T
   5    -50.7268513 -0.646895E-07  0.254E-03    6.43       7.7  T
   6    -50.7268513 -0.626360E-08  0.130E-03    6.43      15.0  T
speedup  1.11
cpu  time for SCC    0.01 s
wall time for SCC    0.01 s
speedup  1.07
cpu  time for grad    0.01 s
wall time for grad    0.01 s
 E :    -50.43208684  G :  0.015556    pred/act E change: -0.126D-03 -0.166D-03
Maxdispl :   0.0538   ||displ|| :   0.1358   Lambda : -0.293D-03
Largest |displ|/coords:  0.0538 (   3)  0.0522 (  16)  0.0506 (   2)
................................................................................
.............................. CYCLE   40 ......................................
................................................................................
   1    -50.7292265 -0.507292E+02  0.869E-02    6.42       0.0  T
   2    -50.7292295 -0.297359E-05  0.651E-02    6.42       1.0  T
   3    -50.7292323 -0.285028E-05  0.961E-03    6.43       2.0  T
   4    -50.7292326 -0.280662E-06  0.307E-03    6.43       6.4  T
   5    -50.7292326 -0.131966E-07  0.122E-03    6.43      16.0  T
   6    -50.7292326 -0.234811E-08  0.630E-04    6.43      31.1  T
speedup  0.94
cpu  time for SCC    0.00 s
wall time for SCC    0.01 s
speedup  1.00
cpu  time for grad    0.01 s
wall time for grad    0.01 s
 E :    -50.43218209  G :  0.011934    pred/act E change: -0.184D-03 -0.952D-04
Maxdispl :   0.1391   ||displ|| :   0.2169   Lambda : -0.336D-03
Largest |displ|/coords:  0.1391 (   3)  0.0803 (   1)  0.0601 (   9)
................................................................................
.............................. CYCLE   41 ......................................
................................................................................
   1    -50.7305576 -0.507306E+02  0.138E-01    6.46       0.0  T
   2    -50.7305630 -0.547147E-05  0.103E-01    6.45       1.0  T
   3    -50.7305660 -0.297819E-05  0.146E-02    6.43       1.3  T
   4    -50.7305668 -0.819643E-06  0.513E-03    6.44       3.8  T
   5    -50.7305669 -0.283893E-07  0.159E-03    6.44      12.3  T
   6    -50.7305669 -0.273223E-08  0.709E-04    6.44      27.7  T
speedup  1.13
cpu  time for SCC    0.01 s
wall time for SCC    0.01 s
speedup  1.00
cpu  time for grad    0.01 s
wall time for grad    0.01 s
 E :    -50.43234927  G :  0.010978    pred/act E change: -0.149D-03 -0.167D-03
Maxdispl :   0.2512   ||displ|| :   0.3627   Lambda : -0.379D-03
Largest |displ|/coords:  0.2512 (   3)  0.1176 (   9)  0.1148 (   1)
................................................................................
.............................. CYCLE   42 ......................................
................................................................................
   1    -50.7259660 -0.507260E+02  0.245E-01    6.45       0.0  T
   2    -50.7259777 -0.116758E-04  0.182E-01    6.46       1.0  T
   3    -50.7259881 -0.103803E-04  0.200E-02    6.47       1.0  T
   4    -50.7259891 -0.105728E-05  0.813E-03    6.47       2.4  T
   5    -50.7259892 -0.614630E-07  0.257E-03    6.47       7.6  T
   6    -50.7259892 -0.707652E-08  0.121E-03    6.47      16.2  T
speedup  0.91
cpu  time for SCC    0.01 s
wall time for SCC    0.01 s
speedup  0.98
cpu  time for grad    0.01 s
wall time for grad    0.01 s
 E :    -50.43247601  G :  0.015307    pred/act E change: -0.176D-03 -0.127D-03
Maxdispl :   0.0688   ||displ|| :   0.1122   Lambda : -0.276D-03
Largest |displ|/coords:  0.0688 (   2)  0.0459 (  14)  0.0359 (  12)
................................................................................
.............................. CYCLE   43 ......................................
................................................................................
   1    -50.7293105 -0.507293E+02  0.660E-02    6.47       0.0  T
   2    -50.7293123 -0.179737E-05  0.482E-02    6.46       1.0  T
   3    -50.7293135 -0.120120E-05  0.895E-03    6.46       2.2  T
   4    -50.7293137 -0.192854E-06  0.295E-03    6.46       6.6  T
   5    -50.7293137 -0.992865E-08  0.841E-04    6.46      23.3  T
speedup  0.87
cpu  time for SCC    0.00 s
wall time for SCC    0.00 s
speedup  0.96
cpu  time for grad    0.01 s
wall time for grad    0.01 s
 E :    -50.43264958  G :  0.006757    pred/act E change: -0.214D-03 -0.174D-03
Maxdispl :   0.2186   ||displ|| :   0.3934   Lambda : -0.354D-03
Largest |displ|/coords:  0.2186 (   3)  0.1724 (   1)  0.1471 (   2)
................................................................................
.............................. CYCLE   44 ......................................
................................................................................
   1    -50.7284803 -0.507285E+02  0.196E-01    6.46       0.0  T
   2    -50.7284921 -0.117977E-04  0.146E-01    6.46       1.0  T
   3    -50.7284996 -0.754201E-05  0.228E-02    6.46       1.0  T
   4    -50.7285014 -0.177003E-05  0.763E-03    6.46       2.6  T
   5    -50.7285015 -0.101940E-06  0.255E-03    6.46       7.7  T
   6    -50.7285015 -0.678494E-08  0.130E-03    6.46      15.1  T
speedup  1.09
cpu  time for SCC    0.01 s
wall time for SCC    0.01 s
speedup  0.98
cpu  time for grad    0.01 s
wall time for grad    0.01 s
 E :    -50.43272580  G :  0.017787    pred/act E change: -0.139D-03 -0.762D-04
Maxdispl :   0.0871   ||displ|| :   0.1774   Lambda : -0.392D-03
Largest |displ|/coords:  0.0871 (   2)  0.0666 (  14)  0.0575 (   8)
................................................................................
.............................. CYCLE   45 ......................................
................................................................................
   1    -50.7294250 -0.507294E+02  0.970E-02    6.49       0.0  T
   2    -50.7294282 -0.320086E-05  0.712E-02    6.49       1.0  T
   3    -50.7294306 -0.234753E-05  0.118E-02    6.50       1.7  T
   4    -50.7294309 -0.358208E-06  0.444E-03    6.49       4.4  T
   5    -50.7294310 -0.239415E-07  0.126E-03    6.49      15.5  T
   6    -50.7294310 -0.198222E-08  0.742E-04    6.49      26.4  T
speedup  0.93
cpu  time for SCC    0.00 s
wall time for SCC    0.01 s
speedup  0.98
cpu  time for grad    0.01 s
wall time for grad    0.01 s
 E :    -50.43294771  G :  0.007132    pred/act E change: -0.204D-03 -0.222D-03
Maxdispl :   0.1431   ||displ|| :   0.2877   Lambda : -0.231D-03
Largest |displ|/coords:  0.1431 (   3)  0.1284 (   2)  0.0929 (   1)
................................................................................
.............................. CYCLE   46 ......................................
................................................................................
   1    -50.7283441 -0.507283E+02  0.157E-01    6.53       0.0  T
   2    -50.7283485 -0.437217E-05  0.117E-01    6.53       1.0  T
   3    -50.7283524 -0.393168E-05  0.121E-02    6.52       1.6  T
   4    -50.7283528 -0.404210E-06  0.527E-03    6.53       3.7  T
   5    -50.7283529 -0.220637E-07  0.131E-03    6.53      14.9  T
   6    -50.7283529 -0.159545E-08  0.668E-04    6.53      29.4  T
speedup  0.93
cpu  time for SCC    0.00 s
wall time for SCC    0.01 s
speedup  0.99
cpu  time for grad    0.01 s
wall time for grad    0.01 s
 E :    -50.43309453  G :  0.007460    pred/act E change: -0.202D-03 -0.147D-03
Maxdispl :   0.1996   ||displ|| :   0.3587   Lambda : -0.187D-03
Largest |displ|/coords:  0.1996 (   2)  0.1433 (   3)  0.1397 (   1)
................................................................................
.............................. CYCLE   47 ......................................
................................................................................
   1    -50.7268600 -0.507269E+02  0.163E-01    6.56       0.0  T
   2    -50.7268652 -0.521223E-05  0.121E-01    6.56       1.0  T
   3    -50.7268694 -0.420429E-05  0.142E-02    6.56       1.4  T
   4    -50.7268700 -0.578193E-06  0.571E-03    6.56       3.4  T
   5    -50.7268700 -0.281736E-07  0.148E-03    6.56      13.3  T
   6    -50.7268700 -0.197960E-08  0.771E-04    6.56      25.4  T
speedup  0.93
cpu  time for SCC    0.00 s
wall time for SCC    0.01 s
speedup  0.99
cpu  time for grad    0.01 s
wall time for grad    0.01 s
 E :    -50.43322569  G :  0.010645    pred/act E change: -0.125D-03 -0.131D-03
Maxdispl :   0.2623   ||displ|| :   0.3609   Lambda : -0.297D-03
Largest |displ|/coords:  0.2623 (   2)  0.1065 (   1)  0.0961 (   4)
................................................................................
.............................. CYCLE   48 ......................................
................................................................................
   1    -50.7294236 -0.507294E+02  0.139E-01    6.63       0.0  T
   2    -50.7294298 -0.616908E-05  0.103E-01    6.63       1.0  T
   3    -50.7294335 -0.376983E-05  0.178E-02    6.61       1.1  T
   4    -50.7294344 -0.818297E-06  0.470E-03    6.62       4.2  T
   5    -50.7294344 -0.303170E-07  0.153E-03    6.62      12.8  T
   6    -50.7294344 -0.190762E-08  0.760E-04    6.62      25.8  T
speedup  0.94
cpu  time for SCC    0.00 s
wall time for SCC    0.01 s
speedup  0.99
cpu  time for grad    0.01 s
wall time for grad    0.01 s
 E :    -50.43338758  G :  0.010331    pred/act E change: -0.105D-03 -0.162D-03
Maxdispl :   0.3042   ||displ|| :   0.4552   Lambda : -0.318D-03
Largest |displ|/coords:  0.3042 (   2)  0.1477 (   1)  0.1319 (   4)
................................................................................
.............................. CYCLE   49 ......................................
................................................................................
   1    -50.7275326 -0.507275E+02  0.190E-01    6.64       0.0  T
   2    -50.7275391 -0.648277E-05  0.141E-01    6.64       1.0  T
   3    -50.7275450 -0.592622E-05  0.174E-02    6.65       1.1  T
   4    -50.7275456 -0.556983E-06  0.600E-03    6.65       3.3  T
   5    -50.7275456 -0.302327E-07  0.172E-03    6.65      11.4  T
   6    -50.7275456 -0.214238E-08  0.805E-04    6.65      24.4  T
speedup  0.94
cpu  time for SCC    0.01 s
wall time for SCC    0.01 s
speedup  0.99
cpu  time for grad    0.01 s
wall time for grad    0.01 s
 E :    -50.43356337  G :  0.012100    pred/act E change: -0.168D-03 -0.176D-03
Maxdispl :   0.2154   ||displ|| :   0.3082   Lambda : -0.310D-03
Largest |displ|/coords:  0.2154 (   2)  0.1099 (   4)  0.0997 (   6)
................................................................................
.............................. CYCLE   50 ......................................
................................................................................
   1    -50.7270212 -0.507270E+02  0.143E-01    6.63       0.0  T
   2    -50.7270254 -0.424549E-05  0.106E-01    6.64       1.0  T
   3    -50.7270294 -0.393697E-05  0.124E-02    6.65       1.6  T
   4    -50.7270297 -0.313348E-06  0.373E-03    6.65       5.3  T
   5    -50.7270297 -0.143798E-07  0.145E-03    6.65      13.6  T
   6    -50.7270297 -0.297056E-08  0.718E-04    6.65      27.3  T
speedup  0.91
cpu  time for SCC    0.00 s
wall time for SCC    0.01 s
speedup  0.98
cpu  time for grad    0.01 s
wall time for grad    0.01 s
 E :    -50.43377885  G :  0.011422    pred/act E change: -0.192D-03 -0.215D-03
Maxdispl :   0.2938   ||displ|| :   0.4107   Lambda : -0.506D-03
Largest |displ|/coords:  0.2938 (   2)  0.1459 (   6)  0.1278 (   4)
................................................................................
.............................. CYCLE   51 ......................................
................................................................................
   1    -50.7309661 -0.507310E+02  0.159E-01    6.64       0.0  T
   2    -50.7309761 -0.100330E-04  0.118E-01    6.63       1.0  T
   3    -50.7309816 -0.549024E-05  0.195E-02    6.62       1.0  T
   4    -50.7309831 -0.151197E-05  0.819E-03    6.63       2.4  T
   5    -50.7309832 -0.766821E-07  0.188E-03    6.63      10.4  T
   6    -50.7309832 -0.476949E-08  0.108E-03    6.63      18.1  T
speedup  1.13
cpu  time for SCC    0.01 s
wall time for SCC    0.01 s
speedup  1.00
cpu  time for grad    0.01 s
wall time for grad    0.01 s
 E :    -50.43397611  G :  0.015383    pred/act E change: -0.170D-03 -0.197D-03
Maxdispl :   0.4029   ||displ|| :   0.6103   Lambda : -0.628D-03
Largest |displ|/coords:  0.4029 (   2)  0.2165 (   3)  0.2036 (   6)
................................................................................
.............................. CYCLE   52 ......................................
................................................................................
   1    -50.7264472 -0.507264E+02  0.256E-01    6.65       0.0  T
   2    -50.7264626 -0.154680E-04  0.189E-01    6.65       1.0  T
   3    -50.7264763 -0.136553E-04  0.271E-02    6.64       1.0  T
   4    -50.7264777 -0.146781E-05  0.100E-02    6.64       2.0  T
   5    -50.7264778 -0.104930E-06  0.293E-03    6.64       6.7  T
   6    -50.7264779 -0.966028E-08  0.153E-03    6.64      12.8  T
speedup  0.93
cpu  time for SCC    0.00 s
wall time for SCC    0.01 s
speedup  1.05
cpu  time for grad    0.01 s
wall time for grad    0.01 s
 E :    -50.43434775  G :  0.018007    pred/act E change: -0.296D-03 -0.372D-03
Maxdispl :   0.2298   ||displ|| :   0.3631   Lambda : -0.590D-03
Largest |displ|/coords:  0.2298 (   2)  0.1621 (   6)  0.1068 (  11)

generating ANC from model Hessian ...
 Shifting diagonal of input Hessian by   5.006998432461101E-003
 Lowest  eigenvalues of input Hessian
    0.005000   -0.000000   -0.000000   -0.000000    0.000000    0.000000
    0.000000    0.005133    0.005159    0.005418    0.005674    0.005754
    0.006128    0.006903    0.006983    0.007138    0.007652    0.008399
 Highest eigenvalues
    1.408466    1.414443    1.424214    2.590590    3.298886    3.852562
 
cpu  time for ANC gen    0.01 s
wall time for ANC gen    0.01 s
................................................................................
.............................. CYCLE   53 ......................................
................................................................................
   1    -50.7278323 -0.507278E+02  0.166E-01    6.73       0.0  T
   2    -50.7278399 -0.762331E-05  0.123E-01    6.73       1.0  T
   3    -50.7278464 -0.648299E-05  0.157E-02    6.72       1.3  T
   4    -50.7278471 -0.706533E-06  0.591E-03    6.72       3.3  T
   5    -50.7278472 -0.278076E-07  0.179E-03    6.72      11.0  T
   6    -50.7278472 -0.373029E-08  0.992E-04    6.72      19.8  T
   7    -50.7278472 -0.150364E-08  0.206E-04    6.72      95.4  T
speedup  0.95
cpu  time for SCC    0.01 s
wall time for SCC    0.01 s
speedup  0.96
cpu  time for grad    0.01 s
wall time for grad    0.01 s
 E :    -50.43457384  G :  0.020864    pred/act E change:  0.000D+00 -0.226D-03
Maxdispl :   0.1035   ||displ|| :   0.2383   Lambda : -0.943D-03
Largest |displ|/coords:  0.1035 (   8)  0.0941 (   3)  0.0788 (   2)
................................................................................
.............................. CYCLE   54 ......................................
................................................................................
   1    -50.7298001 -0.507298E+02  0.190E-01    6.79       0.0  T
   2    -50.7298075 -0.733294E-05  0.140E-01    6.79       1.0  T
   3    -50.7298150 -0.757835E-05  0.131E-02    6.79       1.5  T
   4    -50.7298154 -0.340971E-06  0.529E-03    6.79       3.7  T
   5    -50.7298154 -0.258389E-07  0.164E-03    6.79      12.0  T
speedup  0.89
cpu  time for SCC    0.00 s
wall time for SCC    0.00 s
speedup  0.98
cpu  time for grad    0.01 s
wall time for grad    0.01 s
 E :    -50.43525706  G :  0.008333    pred/act E change:  0.000D+00 -0.683D-03
Maxdispl :   0.1968   ||displ|| :   0.3866   Lambda : -0.751D-03
Largest |displ|/coords:  0.1968 (   3)  0.1503 (   2)  0.1381 (   5)
................................................................................
.............................. CYCLE   55 ......................................
................................................................................
   1    -50.7299968 -0.507300E+02  0.236E-01    6.84       0.0  T
   2    -50.7300069 -0.101283E-04  0.175E-01    6.84       1.0  T
   3    -50.7300185 -0.115478E-04  0.175E-02    6.83       1.1  T
   4    -50.7300189 -0.479148E-06  0.655E-03    6.84       3.0  T
   5    -50.7300190 -0.542379E-07  0.234E-03    6.84       8.4  T
   6    -50.7300190 -0.943148E-08  0.113E-03    6.84      17.3  T
speedup  1.11
cpu  time for SCC    0.01 s
wall time for SCC    0.01 s
speedup  0.99
cpu  time for grad    0.01 s
wall time for grad    0.01 s
 E :    -50.43589612  G :  0.007872    pred/act E change: -0.499D-03 -0.639D-03
Maxdispl :   0.4029   ||displ|| :   0.7718   Lambda : -0.124D-02
Largest |displ|/coords:  0.4029 (   3)  0.3057 (   2)  0.2537 (   5)
................................................................................
.............................. CYCLE   56 ......................................
................................................................................
   1    -50.7241384 -0.507241E+02  0.451E-01    6.82       0.0  T
   2    -50.7241726 -0.341973E-04  0.335E-01    6.83       1.0  T
   3    -50.7242151 -0.424729E-04  0.312E-02    6.85       1.0  T
   4    -50.7242160 -0.952949E-06  0.107E-02    6.85       1.8  T
   5    -50.7242162 -0.153262E-06  0.440E-03    6.85       4.5  T
   6    -50.7242162 -0.337654E-07  0.206E-03    6.85       9.5  T
   7    -50.7242162 -0.574698E-08  0.492E-04    6.85      39.8  T
speedup  0.97
cpu  time for SCC    0.01 s
wall time for SCC    0.01 s
speedup  1.01
cpu  time for grad    0.01 s
wall time for grad    0.01 s
 E :    -50.43694906  G :  0.020687    pred/act E change: -0.432D-03 -0.105D-02
Maxdispl :   0.3860   ||displ|| :   0.7169   Lambda : -0.152D-02
Largest |displ|/coords:  0.3860 (   3)  0.2774 (   2)  0.2406 (   9)
................................................................................
.............................. CYCLE   57 ......................................
................................................................................
   1    -50.7234313 -0.507234E+02  0.308E-01    6.82       0.0  T
   2    -50.7234589 -0.275729E-04  0.228E-01    6.81       1.0  T
   3    -50.7234817 -0.228045E-04  0.340E-02    6.80       1.0  T
   4    -50.7234851 -0.347526E-05  0.108E-02    6.82       1.8  T
   5    -50.7234853 -0.157006E-06  0.426E-03    6.82       4.6  T
   6    -50.7234853 -0.348073E-07  0.221E-03    6.82       8.9  T
speedup  0.93
cpu  time for SCC    0.01 s
wall time for SCC    0.01 s
speedup  0.99
cpu  time for grad    0.01 s
wall time for grad    0.01 s
 E :    -50.43808954  G :  0.027805    pred/act E change: -0.990D-03 -0.114D-02
Maxdispl :   0.3009   ||displ|| :   0.5429   Lambda : -0.206D-02
Largest |displ|/coords:  0.3009 (   3)  0.2515 (   2)  0.1817 (   9)
................................................................................
.............................. CYCLE   58 ......................................
................................................................................
   1    -50.7345573 -0.507346E+02  0.167E-01    7.16       0.0  T
   2    -50.7345813 -0.239624E-04  0.119E-01    7.14       1.0  T
   3    -50.7345911 -0.975089E-05  0.289E-02    7.11       1.0  T
   4    -50.7345934 -0.230689E-05  0.617E-03    7.13       3.2  T
   5    -50.7345935 -0.809219E-07  0.276E-03    7.13       7.1  T
   6    -50.7345935 -0.824893E-08  0.135E-03    7.13      14.5  T
speedup  0.94
cpu  time for SCC    0.00 s
wall time for SCC    0.01 s
speedup  1.00
cpu  time for grad    0.01 s
wall time for grad    0.01 s
 E :    -50.43966537  G :  0.020114    pred/act E change: -0.115D-02 -0.158D-02
Maxdispl :   0.3737   ||displ|| :   0.7410   Lambda : -0.295D-02
Largest |displ|/coords:  0.3737 (   3)  0.3284 (   2)  0.1873 (  15)
................................................................................
.............................. CYCLE   59 ......................................
................................................................................
   1    -50.7329146 -0.507329E+02  0.424E-01    7.54       0.0  T
   2    -50.7329690 -0.543994E-04  0.310E-01    7.59       1.0  T
   3    -50.7330099 -0.408886E-04  0.328E-02    7.68       1.0  T
   4    -50.7330144 -0.448229E-05  0.125E-02    7.66       1.6  T
   5    -50.7330145 -0.134187E-06  0.446E-03    7.66       4.4  T
   6    -50.7330146 -0.248464E-07  0.225E-03    7.66       8.7  T
speedup  0.96
cpu  time for SCC    0.01 s
wall time for SCC    0.01 s
speedup  1.00
cpu  time for grad    0.01 s
wall time for grad    0.01 s
 E :    -50.44099085  G :  0.039944    pred/act E change: -0.133D-02 -0.133D-02
Maxdispl :   0.1889   ||displ|| :   0.3601   Lambda : -0.222D-02
Largest |displ|/coords:  0.1889 (   9)  0.1786 (   3)  0.1502 (   1)
................................................................................
.............................. CYCLE   60 ......................................
................................................................................
   1    -50.7318588 -0.507319E+02  0.189E-01    7.73       0.0  T
   2    -50.7318788 -0.199917E-04  0.140E-01    7.73       1.0  T
   3    -50.7318893 -0.104397E-04  0.264E-02    7.73       1.0  T
   4    -50.7318922 -0.297710E-05  0.796E-03    7.74       2.5  T
   5    -50.7318923 -0.961628E-07  0.284E-03    7.74       6.9  T
   6    -50.7318924 -0.810759E-08  0.163E-03    7.74      12.0  T
speedup  0.94
cpu  time for SCC    0.00 s
wall time for SCC    0.01 s
speedup  1.00
cpu  time for grad    0.01 s
wall time for grad    0.01 s
 E :    -50.44190579  G :  0.020064    pred/act E change: -0.228D-02 -0.915D-03
Maxdispl :   0.2475   ||displ|| :   0.4387   Lambda : -0.226D-02
Largest |displ|/coords:  0.2475 (   7)  0.2237 (   6)  0.1542 (   5)
................................................................................
.............................. CYCLE   61 ......................................
................................................................................
   1    -50.7373034 -0.507373E+02  0.375E-01    8.11       0.0  T
   2    -50.7373525 -0.490415E-04  0.275E-01    8.09       1.0  T
   3    -50.7373835 -0.309862E-04  0.418E-02    8.04       1.0  T
   4    -50.7373887 -0.520074E-05  0.133E-02    8.05       1.5  T
   5    -50.7373888 -0.139599E-06  0.407E-03    8.05       4.8  T
   6    -50.7373888 -0.118033E-07  0.191E-03    8.05      10.3  T
speedup  1.13
cpu  time for SCC    0.01 s
wall time for SCC    0.01 s
speedup  0.99
cpu  time for grad    0.01 s
wall time for grad    0.01 s
 E :    -50.44173453  G :  0.040359    pred/act E change: -0.125D-02  0.171D-03
Maxdispl :   0.1524   ||displ|| :   0.3781   Lambda : -0.323D-02
Largest |displ|/coords:  0.1524 (   2)  0.1432 (   3)  0.1151 (   4)
................................................................................
.............................. CYCLE   62 ......................................
................................................................................
   1    -50.7316634 -0.507317E+02  0.295E-01    7.79       0.0  T
   2    -50.7317153 -0.519654E-04  0.217E-01    7.85       1.0  T
   3    -50.7317389 -0.235862E-04  0.411E-02    7.98       1.0  T
   4    -50.7317461 -0.719201E-05  0.128E-02    7.96       1.5  T
   5    -50.7317463 -0.141423E-06  0.368E-03    7.96       5.3  T
   6    -50.7317463 -0.205488E-07  0.206E-03    7.96       9.5  T
speedup  0.93
cpu  time for SCC    0.00 s
wall time for SCC    0.01 s
speedup  0.98
cpu  time for grad    0.01 s
wall time for grad    0.01 s
 E :    -50.44319555  G :  0.025517    pred/act E change: -0.135D-02 -0.146D-02
Maxdispl :   0.1655   ||displ|| :   0.3204   Lambda : -0.193D-02
Largest |displ|/coords:  0.1655 (   8)  0.1005 (   1)  0.0947 (  12)
................................................................................
.............................. CYCLE   63 ......................................
................................................................................
   1    -50.7311737 -0.507312E+02  0.261E-01    8.16       0.0  T
   2    -50.7311970 -0.233616E-04  0.196E-01    8.16       1.0  T
   3    -50.7312122 -0.152208E-04  0.288E-02    8.16       1.0  T
   4    -50.7312153 -0.309476E-05  0.114E-02    8.15       1.7  T
   5    -50.7312155 -0.183911E-06  0.306E-03    8.15       6.4  T
   6    -50.7312155 -0.852084E-08  0.178E-03    8.15      11.0  T
speedup  0.94
cpu  time for SCC    0.00 s
wall time for SCC    0.01 s
speedup  1.00
cpu  time for grad    0.01 s
wall time for grad    0.01 s
 E :    -50.44298839  G :  0.037189    pred/act E change: -0.185D-02  0.207D-03
Maxdispl :   0.2249   ||displ|| :   0.4421   Lambda : -0.265D-02
Largest |displ|/coords:  0.2249 (   3)  0.1864 (   7)  0.1772 (   9)
................................................................................
.............................. CYCLE   64 ......................................
................................................................................
   1    -50.7271760 -0.507272E+02  0.265E-01    8.10       0.0  T
   2    -50.7272324 -0.563998E-04  0.194E-01    8.15       1.0  T
   3    -50.7272560 -0.236067E-04  0.467E-02    8.25       1.0  T
   4    -50.7272623 -0.638110E-05  0.144E-02    8.25       1.4  T
   5    -50.7272625 -0.203178E-06  0.382E-03    8.24       5.1  T
   6    -50.7272626 -0.213605E-07  0.219E-03    8.24       8.9  T
speedup  1.11
cpu  time for SCC    0.01 s
wall time for SCC    0.01 s
speedup  1.07
cpu  time for grad    0.01 s
wall time for grad    0.01 s
 E :    -50.44397780  G :  0.033253    pred/act E change: -0.106D-02 -0.989D-03
Maxdispl :   0.1761   ||displ|| :   0.4328   Lambda : -0.325D-02
Largest |displ|/coords:  0.1761 (   8)  0.1617 (   3)  0.1579 (   4)
................................................................................
.............................. CYCLE   65 ......................................
................................................................................
   1    -50.7394056 -0.507394E+02  0.408E-01    8.13       0.0  T
   2    -50.7395284 -0.122868E-03  0.300E-01    8.04       1.0  T
   3    -50.7395707 -0.423161E-04  0.640E-02    7.87       1.0  T
   4    -50.7395893 -0.185635E-04  0.156E-02    7.91       1.3  T
   5    -50.7395896 -0.268993E-06  0.591E-03    7.91       3.3  T
   6    -50.7395896 -0.121878E-07  0.259E-03    7.91       7.6  T
speedup  0.94
cpu  time for SCC    0.01 s
wall time for SCC    0.01 s
speedup  1.00
cpu  time for grad    0.01 s
wall time for grad    0.01 s
 E :    -50.44239091  G :  0.052556    pred/act E change: -0.158D-02  0.159D-02
[...]
.............................. CYCLE  120 ......................................
................................................................................
   1    -50.7384265 -0.507384E+02  0.247E-02    8.76       0.0  T
   2    -50.7384266 -0.882462E-07  0.183E-02    8.76       1.1  T
   3    -50.7384267 -0.942594E-07  0.235E-03    8.76       8.3  T
   4    -50.7384267 -0.615972E-08  0.707E-04    8.76      27.7  T
   5    -50.7384267 -0.678838E-09  0.223E-04    8.76      88.1  T
speedup  0.85
cpu  time for SCC    0.00 s
wall time for SCC    0.00 s
speedup  0.98
cpu  time for grad    0.01 s
wall time for grad    0.01 s
 E :    -50.45127101  G :  0.000465    pred/act E change: -0.115D-05 -0.221D-05
Maxdispl :   0.0264   ||displ|| :   0.0519   Lambda : -0.264D-05
Largest |displ|/coords:  0.0264 (   5)  0.0250 (   3)  0.0228 (   7)
................................................................................
.............................. CYCLE  121 ......................................
................................................................................
   1    -50.7383946 -0.507384E+02  0.252E-02    8.77       0.0  T
   2    -50.7383947 -0.859500E-07  0.187E-02    8.77       1.1  T
   3    -50.7383948 -0.918934E-07  0.255E-03    8.77       7.7  T
   4    -50.7383948 -0.672843E-08  0.679E-04    8.77      28.9  T
   5    -50.7383948 -0.725159E-09  0.232E-04    8.77      84.4  T
speedup  0.85
cpu  time for SCC    0.00 s
wall time for SCC    0.00 s
speedup  0.98
cpu  time for grad    0.01 s
wall time for grad    0.01 s
 E :    -50.45127271  G :  0.000491    pred/act E change: -0.165D-05 -0.171D-05
Maxdispl :   0.0165   ||displ|| :   0.0276   Lambda : -0.162D-05
Largest |displ|/coords:  0.0165 (   1)  0.0133 (   3)  0.0084 (   7)
................................................................................
.............................. CYCLE  122 ......................................
................................................................................
   1    -50.7385048 -0.507385E+02  0.136E-02    8.77       0.0  T
   2    -50.7385048 -0.323566E-07  0.102E-02    8.77       1.9  T
   3    -50.7385048 -0.316475E-07  0.153E-03    8.77      12.8  T
   4    -50.7385048 -0.315560E-08  0.416E-04    8.77      47.2  T
   5    -50.7385048 -0.270425E-09  0.125E-04    8.77     156.6  T
speedup  1.09
cpu  time for SCC    0.00 s
wall time for SCC    0.00 s
speedup  0.98
cpu  time for grad    0.01 s
wall time for grad    0.01 s
 E :    -50.45127385  G :  0.000503    pred/act E change: -0.132D-05 -0.114D-05
Maxdispl :   0.0272   ||displ|| :   0.0520   Lambda : -0.185D-05
Largest |displ|/coords:  0.0272 (   1)  0.0262 (   3)  0.0222 (   5)
................................................................................
.............................. CYCLE  123 ......................................
................................................................................
   1    -50.7384005 -0.507384E+02  0.252E-02    8.77       0.0  T
   2    -50.7384006 -0.899699E-07  0.187E-02    8.77       1.0  T
   3    -50.7384007 -0.917109E-07  0.260E-03    8.77       7.6  T
   4    -50.7384007 -0.746327E-08  0.694E-04    8.77      28.3  T
   5    -50.7384007 -0.671633E-09  0.222E-04    8.77      88.3  T
speedup  1.09
cpu  time for SCC    0.00 s
wall time for SCC    0.00 s
speedup  0.98
cpu  time for grad    0.01 s
wall time for grad    0.01 s
 E :    -50.45127495  G :  0.000581    pred/act E change: -0.809D-06 -0.110D-05
Maxdispl :   0.0185   ||displ|| :   0.0257   Lambda : -0.146D-05
Largest |displ|/coords:  0.0185 (   1)  0.0090 (   2)  0.0078 (   3)
................................................................................
.............................. CYCLE  124 ......................................
................................................................................
   1    -50.7385423 -0.507385E+02  0.986E-03    8.77       0.0  T
   2    -50.7385423 -0.211716E-07  0.737E-03    8.77       2.7  T
   3    -50.7385423 -0.161185E-07  0.107E-03    8.77      18.4  T
   4    -50.7385423 -0.294121E-08  0.293E-04    8.77      66.9  T
   5    -50.7385423 -0.149853E-09  0.925E-05    8.77     211.9  T
speedup  0.89
cpu  time for SCC    0.00 s
wall time for SCC    0.00 s
speedup  0.99
cpu  time for grad    0.01 s
wall time for grad    0.01 s
 E :    -50.45127580  G :  0.000466    pred/act E change: -0.930D-06 -0.850D-06
Maxdispl :   0.0133   ||displ|| :   0.0181   Lambda : -0.784D-06
Largest |displ|/coords:  0.0133 (   1)  0.0068 (   3)  0.0064 (   2)
................................................................................
.............................. CYCLE  125 ......................................
................................................................................
   1    -50.7385097 -0.507385E+02  0.762E-03    8.77       0.0  T
   2    -50.7385097 -0.994708E-08  0.567E-03    8.77       3.5  T
   3    -50.7385097 -0.104264E-07  0.651E-04    8.77      30.1  T
   4    -50.7385097 -0.566288E-09  0.256E-04    8.77      76.6  T
speedup  1.05
cpu  time for SCC    0.00 s
wall time for SCC    0.00 s
speedup  0.96
cpu  time for grad    0.01 s
wall time for grad    0.01 s
 E :    -50.45127638  G :  0.000314    pred/act E change: -0.731D-06 -0.582D-06
Maxdispl :   0.0140   ||displ|| :   0.0187   Lambda : -0.722D-06
Largest |displ|/coords:  0.0140 (   1)  0.0083 (   2)  0.0041 (   3)
................................................................................
.............................. CYCLE  126 ......................................
................................................................................
   1    -50.7384937 -0.507385E+02  0.788E-03    8.77       0.0  T
   2    -50.7384937 -0.121279E-07  0.581E-03    8.77       3.4  T
   3    -50.7384937 -0.118651E-07  0.703E-04    8.77      27.9  T
   4    -50.7384937 -0.669345E-09  0.284E-04    8.77      69.0  T
speedup  1.05
cpu  time for SCC    0.00 s
wall time for SCC    0.00 s
speedup  1.04
cpu  time for grad    0.01 s
wall time for grad    0.01 s
 E :    -50.45127686  G :  0.000231    pred/act E change: -0.392D-06 -0.483D-06
Maxdispl :   0.0120   ||displ|| :   0.0158   Lambda : -0.307D-06
Largest |displ|/coords:  0.0120 (   1)  0.0072 (   2)  0.0042 (   5)
................................................................................
.............................. CYCLE  127 ......................................
................................................................................
   1    -50.7385031 -0.507385E+02  0.687E-03    8.77       0.0  T
   2    -50.7385031 -0.858649E-08  0.509E-03    8.77       3.9  T
   3    -50.7385031 -0.839933E-08  0.597E-04    8.77      32.9  T
   4    -50.7385031 -0.501828E-09  0.243E-04    8.77      80.6  T
speedup  0.83
cpu  time for SCC    0.00 s
wall time for SCC    0.00 s
speedup  0.98
cpu  time for grad    0.01 s
wall time for grad    0.01 s
 E :    -50.45127709  G :  0.000217    pred/act E change: -0.361D-06 -0.226D-06
Maxdispl :   0.0099   ||displ|| :   0.0136   Lambda : -0.217D-06
Largest |displ|/coords:  0.0099 (   1)  0.0072 (   2)  0.0041 (   5)
................................................................................
.............................. CYCLE  128 ......................................
................................................................................
   1    -50.7385458 -0.507385E+02  0.582E-03    8.77       0.0  T
   2    -50.7385458 -0.627700E-08  0.432E-03    8.77       4.5  T
   3    -50.7385458 -0.575025E-08  0.520E-04    8.77      37.7  T
   4    -50.7385458 -0.463601E-09  0.199E-04    8.77      98.8  T
speedup  1.08
cpu  time for SCC    0.00 s
wall time for SCC    0.00 s
speedup  0.98
cpu  time for grad    0.01 s
wall time for grad    0.01 s
 E :    -50.45127724  G :  0.000158    pred/act E change: -0.153D-06 -0.147D-06
Maxdispl :   0.0054   ||displ|| :   0.0081   Lambda : -0.822D-07
Largest |displ|/coords:  0.0054 (   1)  0.0041 (   2)  0.0034 (   5)
................................................................................
.............................. CYCLE  129 ......................................
................................................................................
   1    -50.7385776 -0.507386E+02  0.353E-03    8.77       0.0  T
   2    -50.7385776 -0.217020E-08  0.263E-03    8.77       7.5  T
   3    -50.7385776 -0.179810E-08  0.315E-04    8.77      62.2  T
   4    -50.7385776 -0.220645E-09  0.117E-04    8.77     167.3  T
speedup  1.05
cpu  time for SCC    0.00 s
wall time for SCC    0.00 s
speedup  1.06
cpu  time for grad    0.01 s
wall time for grad    0.01 s
 E :    -50.45127730  G :  0.000109    pred/act E change: -0.109D-06 -0.588D-07
Maxdispl :   0.0041   ||displ|| :   0.0067   Lambda : -0.550D-07
Largest |displ|/coords:  0.0041 (   1)  0.0036 (   2)  0.0030 (   5)

   *** GEOMETRY OPTIMIZATION CONVERGED AFTER 129 ITERATIONS ***

------------------------------------------------------------------------
 total energy gain (kcal):     -0.0233
------------------------------------------------------------------------
================
 final structure:
================
$coord
        2.72901234815181        0.41525023707615       -2.16520552183145      S 
        0.93644670476100        2.04822716304724       -0.91921370294086      O 
        2.47312244994722        0.27229773619301       -4.84423808776919      O 
        2.49450896909192       -2.26806475282753       -0.95343217195701      O 
        5.40279095768485        1.12370728595843       -1.39973235645580      O 
        5.47645185839443        0.90407331085453        0.62181713781931      H 
        0.73542299722902       -2.95228238828911       -1.18278453978260      H 
       -2.05681130995218       -3.90472880447913       -1.33616253161698      O 
       -2.22342646922711       -5.65546999571366       -0.89982848691137      H 
        0.05675989280561        1.70587668299102        3.87208263429168      O 
        0.29838521086657        1.89662084307950        2.02385016812536      H 
       -0.72570048051702        3.25080556783990        4.40954748059057      H 
       -2.72538915959462        0.16303516341510       -4.77987981234991      O 
       -0.95964744031945        0.50178272481780       -5.12097021019131      H 
       -2.77084238414500       -1.51261943719066       -4.06136279823270      H 
       -5.20093806117992        2.50996956112497       -0.97546878639204      O 
       -6.83332969007490        2.64525755052972       -1.74917894985122      H 
       -4.05190354104369        1.97098877674134       -2.33036521538079      H 
       -3.97726978196549       -1.20705708605730        2.21089364329368      O 
       -4.64376702732502        0.19341708397846        1.18158997708404      H 
       -2.88514536892111       -2.91115463879246        0.08203713847034      H 
       -2.56146162354842       -0.46707677962339        3.11894422364568      H 
        5.31616008026610        0.43081187994230        3.33243478906581      N 
        3.52704144087248        0.88582657896929        3.89776385736122      H 
        6.58834892179835        1.40429905377128        4.37444477628891      H 
        5.58118048722041       -1.44379335555498        3.59241742084920      H 
$end
 
 Bond Distances (Angstroems)
 ---------------------------
S1-O2=1.4427         S1-O3=1.4261         S1-O4=1.5630         S1-O5=1.5187         O2-S1=1.4427         O3-S1=1.4261         
O4-S1=1.5630         O4-H7=1.0062         O5-S1=1.5187         O5-H6=1.0768         H6-O5=1.0768         H7-O4=1.0062         
O8-H9=0.9589         O8-H21=1.0158        H9-O8=0.9589         O10-H11=0.9915       O10-H12=0.9595       H11-O10=0.9915       
H12-O10=0.9595       O13-H14=0.9684       O13-H15=0.9651       H14-O13=0.9684       H15-O13=0.9651       O16-H17=0.9586       
O16-H18=0.9824       H17-O16=0.9586       H18-O16=0.9824       O19-H20=0.9850       O19-H22=0.9724       H20-O19=0.9850       
H21-O8=1.0158        H22-O19=0.9724       N23-H24=1.0217       N23-H25=1.0113       N23-H26=1.0113       H24-N23=1.0217       
H25-N23=1.0113       H26-N23=1.0113       
 N  H  Rav=1.0147 sigma=0.0049  Rmin=1.0113  Rmax=1.0217     3
 O  H  Rav=0.9867 sigma=0.0325  Rmin=0.9586  Rmax=1.0768    12
 S  O  Rav=1.4876 sigma=0.0558  Rmin=1.4261  Rmax=1.5630     4
 
 selected bond angles (degree)
 --------------------
O3-S1-O2=115.07                O4-S1-O2=107.73                O4-S1-O3=110.62                O5-S1-O2=110.05                
O5-S1-O3=111.51                O5-S1-O4=100.88                H7-O4-S1=110.54                H6-O5-S1=105.79                
H21-O8-H9=106.41               H12-O10-H11=105.15             
 
 selected dihedral angles (degree)
 ---------------------------------
H7-O4-S1-O2= 60.11            H7-O4-S1-O3=293.57            H7-O4-S1-O5=175.45            H6-O5-S1-O2= 59.49            
H6-O5-S1-O3=188.44            H6-O5-S1-O4=305.90            
 
 CMA Distance (Angstroems)
 ---------------------------
R(CMA):  2.6096

========================================================================
 FINAL SINGLEPOINT CALCULATION ON OPTIMIZED GEOMETRY
========================================================================

 Ncao       : 65
 Nao        : 64
 Nshell     : 38
 Nel        : 80
 T(el)      :   300.0
 intcut     :    25.0
 scfconv/Eh :  0.100E-05
   qconv/e  :  0.100E-03
 intneglect :  0.100E-07
 broydamp   :      0.250
 iter      E             dE          RMSdq      gap      omega  full diag
   1    -50.7385776 -0.507386E+02  0.454E-05    8.77       0.0  T
   2    -50.7385776 -0.102318E-11  0.286E-05    8.77     686.6  T
   3    -50.7385776 -0.632383E-12  0.370E-06    8.77    5305.7  T
speedup  1.11
cpu  time for SCC    0.00 s
wall time for SCC    0.00 s

   *** convergence criteria satisfied after 3 iterations ***

          eigenvalues
 #    :          28         29         30         31         32         33         34         35
 occ. :        2.000      2.000      2.000      2.000      2.000      2.000      2.000      2.000
 eps  :       -13.494    -13.260    -12.926    -12.542    -12.504    -12.424    -12.386    -12.240
 #    :          36         37         38         39         40         41         42         43
 occ. :        2.000      2.000      2.000      2.000      2.000      0.000      0.000      0.000
 eps  :       -11.998    -11.832    -11.802    -11.672    -11.513     -2.746     -0.862     -0.322
 #    :          44         45         46         47         48         49         50         51
 occ. :        0.000      0.000      0.000      0.000      0.000      0.000      0.000      0.000
 eps  :         0.301      0.531      1.349      2.255      2.586      3.910      4.464      5.018


   #   Z            q   n(s)   n(p)   n(d)      C6AA      α(0)
   1  16 S      1.688  1.581  1.783  0.947    89.034    15.881
   2   8 O     -0.713  1.761  4.953  0.000    29.068     7.229
   3   8 O     -0.669  1.755  4.914  0.000    27.884     7.080
   4   8 O     -0.636  1.759  4.877  0.000    26.027     6.887
   5   8 O     -0.612  1.754  4.858  0.000    25.468     6.812
   6   1 H      0.356  0.644  0.000  0.000     0.561     1.170
   7   1 H      0.386  0.614  0.000  0.000     0.509     1.120
   8   8 O     -0.638  1.764  4.874  0.000    26.115     6.897
   9   1 H      0.294  0.706  0.000  0.000     0.738     1.349
  10   8 O     -0.632  1.753  4.879  0.000    25.975     6.879
  11   1 H      0.339  0.661  0.000  0.000     0.614     1.231
  12   1 H      0.292  0.708  0.000  0.000     0.747     1.358
  13   8 O     -0.612  1.740  4.872  0.000    25.471     6.812
  14   1 H      0.306  0.694  0.000  0.000     0.705     1.319
  15   1 H      0.307  0.693  0.000  0.000     0.700     1.314
  16   8 O     -0.609  1.747  4.862  0.000    25.413     6.804
  17   1 H      0.282  0.718  0.000  0.000     0.777     1.385
  18   1 H      0.333  0.667  0.000  0.000     0.629     1.246
  19   8 O     -0.630  1.763  4.867  0.000    25.919     6.871
  20   1 H      0.333  0.667  0.000  0.000     0.630     1.247
  21   1 H      0.354  0.646  0.000  0.000     0.580     1.197
  22   1 H      0.315  0.685  0.000  0.000     0.677     1.292
  23   7 N     -0.427  1.344  4.083  0.000    31.114     8.285
  24   1 H      0.225  0.775  0.000  0.000     0.988     1.557
  25   1 H      0.182  0.818  0.000  0.000     1.201     1.717
  26   1 H      0.186  0.814  0.000  0.000     1.182     1.703

 Mol. C6AA /au·bohr⁶  :       5439.872202
 Mol. C8AA /au·bohr⁸  :     117539.067177
 Mol. α(0) /au        :        106.638433

 
 Wiberg/Mayer (AO) data. WBOs > 0.1 written file <wbo>
 largest (>0.05) Wiberg bond orders for each atom
           total WBO             WBO to atom ...
     1  S   4.850    O    3 1.442    O    2 1.341    O    5 1.067    O    4 0.959
     2  O   1.750    S    1 1.341    O    3 0.118    O    5 0.093    O    4 0.089    H   11 0.077
     3  O   1.793    S    1 1.442    O    2 0.118    O    4 0.091    O    5 0.079
     4  O   1.946    S    1 0.959    H    7 0.705    O    3 0.091    O    2 0.089    O    5 0.055
     5  O   1.979    S    1 1.067    H    6 0.595    O    2 0.093    O    3 0.079    N   23 0.078    O    4 0.055
     6  H   0.873    O    5 0.595    N   23 0.264
     7  H   0.851    O    4 0.705    O    8 0.128
     8  O   1.910    H    9 0.906    H   21 0.745    H    7 0.128    O   19 0.052
     9  H   0.913    O    8 0.906
    10  O   1.866    H   12 0.911    H   11 0.801
    11  H   0.885    O   10 0.801    O    2 0.077
    12  H   0.915    O   10 0.911
    13  O   1.867    H   15 0.884    H   14 0.869    H   18 0.056
    14  H   0.907    O   13 0.869
    15  H   0.906    O   13 0.884
    16  O   1.871    H   17 0.916    H   18 0.831    H   20 0.066
    17  H   0.920    O   16 0.916
    18  H   0.889    O   16 0.831    O   13 0.056
    19  O   1.918    H   22 0.858    H   20 0.822    H   21 0.128    O    8 0.052
    20  H   0.889    O   19 0.822    O   16 0.066
    21  H   0.875    O    8 0.745    O   19 0.128
    22  H   0.901    O   19 0.858
    23  N   3.218    H   25 0.965    H   26 0.964    H   24 0.912    H    6 0.264    O    5 0.078
    24  H   0.949    N   23 0.912
    25  H   0.967    N   23 0.965
    26  H   0.966    N   23 0.964
 MOs/occ written to file <molden.input>
 
molecular dipole:
                 x           y           z       tot (Debye)
 q only:        0.445      -0.551       1.949
   full:        0.581      -0.657       2.169       5.946
molecular quadrupole (traceless):
                xx          xy          yy          xz          yz          zz
 q only:        4.985       0.694       4.120      14.518       4.628      -9.105
  q+dip:        4.248      -0.143       5.803      16.699       5.959     -10.051
   full:        4.455      -0.027       5.933      16.886       5.830     -10.388

SCC energy    :     -50.7385776
rep           :       0.2869737
ES            :       0.2382404
AES           :      -0.0524353
AXC           :      -0.0078415
disp          :      -0.0191039
XB            :       0.0000000
fix           :       0.0000000
total E       :     -50.4512773
atomizationE  :       4.9815815     3125.99
(atE without considering molecular charge,
 total energy contains solvation terms)
H-L gap (eV)  :          8.7671
optimized geometry written to: xtbopt.xyz


------------------------------------------------------------------------
 * finished run on 2019/09/16 at 12:34:30.489     
------------------------------------------------------------------------
 total:
 * wall-time:     0 d,  0 h,  0 min,  2.883 sec
 *  cpu-time:     0 d,  0 h,  0 min,  2.821 sec
 * ratio c/w:     0.978 speedup
 SCF:
 * wall-time:     0 d,  0 h,  0 min,  0.152 sec
 *  cpu-time:     0 d,  0 h,  0 min,  0.147 sec
 * ratio c/w:     0.969 speedup
 ANC optimizer:
 * wall-time:     0 d,  0 h,  0 min,  2.704 sec
 *  cpu-time:     0 d,  0 h,  0 min,  2.650 sec
 * ratio c/w:     0.980 speedup

