      -----------------------------------------------------------      
     |                   =====================                   |     
     |                           x T B                           |     
     |                   =====================                   |     
     |                         S. Grimme                         |     
     |          Mulliken Center for Theoretical Chemistry        |     
     |                    University of Bonn                     |     
     |                 Version 6.0.1 (SAW181210)                 |     
      -----------------------------------------------------------      

   This program is distributed in the hope that it will be useful,
   but WITHOUT ANY WARRANTY; without even the implied warranty of
   MERCHANTABILITY or FITNESS FOR A PARTICULAR PURPOSE.
   
   FOR NON-COMMERCIAL, ACADEMIA USE ONLY.
   
   Cite this work as:
   S. Grimme, C. Bannwarth, P. Shushkov, J. Comput. Theory Chem., 2017,
   13, 1989-2009.
   C. Bannwarth, S. Ehlert and S. Grimme., ChemRxiv, 2018, preprint.
   http://doi.org/10.26434/chemrxiv.7246238.v1
   
   for sTDA-xTB:
   S. Grimme and C. Bannwarth, J. Chem. Phys., 2016, 145, 054103.
   
   in the mass-spec context:
   V. Asgeirsson, C. Bauer and S. Grimme, Chem. Sci., 2017, 8, 4879.
   
   if GBSA is used:
   P. Shushkov, F. März and S. Grimme, unpublished.
   
   for ANC optimizer:
   S. Grimme, unpublished.
   Rational Function algorithm used in ANCopt:
   F. Eckert, P. Pulay, H.-J. Werner, J. Comput. Chem., 1997, 18, 1473.
   
   with help from (in alphabetical order)
   C. Bannwarth, F. Bohle, G. Brandenburg, E. Caldeweyher, M. Checinski,
   S. Dohm, S. Ehlert, S. Ehrlich, F. März, H. Neugebauer, J. Pisarek,
   P. Pracht, P. Shushkov, and S. Spicher.
   
 * started run on 2019/09/16 at 12:58:11.977     
========================================================================
 # omp threads = 1
========================================================================
number of atoms            : 26
number of electrons        : 80
charge                     : 0
spin                       : .0
first test random number   : .8978

########################################################################
# WARNING! Please study the warnings concerning your input carefully
#  - XTBPATH is not set, using XTBHOME instead
#  - the use of '-opt' is discouraged, please use '--opt' next time
#  - the use of '-chrg' is discouraged, please use '--chrg' next time
#  - the use of '-uhf' is discouraged, please use '--uhf' next time
########################################################################

           ------------------------------------------------- 
          |                 G F N 2 - x T B                 |
          | Geometry, Frequencies, Noncovalent interactions |
          |            JCTC 2018 parametrisation            |
           ------------------------------------------------- 
      method parameters     
 k(s)        :  1.8500
 k(p)        :  2.2300
 k(d)        :  2.2300
 k(f)        :  2.0000
 kEN (H0ij)  : -2.0000
 D4 a1       :  0.5200
 D4 a2       :  5.0000
 D4 s6       :  1.0000
 D4 s8       :  2.7000
 D4 s9       :  5.0000
 alphaj      :  2.0000


            Z     q(EN)     CN     RAES       Cart. coordinates
     1  S   6.0    0.61    4.49    4.55    -3.54575     3.27550    -0.61082
     2  O   6.0   -0.27    1.12    1.80    -4.95465     5.28568     0.76842
     3  O   6.0   -0.31    1.22    1.80    -4.43947     0.74659     0.24595
     4  O   6.0   -0.27    2.11    1.84    -0.82963     3.52355    -0.08767
     5  O   6.0   -0.25    2.10    1.84    -3.99078     3.53906    -3.33937
     6  H   1.0    0.16    1.27    1.48    -2.41076     3.81592    -4.18669
     7  H   1.0    0.16    1.27    1.48    -0.53803     3.35150     1.69460
     8  O   6.0   -0.43    1.72    1.81     2.41123    -1.84579     1.91121
     9  H   1.0    0.17    0.95    1.42     3.96624    -2.43295     2.76029
    10  O   6.0   -0.30    2.03    1.83     3.50512     0.16448    -2.19688
    11  H   1.0    0.18    1.12    1.45     2.92871    -0.56010    -0.62928
    12  H   1.0    0.14    0.97    1.43     5.30434     0.36350    -2.00246
    13  O   6.0   -0.28    2.01    1.83     0.64403     2.92834    -5.34147
    14  H   1.0    0.17    1.04    1.43     1.66524     1.92936    -4.21285
    15  H   1.0    0.15    0.97    1.43     1.55872     2.96282    -6.91525
    16  O   6.0   -0.29    2.03    1.83     0.72097     1.74697     4.35866
    17  H   1.0    0.14    0.97    1.43     1.71695     1.88021     5.87685
    18  H   1.0    0.18    1.14    1.45     1.47227     0.38839     3.40766
    19  O   6.0   -0.28    1.97    1.82     1.38462    -5.46652    -0.93615
    20  H   1.0    0.15    0.97    1.43     2.23233    -5.15343    -2.51665
    21  H   1.0    0.17    1.13    1.45     1.92231    -4.12612     0.17237
    22  N   5.0   -0.14    3.96    2.75    -2.14480    -3.26339     2.35591
    23  H   1.0    0.12    1.07    1.44    -3.31008    -1.87933     1.64112
    24  H   1.0    0.09    0.99    1.43    -2.26190    -4.85092     1.23766
    25  H   1.0    0.12    1.15    1.45    -0.30944    -2.61883     2.37675
    26  H   1.0    0.08    0.99    1.43    -2.69779    -3.70450     4.16811

  Z AO/shell   Hii/eV     exponent
  1     Wed Apr 25 08:07:45 CEST 2018   EN: 2.200 GM2: 0.406  GM3: 0.0800  RAES: 1.40
     1s    -10.707211    1.230000
  7     Wed Apr 25 08:07:45 CEST 2018   EN: 3.040 GM2: 0.461  GM3:-0.0640  RAES: 1.90
     2s    -16.686243    2.339881
     2p    -12.523956    2.014332
  8     Wed Apr 25 08:07:45 CEST 2018   EN: 3.440 GM2: 0.452  GM3:-0.0517  RAES: 1.80
     2s    -20.229985    2.439742
     2p    -15.503117    2.137023
 16     Tue Apr 24 11:44:34 CEST 2018   EN: 2.580 GM2: 0.340  GM3:-0.0502  RAES: 3.10
     3s    -20.029654    1.981333
     3p    -11.377694    2.025643
     3d     -0.420282    1.702555
 no old-style atom pair restraining (fixing) potential

molecular fragmentation (1/2 indicates fragments):
11111112222222222222222222
# atoms in fragment 1/2:     7    19
 fragment masses (1/2) :       98.07      107.11
CMA distance (Bohr)    :   6.333
constraining FC (au)   :  0.0500
           ------------------------------------------------- 
          |        Self-Consistent Charge Iterations        |
           ------------------------------------------------- 

 Ncao       : 65
 Nao        : 64
 Nshell     : 38
 Nel        : 80
 T(el)      :   300.0
 intcut     :    25.0
 scfconv/Eh :  0.100E-05
   qconv/e  :  0.100E-03
 intneglect :  0.100E-07
 broydamp   :      0.250
 iter      E             dE          RMSdq      gap      omega  full diag
   1    -50.5753905 -0.505754E+02  0.710E+00   10.55       0.0  T
   2    -50.6333587 -0.579681E-01  0.513E+00    9.85       1.0  T
   3    -50.6749304 -0.415717E-01  0.145E+00    8.01       1.0  T
   4    -50.6809390 -0.600863E-02  0.600E-01    8.06       1.0  T
   5    -50.6815163 -0.577339E-03  0.375E-01    7.99       1.0  T
   6    -50.6821913 -0.675002E-03  0.160E-01    8.03       1.0  T
   7    -50.6823543 -0.162906E-03  0.571E-02    8.04       1.0  T
   8    -50.6823701 -0.158809E-04  0.361E-02    8.04       1.0  T
   9    -50.6823769 -0.680260E-05  0.161E-02    8.04       1.2  T
  10    -50.6823787 -0.177622E-05  0.278E-03    8.05       7.0  T
  11    -50.6823787 -0.284622E-07  0.126E-03    8.05      15.5  T
  12    -50.6823787 -0.691180E-08  0.417E-04    8.05      47.0  T
  13    -50.6823787 -0.749452E-09  0.154E-04    8.05     127.0  T
speedup  1.03
cpu  time for SCC    0.01 s
wall time for SCC    0.01 s

   *** convergence criteria satisfied after 13 iterations ***

          eigenvalues
 #    :          28         29         30         31         32         33         34         35
 occ. :        2.000      2.000      2.000      2.000      2.000      2.000      2.000      2.000
 eps  :       -13.062    -12.957    -12.515    -12.103    -11.988    -11.980    -11.793    -11.527
 #    :          36         37         38         39         40         41         42         43
 occ. :        2.000      2.000      2.000      2.000      2.000      0.000      0.000      0.000
 eps  :       -11.415    -11.150    -11.138    -10.596    -10.337     -2.291     -1.017     -0.810
 #    :          44         45         46         47         48         49         50         51
 occ. :        0.000      0.000      0.000      0.000      0.000      0.000      0.000      0.000
 eps  :         0.016      1.024      1.253      2.364      2.946      3.417      4.191      4.797


   #   Z            q   n(s)   n(p)   n(d)      C6AA      α(0)
   1  16 S      1.662  1.576  1.805  0.957    89.633    15.934
   2   8 O     -0.696  1.777  4.919  0.000    28.610     7.171
   3   8 O     -0.724  1.757  4.967  0.000    29.380     7.267
   4   8 O     -0.551  1.710  4.841  0.000    24.015     6.616
   5   8 O     -0.537  1.712  4.824  0.000    23.696     6.572
   6   1 H      0.410  0.590  0.000  0.000     0.460     1.061
   7   1 H      0.418  0.582  0.000  0.000     0.445     1.044
   8   8 O     -0.854  1.844  5.011  0.000    33.288     7.735
   9   1 H      0.218  0.782  0.000  0.000     1.033     1.597
  10   8 O     -0.651  1.753  4.898  0.000    26.443     6.940
  11   1 H      0.339  0.661  0.000  0.000     0.614     1.230
  12   1 H      0.267  0.733  0.000  0.000     0.827     1.429
  13   8 O     -0.630  1.744  4.886  0.000    25.923     6.872
  14   1 H      0.340  0.660  0.000  0.000     0.612     1.229
  15   1 H      0.286  0.714  0.000  0.000     0.764     1.373
  16   8 O     -0.669  1.761  4.908  0.000    26.892     6.999
  17   1 H      0.277  0.723  0.000  0.000     0.794     1.400
  18   1 H      0.335  0.665  0.000  0.000     0.622     1.237
  19   8 O     -0.664  1.758  4.906  0.000    26.779     6.984
  20   1 H      0.267  0.733  0.000  0.000     0.830     1.431
  21   1 H      0.323  0.677  0.000  0.000     0.654     1.270
  22   7 N     -0.300  1.256  4.044  0.000    27.704     7.817
  23   1 H      0.302  0.698  0.000  0.000     0.708     1.318
  24   1 H      0.270  0.730  0.000  0.000     0.808     1.408
  25   1 H      0.327  0.673  0.000  0.000     0.637     1.249
  26   1 H      0.236  0.764  0.000  0.000     0.940     1.519

 Mol. C6AA /au·bohr⁶  :       5462.667019
 Mol. C8AA /au·bohr⁸  :     118200.303133
 Mol. α(0) /au        :        106.703053

 
 Wiberg/Mayer (AO) data. WBOs > 0.1 written file <wbo>
 largest (>0.05) Wiberg bond orders for each atom
           total WBO             WBO to atom ...
     1  S   4.864    O    2 1.394    O    3 1.314    O    5 1.071    O    4 1.048
     2  O   1.712    S    1 1.394    O    3 0.131    O    4 0.093    O    5 0.082
     3  O   1.706    S    1 1.314    O    2 0.131    O    4 0.088    O    5 0.075    H   23 0.066
     4  O   2.052    S    1 1.048    H    7 0.749    O    2 0.093    O    3 0.088
     5  O   2.067    S    1 1.071    H    6 0.760    O    2 0.082    O    3 0.075
     6  H   0.832    O    5 0.760
     7  H   0.825    O    4 0.749    O   16 0.052
     8  O   1.620    H    9 0.940    H   25 0.136    H   18 0.123    H   11 0.110    H   21 0.103    N   22 0.059    O   16 0.051
     9  H   0.953    O    8 0.940
    10  O   1.815    H   12 0.923    H   11 0.769    H   14 0.050
    11  H   0.885    O   10 0.769    O    8 0.110
    12  H   0.928    O   10 0.923
    13  O   1.831    H   15 0.911    H   14 0.829
    14  H   0.884    O   13 0.829    O   10 0.050
    15  H   0.918    O   13 0.911
    16  O   1.804    H   17 0.914    H   18 0.760    H    7 0.052    O    8 0.051
    17  H   0.923    O   16 0.914
    18  H   0.888    O   16 0.760    O    8 0.123
    19  O   1.778    H   20 0.925    H   21 0.785
    20  H   0.929    O   19 0.925
    21  H   0.896    O   19 0.785    O    8 0.103
    22  N   3.548    H   26 0.940    H   24 0.915    H   23 0.835    H   25 0.744    O    8 0.059
    23  H   0.909    N   22 0.835    O    3 0.066
    24  H   0.927    N   22 0.915
    25  H   0.893    N   22 0.744    O    8 0.136
    26  H   0.944    N   22 0.940
 MOs/occ written to file <molden.input>
 
molecular dipole:
                 x           y           z       tot (Debye)
 q only:        0.776      -1.373       0.458
   full:        2.018      -1.495       0.401       6.464
molecular quadrupole (traceless):
                xx          xy          yy          xz          yz          zz
 q only:       -7.965      20.295      -7.187      -2.457     -13.018      15.152
  q+dip:       -7.744      21.635     -10.909      -1.046     -14.681      18.654
   full:       -7.576      21.684     -11.941      -0.946     -14.738      19.517

SCC energy    :     -50.6823787
rep           :       0.3084094
ES            :       0.3029780
AES           :      -0.0585166
AXC           :      -0.0081747
disp          :      -0.0175651
XB            :       0.0000000
fix           :       0.0000000
total E       :     -50.3735614
atomizationE  :       4.9038656     3077.22
(atE without considering molecular charge,
 total energy contains solvation terms)
H-L gap (eV)  :          8.0466
           ------------------------------------------------- 
          |                 ===============                 |
          |                   A N C O P T                   |
          |                 ===============                 |
          |          Approximate Normal Coordinate          |
          |           Rational Function Optimizer           |
           ------------------------------------------------- 
dumping coords to <xtbopt.coord> and <xtbopt.log>
 optlevel               2
 Maxcycle             520
 Maxmicro              25
 Econv         1.000000000000000E-007
 Gconv         2.000000000000000E-004
 Maxdispl       1.00000000000000     
 Hlow          5.000000000000000E-003
 S6             20.0000000000000     
 Nvar               72

generating ANC from model Hessian ...
 Shifting diagonal of input Hessian by   5.928972122509655E-003
 Lowest  eigenvalues of input Hessian
    0.005000    0.005905   -0.000000   -0.000000    0.000000    0.000000
    0.000000    0.000000    0.005997    0.006279    0.006451    0.006843
    0.007099    0.007236    0.007416    0.007765    0.007860    0.008278
 Highest eigenvalues
    1.441542    1.451010    1.553329    3.212906    3.410299    3.463227
 
cpu  time for ANC gen    0.01 s
wall time for ANC gen    0.02 s
................................................................................
.............................. CYCLE    1 ......................................
................................................................................
   1    -50.6823787 -0.506824E+02  0.746E-05    8.05       0.0  T
   2    -50.6823787 -0.147580E-10  0.548E-05    8.05     358.0  T
   3    -50.6823787 -0.104592E-10  0.304E-05    8.05     645.5  T
speedup  1.00
cpu  time for SCC    0.00 s
wall time for SCC    0.00 s
speedup  1.04
cpu  time for grad    0.01 s
wall time for grad    0.01 s
 E :    -50.37356141  G :  0.212999    pred/act E change:  0.000D+00  0.361D-07
Maxdispl :   0.1278   ||displ|| :   0.3386   Lambda : -0.268D-01
Largest |displ|/coords:  0.1278 (  24)  0.1072 (  30)  0.1043 (  28)
................................................................................
.............................. CYCLE    2 ......................................
................................................................................
   1    -50.6856425 -0.506856E+02  0.285E-01    8.08       0.0  T
   2    -50.6859919 -0.349346E-03  0.216E-01    8.06       1.0  T
   3    -50.6860965 -0.104616E-03  0.141E-01    8.05       1.0  T
   4    -50.6861088 -0.122737E-04  0.276E-02    8.06       1.0  T
   5    -50.6861102 -0.146167E-05  0.772E-03    8.07       2.5  T
   6    -50.6861103 -0.765912E-07  0.280E-03    8.07       7.0  T
   7    -50.6861103 -0.190942E-07  0.141E-03    8.07      13.9  T
speedup  0.92
cpu  time for SCC    0.01 s
wall time for SCC    0.01 s
speedup  0.99
cpu  time for grad    0.01 s
wall time for grad    0.01 s
 E :    -50.39399544  G :  0.130686    pred/act E change:  0.000D+00 -0.204D-01
Maxdispl :   0.1688   ||displ|| :   0.3582   Lambda : -0.121D-01
Largest |displ|/coords:  0.1688 (  24)  0.1269 (  18)  0.1043 (  28)
................................................................................
.............................. CYCLE    3 ......................................
................................................................................
   1    -50.6887891 -0.506888E+02  0.280E-01    8.07       0.0  T
   2    -50.6890315 -0.242474E-03  0.218E-01    8.08       1.0  T
   3    -50.6890982 -0.667110E-04  0.127E-01    8.11       1.0  T
   4    -50.6891044 -0.612366E-05  0.238E-02    8.13       1.0  T
   5    -50.6891053 -0.940337E-06  0.584E-03    8.13       3.4  T
   6    -50.6891054 -0.447399E-07  0.204E-03    8.13       9.6  T
speedup  0.89
cpu  time for SCC    0.01 s
wall time for SCC    0.01 s
speedup  0.98
cpu  time for grad    0.01 s
wall time for grad    0.01 s
 E :    -50.40384887  G :  0.077360    pred/act E change: -0.150D-01 -0.985D-02
Maxdispl :   0.1736   ||displ|| :   0.3515   Lambda : -0.673D-02
Largest |displ|/coords:  0.1736 (  24)  0.1325 (  18)  0.0980 (  28)
................................................................................
.............................. CYCLE    4 ......................................
................................................................................
   1    -50.6897483 -0.506897E+02  0.275E-01    8.10       0.0  T
   2    -50.6899258 -0.177506E-03  0.212E-01    8.12       1.0  T
   3    -50.6899740 -0.482117E-04  0.105E-01    8.17       1.0  T
   4    -50.6899815 -0.745341E-05  0.219E-02    8.19       1.0  T
   5    -50.6899822 -0.729063E-06  0.500E-03    8.18       3.9  T
   6    -50.6899822 -0.343750E-07  0.188E-03    8.18      10.4  T
speedup  1.09
cpu  time for SCC    0.01 s
wall time for SCC    0.01 s
speedup  1.06
cpu  time for grad    0.01 s
wall time for grad    0.01 s
 E :    -50.40919758  G :  0.043472    pred/act E change: -0.684D-02 -0.535D-02
Maxdispl :   0.2233   ||displ|| :   0.4597   Lambda : -0.676D-02
Largest |displ|/coords:  0.2233 (  24)  0.1588 (  28)  0.1296 (   8)
................................................................................
.............................. CYCLE    5 ......................................
................................................................................
   1    -50.6918887 -0.506919E+02  0.375E-01    8.00       0.0  T
   2    -50.6923088 -0.420109E-03  0.290E-01    8.06       1.0  T
   3    -50.6924274 -0.118571E-03  0.150E-01    8.15       1.0  T
   4    -50.6924420 -0.145774E-04  0.342E-02    8.18       1.0  T
   5    -50.6924434 -0.140347E-05  0.763E-03    8.18       2.6  T
   6    -50.6924435 -0.874267E-07  0.271E-03    8.18       7.2  T
   7    -50.6924435 -0.187206E-07  0.135E-03    8.18      14.5  T
speedup  1.09
cpu  time for SCC    0.01 s
wall time for SCC    0.01 s
speedup  0.99
cpu  time for grad    0.01 s
wall time for grad    0.01 s
 E :    -50.41245663  G :  0.036437    pred/act E change: -0.378D-02 -0.326D-02
Maxdispl :   0.1806   ||displ|| :   0.5181   Lambda : -0.524D-02
Largest |displ|/coords:  0.1806 (   6)  0.1710 (  13)  0.1706 (   7)
................................................................................
.............................. CYCLE    6 ......................................
................................................................................
   1    -50.6861868 -0.506862E+02  0.620E-01    7.99       0.0  T
   2    -50.6864620 -0.275221E-03  0.465E-01    8.03       1.0  T
   3    -50.6865810 -0.119001E-03  0.104E-01    8.13       1.0  T
   4    -50.6866216 -0.405696E-04  0.329E-02    8.13       1.0  T
   5    -50.6866239 -0.233446E-05  0.851E-03    8.12       2.3  T
   6    -50.6866240 -0.890292E-07  0.456E-03    8.12       4.3  T
   7    -50.6866241 -0.400118E-07  0.174E-03    8.12      11.3  T
speedup  0.95
cpu  time for SCC    0.01 s
wall time for SCC    0.01 s
speedup  0.92
cpu  time for grad    0.01 s
wall time for grad    0.01 s
 E :    -50.41128004  G :  0.075930    pred/act E change: -0.409D-02  0.118D-02
Maxdispl :   0.1920   ||displ|| :   0.4943   Lambda : -0.122D-01
Largest |displ|/coords:  0.1920 (   8)  0.1723 (   6)  0.1471 (  13)
................................................................................
.............................. CYCLE    7 ......................................
................................................................................
   1    -50.6919685 -0.506920E+02  0.713E-01    8.25       0.0  T
   2    -50.6923907 -0.422173E-03  0.538E-01    8.22       1.0  T
   3    -50.6925946 -0.203954E-03  0.133E-01    8.14       1.0  T
   4    -50.6926505 -0.558576E-04  0.421E-02    8.14       1.0  T
   5    -50.6926546 -0.415389E-05  0.109E-02    8.14       1.8  T
   6    -50.6926547 -0.102452E-06  0.572E-03    8.15       3.4  T
   7    -50.6926548 -0.677958E-07  0.225E-03    8.14       8.7  T
speedup  0.94
cpu  time for SCC    0.01 s
wall time for SCC    0.01 s
speedup  0.99
cpu  time for grad    0.01 s
wall time for grad    0.01 s
 E :    -50.41236911  G :  0.056702    pred/act E change: -0.332D-02 -0.109D-02
Maxdispl :   0.1387   ||displ|| :   0.3500   Lambda : -0.586D-02
Largest |displ|/coords:  0.1387 (   5)  0.1025 (  17)  0.0900 (  11)
................................................................................
.............................. CYCLE    8 ......................................
................................................................................
   1    -50.7016526 -0.507017E+02  0.480E-01    8.11       0.0  T
   2    -50.7018047 -0.152116E-03  0.359E-01    8.13       1.0  T
   3    -50.7018862 -0.814936E-04  0.750E-02    8.19       1.0  T
   4    -50.7019073 -0.210717E-04  0.240E-02    8.19       1.0  T
   5    -50.7019086 -0.130406E-05  0.745E-03    8.18       2.6  T
   6    -50.7019087 -0.588631E-07  0.402E-03    8.19       4.9  T
   7    -50.7019087 -0.321924E-07  0.138E-03    8.19      14.2  T
speedup  1.13
cpu  time for SCC    0.01 s
wall time for SCC    0.01 s
speedup  1.06
cpu  time for grad    0.01 s
wall time for grad    0.01 s
 E :    -50.41327005  G :  0.049663    pred/act E change: -0.760D-02 -0.901D-03
Maxdispl :   0.2055   ||displ|| :   0.3561   Lambda : -0.443D-02
Largest |displ|/coords:  0.2055 (  18)  0.1174 (  17)  0.1097 (   6)
................................................................................
.............................. CYCLE    9 ......................................
................................................................................
   1    -50.6824073 -0.506824E+02  0.509E-01    8.11       0.0  T
   2    -50.6825582 -0.150851E-03  0.380E-01    8.12       1.0  T
   3    -50.6826453 -0.871038E-04  0.711E-02    8.16       1.0  T
   4    -50.6826661 -0.207739E-04  0.131E-02    8.16       1.5  T
   5    -50.6826664 -0.306024E-06  0.684E-03    8.16       2.9  T
   6    -50.6826665 -0.817688E-07  0.348E-03    8.16       5.6  T
   7    -50.6826665 -0.260373E-07  0.837E-04    8.16      23.4  T
speedup  1.08
cpu  time for SCC    0.01 s
wall time for SCC    0.01 s
speedup  1.05
cpu  time for grad    0.01 s
wall time for grad    0.01 s
 E :    -50.41358433  G :  0.060684    pred/act E change: -0.329D-02 -0.314D-03
Maxdispl :   0.1852   ||displ|| :   0.4664   Lambda : -0.974D-02
Largest |displ|/coords:  0.1852 (  17)  0.1515 (  11)  0.1431 (   8)
................................................................................
.............................. CYCLE   10 ......................................
................................................................................
   1    -50.7010883 -0.507011E+02  0.684E-01    8.24       0.0  T
   2    -50.7013467 -0.258435E-03  0.515E-01    8.24       1.0  T
   3    -50.7015194 -0.172709E-03  0.938E-02    8.22       1.0  T
   4    -50.7015543 -0.348481E-04  0.171E-02    8.22       1.1  T
   5    -50.7015549 -0.633723E-06  0.970E-03    8.22       2.0  T
   6    -50.7015550 -0.718092E-07  0.453E-03    8.22       4.3  T
   7    -50.7015550 -0.511819E-07  0.105E-03    8.22      18.8  T
speedup  0.94
cpu  time for SCC    0.01 s
wall time for SCC    0.01 s
speedup  0.99
cpu  time for grad    0.01 s
wall time for grad    0.01 s
 E :    -50.41331444  G :  0.048429    pred/act E change: -0.250D-02  0.270D-03
Maxdispl :   0.0840   ||displ|| :   0.1983   Lambda : -0.298D-02
Largest |displ|/coords:  0.0840 (  17)  0.0825 (   7)  0.0568 (   4)
................................................................................
.............................. CYCLE   11 ......................................
................................................................................
   1    -50.6982689 -0.506983E+02  0.263E-01    8.24       0.0  T
   2    -50.6982963 -0.273880E-04  0.199E-01    8.24       1.0  T
   3    -50.6983140 -0.177380E-04  0.284E-02    8.25       1.0  T
   4    -50.6983181 -0.408777E-05  0.981E-03    8.24       2.0  T
   5    -50.6983183 -0.196191E-06  0.253E-03    8.24       7.8  T
   6    -50.6983183 -0.401202E-08  0.151E-03    8.25      12.9  T
speedup  0.91
cpu  time for SCC    0.01 s
wall time for SCC    0.01 s
speedup  0.97
cpu  time for grad    0.01 s
wall time for grad    0.01 s
 E :    -50.41514624  G :  0.025361    pred/act E change: -0.593D-02 -0.183D-02
Maxdispl :   0.1500   ||displ|| :   0.3975   Lambda : -0.298D-02
Largest |displ|/coords:  0.1500 (   1)  0.1396 (  17)  0.1334 (  18)
................................................................................
.............................. CYCLE   12 ......................................
................................................................................
   1    -50.6825682 -0.506826E+02  0.496E-01    8.14       0.0  T
   2    -50.6827048 -0.136615E-03  0.372E-01    8.18       1.0  T
   3    -50.6827769 -0.720948E-04  0.688E-02    8.27       1.0  T
   4    -50.6827968 -0.198956E-04  0.176E-02    8.26       1.1  T
   5    -50.6827978 -0.968741E-06  0.581E-03    8.25       3.4  T
   6    -50.6827978 -0.476805E-07  0.351E-03    8.25       5.6  T
speedup  1.05
cpu  time for SCC    0.01 s
wall time for SCC    0.01 s
speedup  0.96
cpu  time for grad    0.01 s
wall time for grad    0.01 s
 E :    -50.41488661  G :  0.055368    pred/act E change: -0.155D-02  0.260D-03
Maxdispl :   0.1539   ||displ|| :   0.4108   Lambda : -0.703D-02
Largest |displ|/coords:  0.1539 (  10)  0.1506 (   1)  0.1378 (  11)
................................................................................
.............................. CYCLE   13 ......................................
................................................................................
   1    -50.7048345 -0.507048E+02  0.581E-01    8.38       0.0  T
   2    -50.7049837 -0.149185E-03  0.438E-01    8.37       1.0  T
   3    -50.7050889 -0.105241E-03  0.692E-02    8.36       1.0  T
   4    -50.7051090 -0.201262E-04  0.134E-02    8.36       1.5  T
   5    -50.7051094 -0.322456E-06  0.752E-03    8.36       2.6  T
   6    -50.7051094 -0.526402E-07  0.324E-03    8.36       6.1  T
   7    -50.7051094 -0.220301E-07  0.819E-04    8.36      24.0  T
speedup  0.94
cpu  time for SCC    0.01 s
wall time for SCC    0.01 s
speedup  0.99
cpu  time for grad    0.01 s
wall time for grad    0.01 s
 E :    -50.41502349  G :  0.043239    pred/act E change: -0.173D-02 -0.137D-03
Maxdispl :   0.0637   ||displ|| :   0.1704   Lambda : -0.221D-02
Largest |displ|/coords:  0.0637 (   4)  0.0526 (   6)  0.0497 (   1)
................................................................................
.............................. CYCLE   14 ......................................
................................................................................
   1    -50.6983341 -0.506983E+02  0.222E-01    8.33       0.0  T
   2    -50.6983551 -0.209907E-04  0.167E-01    8.33       1.0  T
   3    -50.6983701 -0.149448E-04  0.260E-02    8.36       1.0  T
   4    -50.6983729 -0.287523E-05  0.583E-03    8.35       3.4  T
   5    -50.6983730 -0.777221E-07  0.266E-03    8.35       7.4  T
speedup  0.87
cpu  time for SCC    0.00 s
wall time for SCC    0.00 s
speedup  0.98
cpu  time for grad    0.01 s
wall time for grad    0.01 s
 E :    -50.41652350  G :  0.023438    pred/act E change: -0.411D-02 -0.150D-02
Maxdispl :   0.0711   ||displ|| :   0.2009   Lambda : -0.117D-02
Largest |displ|/coords:  0.0711 (   1)  0.0639 (   6)  0.0593 (  15)
................................................................................
.............................. CYCLE   15 ......................................
................................................................................
   1    -50.6936088 -0.506936E+02  0.234E-01    8.35       0.0  T
   2    -50.6936305 -0.216263E-04  0.177E-01    8.37       1.0  T
   3    -50.6936432 -0.127741E-04  0.252E-02    8.42       1.0  T
   4    -50.6936467 -0.350249E-05  0.864E-03    8.41       2.3  T
   5    -50.6936469 -0.148454E-06  0.234E-03    8.41       8.4  T
   6    -50.6936469 -0.435804E-08  0.136E-03    8.40      14.5  T
speedup  0.86
cpu  time for SCC    0.00 s
wall time for SCC    0.01 s
speedup  0.96
cpu  time for grad    0.01 s
wall time for grad    0.01 s
 E :    -50.41699175  G :  0.025818    pred/act E change: -0.114D-02 -0.468D-03
Maxdispl :   0.0970   ||displ|| :   0.2581   Lambda : -0.126D-02
Largest |displ|/coords:  0.0970 (   4)  0.0924 (   3)  0.0894 (  18)
................................................................................
.............................. CYCLE   16 ......................................
................................................................................
   1    -50.6931786 -0.506932E+02  0.279E-01    8.36       0.0  T
   2    -50.6932634 -0.847755E-04  0.206E-01    8.40       1.0  T
   3    -50.6933053 -0.419719E-04  0.522E-02    8.46       1.0  T
   4    -50.6933154 -0.100174E-04  0.138E-02    8.46       1.4  T
   5    -50.6933159 -0.535368E-06  0.472E-03    8.46       4.2  T
   6    -50.6933159 -0.241687E-07  0.267E-03    8.46       7.4  T
speedup  0.93
cpu  time for SCC    0.01 s
wall time for SCC    0.01 s
speedup  0.98
cpu  time for grad    0.01 s
wall time for grad    0.01 s
 E :    -50.41633668  G :  0.053585    pred/act E change: -0.609D-03  0.655D-03
Maxdispl :   0.1111   ||displ|| :   0.3332   Lambda : -0.640D-02
Largest |displ|/coords:  0.1111 (  11)  0.1010 (   3)  0.1007 (  19)
................................................................................
.............................. CYCLE   17 ......................................
................................................................................
   1    -50.6955349 -0.506955E+02  0.459E-01    8.52       0.0  T
   2    -50.6957154 -0.180538E-03  0.341E-01    8.50       1.0  T
   3    -50.6958291 -0.113647E-03  0.759E-02    8.45       1.0  T
   4    -50.6958505 -0.214443E-04  0.194E-02    8.46       1.0  T
   5    -50.6958512 -0.702498E-06  0.811E-03    8.46       2.4  T
   6    -50.6958513 -0.546030E-07  0.417E-03    8.46       4.7  T
   7    -50.6958513 -0.346535E-07  0.962E-04    8.46      20.4  T
speedup  1.11
cpu  time for SCC    0.01 s
wall time for SCC    0.01 s
speedup  0.99
cpu  time for grad    0.01 s
wall time for grad    0.01 s
 E :    -50.41537073  G :  0.063585    pred/act E change: -0.674D-03  0.966D-03
Maxdispl :   0.1333   ||displ|| :   0.3409   Lambda : -0.841D-02
Largest |displ|/coords:  0.1333 (   5)  0.1129 (  11)  0.1097 (  19)
................................................................................
.............................. CYCLE   18 ......................................
................................................................................
   1    -50.7012527 -0.507013E+02  0.440E-01    8.47       0.0  T
   2    -50.7014189 -0.166165E-03  0.327E-01    8.50       1.0  T
   3    -50.7015258 -0.106982E-03  0.719E-02    8.53       1.0  T
   4    -50.7015453 -0.194710E-04  0.149E-02    8.53       1.3  T
   5    -50.7015457 -0.384937E-06  0.802E-03    8.53       2.4  T
   6    -50.7015458 -0.523521E-07  0.286E-03    8.53       6.9  T
   7    -50.7015458 -0.302791E-07  0.834E-04    8.53      23.5  T
speedup  1.08
cpu  time for SCC    0.01 s
wall time for SCC    0.01 s
speedup  0.99
cpu  time for grad    0.01 s
wall time for grad    0.01 s
 E :    -50.41668197  G :  0.049147    pred/act E change: -0.355D-02 -0.131D-02
Maxdispl :   0.0766   ||displ|| :   0.1684   Lambda : -0.245D-02
Largest |displ|/coords:  0.0766 (   4)  0.0683 (   7)  0.0475 (   2)
................................................................................
.............................. CYCLE   19 ......................................
................................................................................
   1    -50.6983157 -0.506983E+02  0.180E-01    8.51       0.0  T
   2    -50.6983415 -0.257615E-04  0.134E-01    8.52       1.0  T
   3    -50.6983571 -0.155842E-04  0.286E-02    8.54       1.0  T
   4    -50.6983603 -0.329387E-05  0.734E-03    8.54       2.7  T
   5    -50.6983605 -0.136971E-06  0.319E-03    8.54       6.1  T
   6    -50.6983605 -0.117058E-07  0.168E-03    8.54      11.7  T
speedup  0.91
cpu  time for SCC    0.00 s
wall time for SCC    0.01 s
speedup  0.98
cpu  time for grad    0.01 s
wall time for grad    0.01 s
 E :    -50.41811865  G :  0.019126    pred/act E change: -0.469D-02 -0.144D-02
Maxdispl :   0.0984   ||displ|| :   0.1530   Lambda : -0.664D-03
Largest |displ|/coords:  0.0984 (   4)  0.0407 (   7)  0.0389 (   2)
................................................................................
.............................. CYCLE   20 ......................................
................................................................................
   1    -50.6988974 -0.506989E+02  0.137E-01    8.55       0.0  T
   2    -50.6989092 -0.117858E-04  0.102E-01    8.55       1.0  T
   3    -50.6989157 -0.648725E-05  0.198E-02    8.55       1.0  T
   4    -50.6989175 -0.179939E-05  0.576E-03    8.56       3.4  T
   5    -50.6989175 -0.739380E-07  0.213E-03    8.56       9.2  T
   6    -50.6989175 -0.540984E-08  0.108E-03    8.56      18.1  T
speedup  0.89
cpu  time for SCC    0.00 s
wall time for SCC    0.01 s
speedup  0.98
cpu  time for grad    0.01 s
wall time for grad    0.01 s
 E :    -50.41839770  G :  0.023323    pred/act E change: -0.126D-02 -0.279D-03
Maxdispl :   0.1010   ||displ|| :   0.2019   Lambda : -0.675D-03
Largest |displ|/coords:  0.1010 (   4)  0.0746 (   2)  0.0610 (  28)
................................................................................
.............................. CYCLE   21 ......................................
................................................................................
   1    -50.6985010 -0.506985E+02  0.138E-01    8.55       0.0  T
   2    -50.6985332 -0.321721E-04  0.101E-01    8.56       1.0  T
   3    -50.6985450 -0.117845E-04  0.300E-02    8.60       1.0  T
   4    -50.6985486 -0.364965E-05  0.685E-03    8.60       2.9  T
   5    -50.6985488 -0.145797E-06  0.232E-03    8.59       8.4  T
   6    -50.6985488 -0.679257E-08  0.125E-03    8.59      15.7  T
speedup  0.93
cpu  time for SCC    0.00 s
wall time for SCC    0.01 s
speedup  1.00
cpu  time for grad    0.01 s
wall time for grad    0.01 s
 E :    -50.41894167  G :  0.022606    pred/act E change: -0.340D-03 -0.544D-03
Maxdispl :   0.2337   ||displ|| :   0.4787   Lambda : -0.181D-02
Largest |displ|/coords:  0.2337 (   4)  0.1673 (   5)  0.1349 (  28)
................................................................................
.............................. CYCLE   22 ......................................
................................................................................
   1    -50.7037531 -0.507038E+02  0.308E-01    8.60       0.0  T
   2    -50.7039583 -0.205184E-03  0.226E-01    8.62       1.0  T
   3    -50.7040310 -0.726871E-04  0.744E-02    8.66       1.0  T
   4    -50.7040503 -0.193473E-04  0.175E-02    8.67       1.1  T
   5    -50.7040511 -0.752033E-06  0.567E-03    8.67       3.5  T
   6    -50.7040511 -0.372396E-07  0.306E-03    8.67       6.4  T
speedup  1.07
cpu  time for SCC    0.01 s
wall time for SCC    0.01 s
speedup  0.98
cpu  time for grad    0.01 s
wall time for grad    0.01 s
 E :    -50.42023466  G :  0.021910    pred/act E change: -0.351D-03 -0.129D-02
Maxdispl :   0.3297   ||displ|| :   0.6006   Lambda : -0.189D-02
Largest |displ|/coords:  0.3297 (   4)  0.1746 (   2)  0.1560 (  18)
................................................................................
.............................. CYCLE   23 ......................................
................................................................................
   1    -50.7058846 -0.507059E+02  0.399E-01    8.64       0.0  T
   2    -50.7061618 -0.277217E-03  0.294E-01    8.63       1.0  T
   3    -50.7062702 -0.108426E-03  0.890E-02    8.63       1.0  T
   4    -50.7063011 -0.308933E-04  0.202E-02    8.65       1.0  T
   5    -50.7063021 -0.102301E-05  0.787E-03    8.64       2.5  T
   6    -50.7063022 -0.672923E-07  0.406E-03    8.64       4.8  T
   7    -50.7063022 -0.227880E-07  0.122E-03    8.64      16.0  T
speedup  0.94
cpu  time for SCC    0.01 s
wall time for SCC    0.01 s
speedup  1.00
cpu  time for grad    0.01 s
wall time for grad    0.01 s
 E :    -50.42149221  G :  0.030557    pred/act E change: -0.111D-02 -0.126D-02
Maxdispl :   0.2299   ||displ|| :   0.5172   Lambda : -0.261D-02
Largest |displ|/coords:  0.2299 (   4)  0.1471 (  18)  0.1374 (   5)
................................................................................
.............................. CYCLE   24 ......................................
................................................................................
   1    -50.7172039 -0.507172E+02  0.333E-01    8.63       0.0  T
   2    -50.7173531 -0.149208E-03  0.248E-01    8.59       1.0  T
   3    -50.7174091 -0.560187E-04  0.674E-02    8.52       1.0  T
   4    -50.7174298 -0.206704E-04  0.166E-02    8.55       1.2  T
   5    -50.7174302 -0.391377E-06  0.639E-03    8.55       3.1  T
   6    -50.7174302 -0.360544E-07  0.276E-03    8.55       7.1  T
   7    -50.7174302 -0.120679E-07  0.907E-04    8.55      21.6  T
speedup  1.09
cpu  time for SCC    0.01 s
wall time for SCC    0.01 s
speedup  1.01
cpu  time for grad    0.01 s
wall time for grad    0.01 s
 E :    -50.42299834  G :  0.018745    pred/act E change: -0.128D-02 -0.151D-02
Maxdispl :   0.1673   ||displ|| :   0.3858   Lambda : -0.149D-02
Largest |displ|/coords:  0.1673 (   4)  0.1305 (   7)  0.1153 (  10)
................................................................................
.............................. CYCLE   25 ......................................
................................................................................
   1    -50.7205266 -0.507205E+02  0.238E-01    8.55       0.0  T
   2    -50.7205572 -0.305272E-04  0.179E-01    8.54       1.0  T
   3    -50.7205755 -0.183218E-04  0.305E-02    8.51       1.0  T
   4    -50.7205801 -0.460646E-05  0.976E-03    8.52       2.0  T
   5    -50.7205803 -0.169436E-06  0.359E-03    8.52       5.5  T
   6    -50.7205803 -0.132261E-07  0.177E-03    8.52      11.1  T
   7    -50.7205803 -0.492343E-08  0.480E-04    8.52      40.8  T
speedup  0.94
cpu  time for SCC    0.01 s
wall time for SCC    0.01 s
speedup  1.00
cpu  time for grad    0.01 s
wall time for grad    0.01 s
 E :    -50.42339780  G :  0.029769    pred/act E change: -0.166D-02 -0.399D-03
Maxdispl :   0.2669   ||displ|| :   0.3927   Lambda : -0.169D-02
Largest |displ|/coords:  0.2669 (   4)  0.1207 (   5)  0.0956 (  18)

generating ANC from model Hessian ...
 Shifting diagonal of input Hessian by   5.313489868204230E-003
 Lowest  eigenvalues of input Hessian
    0.005000    0.005219   -0.000000   -0.000000   -0.000000    0.000000
    0.000000    0.000000    0.005369    0.005571    0.005735    0.005842
    0.006026    0.006058    0.006138    0.006445    0.006598    0.006847
 Highest eigenvalues
    1.391334    1.411384    1.428995    2.495320    3.254408    3.784108
 
cpu  time for ANC gen    0.01 s
wall time for ANC gen    0.01 s
................................................................................
.............................. CYCLE   26 ......................................
................................................................................
   1    -50.7123137 -0.507123E+02  0.268E-01    8.47       0.0  T
   2    -50.7123950 -0.813147E-04  0.199E-01    8.46       1.0  T
   3    -50.7124404 -0.453958E-04  0.509E-02    8.43       1.0  T
   4    -50.7124493 -0.893151E-05  0.137E-02    8.44       1.4  T
   5    -50.7124498 -0.476968E-06  0.522E-03    8.44       3.8  T
   6    -50.7124498 -0.343497E-07  0.286E-03    8.44       6.9  T
   7    -50.7124498 -0.113057E-07  0.714E-04    8.44      27.5  T
   8    -50.7124498 -0.145175E-08  0.239E-04    8.44      82.1  T
speedup  0.99
cpu  time for SCC    0.01 s
wall time for SCC    0.01 s
speedup  0.98
cpu  time for grad    0.01 s
wall time for grad    0.02 s
 E :    -50.42298248  G :  0.040839    pred/act E change:  0.000D+00  0.415D-03
Maxdispl :   0.0781   ||displ|| :   0.1947   Lambda : -0.198D-02
Largest |displ|/coords:  0.0781 (   7)  0.0745 (   5)  0.0608 (   3)
................................................................................
.............................. CYCLE   27 ......................................
................................................................................
   1    -50.7190569 -0.507191E+02  0.158E-01    8.46       0.0  T
   2    -50.7190682 -0.113500E-04  0.118E-01    8.47       1.0  T
   3    -50.7190766 -0.834083E-05  0.186E-02    8.47       1.1  T
   4    -50.7190780 -0.145877E-05  0.446E-03    8.47       4.4  T
   5    -50.7190780 -0.183699E-07  0.236E-03    8.47       8.3  T
speedup  0.91
cpu  time for SCC    0.00 s
wall time for SCC    0.00 s
speedup  0.98
cpu  time for grad    0.01 s
wall time for grad    0.01 s
 E :    -50.42426986  G :  0.014999    pred/act E change:  0.000D+00 -0.129D-02
Maxdispl :   0.0923   ||displ|| :   0.1999   Lambda : -0.746D-03
Largest |displ|/coords:  0.0923 (   7)  0.0752 (   5)  0.0726 (   6)
................................................................................
.............................. CYCLE   28 ......................................
................................................................................
   1    -50.7228100 -0.507228E+02  0.185E-01    8.50       0.0  T
   2    -50.7228198 -0.989131E-05  0.140E-01    8.50       1.0  T
   3    -50.7228275 -0.765033E-05  0.168E-02    8.50       1.2  T
   4    -50.7228288 -0.131267E-05  0.436E-03    8.50       4.5  T
   5    -50.7228288 -0.302929E-07  0.188E-03    8.50      10.4  T
   6    -50.7228288 -0.193122E-08  0.943E-04    8.50      20.8  T
speedup  0.93
cpu  time for SCC    0.01 s
wall time for SCC    0.01 s
speedup  1.01
cpu  time for grad    0.01 s
wall time for grad    0.01 s
 E :    -50.42461756  G :  0.008844    pred/act E change: -0.103D-02 -0.348D-03
Maxdispl :   0.1331   ||displ|| :   0.2417   Lambda : -0.420D-03
Largest |displ|/coords:  0.1331 (   7)  0.1005 (   5)  0.0837 (   3)
................................................................................
.............................. CYCLE   29 ......................................
................................................................................
   1    -50.7224310 -0.507224E+02  0.218E-01    8.48       0.0  T
   2    -50.7224371 -0.610094E-05  0.166E-01    8.48       1.0  T
   3    -50.7224452 -0.811247E-05  0.108E-02    8.48       1.8  T
   4    -50.7224454 -0.181257E-06  0.333E-03    8.48       5.9  T
   5    -50.7224454 -0.685436E-08  0.168E-03    8.48      11.7  T
   6    -50.7224454 -0.562820E-08  0.442E-04    8.48      44.3  T
speedup  0.91
cpu  time for SCC    0.00 s
wall time for SCC    0.01 s
speedup  0.99
cpu  time for grad    0.01 s
wall time for grad    0.01 s
 E :    -50.42491856  G :  0.006978    pred/act E change: -0.388D-03 -0.301D-03
Maxdispl :   0.2333   ||displ|| :   0.4027   Lambda : -0.468D-03
Largest |displ|/coords:  0.2333 (   7)  0.1338 (   5)  0.1290 (   2)
................................................................................
.............................. CYCLE   30 ......................................
................................................................................
   1    -50.7179187 -0.507179E+02  0.294E-01    8.46       0.0  T
   2    -50.7179341 -0.153894E-04  0.222E-01    8.46       1.0  T
   3    -50.7179510 -0.169487E-04  0.201E-02    8.46       1.0  T
   4    -50.7179522 -0.119651E-05  0.772E-03    8.46       2.5  T
   5    -50.7179523 -0.546134E-07  0.294E-03    8.46       6.7  T
   6    -50.7179523 -0.107770E-07  0.147E-03    8.46      13.4  T
speedup  0.94
cpu  time for SCC    0.01 s
wall time for SCC    0.01 s
speedup  1.01
cpu  time for grad    0.01 s
wall time for grad    0.01 s
 E :    -50.42505223  G :  0.020465    pred/act E change: -0.222D-03 -0.134D-03
Maxdispl :   0.0799   ||displ|| :   0.2068   Lambda : -0.690D-03
Largest |displ|/coords:  0.0799 (   4)  0.0705 (  13)  0.0638 (   7)
................................................................................
.............................. CYCLE   31 ......................................
................................................................................
   1    -50.7206213 -0.507206E+02  0.138E-01    8.45       0.0  T
   2    -50.7206313 -0.100411E-04  0.103E-01    8.45       1.0  T
   3    -50.7206393 -0.794489E-05  0.187E-02    8.45       1.1  T
   4    -50.7206405 -0.121356E-05  0.403E-03    8.45       4.9  T
   5    -50.7206405 -0.196231E-07  0.225E-03    8.45       8.7  T
speedup  1.09
cpu  time for SCC    0.00 s
wall time for SCC    0.00 s
speedup  0.99
cpu  time for grad    0.01 s
wall time for grad    0.01 s
 E :    -50.42536915  G :  0.010360    pred/act E change: -0.272D-03 -0.317D-03
Maxdispl :   0.0926   ||displ|| :   0.2214   Lambda : -0.540D-03
Largest |displ|/coords:  0.0926 (   2)  0.0859 (   7)  0.0697 (   3)
................................................................................
.............................. CYCLE   32 ......................................
................................................................................
   1    -50.7234427 -0.507234E+02  0.133E-01    8.47       0.0  T
   2    -50.7234474 -0.475153E-05  0.996E-02    8.46       1.0  T
   3    -50.7234506 -0.313997E-05  0.135E-02    8.46       1.5  T
   4    -50.7234512 -0.671974E-06  0.401E-03    8.46       4.9  T
   5    -50.7234513 -0.340572E-07  0.122E-03    8.46      16.1  T
   6    -50.7234513 -0.111970E-08  0.687E-04    8.46      28.5  T
speedup  0.93
cpu  time for SCC    0.00 s
wall time for SCC    0.01 s
speedup  1.01
cpu  time for grad    0.01 s
wall time for grad    0.01 s
 E :    -50.42575617  G :  0.011375    pred/act E change: -0.360D-03 -0.387D-03
Maxdispl :   0.2595   ||displ|| :   0.5555   Lambda : -0.890D-03
Largest |displ|/coords:  0.2595 (   7)  0.2413 (   2)  0.1908 (   3)
................................................................................
.............................. CYCLE   33 ......................................
................................................................................
   1    -50.7207684 -0.507208E+02  0.355E-01    8.45       0.0  T
   2    -50.7207884 -0.200004E-04  0.268E-01    8.45       1.0  T
   3    -50.7208088 -0.203468E-04  0.270E-02    8.46       1.0  T
   4    -50.7208105 -0.171949E-05  0.109E-02    8.46       1.8  T
   5    -50.7208106 -0.106591E-06  0.286E-03    8.46       6.9  T
   6    -50.7208106 -0.559918E-08  0.163E-03    8.46      12.1  T
speedup  0.94
cpu  time for SCC    0.01 s
wall time for SCC    0.01 s
speedup  1.02
cpu  time for grad    0.01 s
wall time for grad    0.01 s
 E :    -50.42636433  G :  0.019370    pred/act E change: -0.283D-03 -0.608D-03
Maxdispl :   0.2406   ||displ|| :   0.5342   Lambda : -0.874D-03
Largest |displ|/coords:  0.2406 (   7)  0.2387 (   2)  0.2187 (   3)
................................................................................
.............................. CYCLE   34 ......................................
................................................................................
   1    -50.7187379 -0.507187E+02  0.333E-01    8.42       0.0  T
   2    -50.7187574 -0.194374E-04  0.252E-01    8.42       1.0  T
   3    -50.7187781 -0.207799E-04  0.249E-02    8.41       1.0  T
   4    -50.7187797 -0.153976E-05  0.977E-03    8.41       2.0  T
   5    -50.7187798 -0.940666E-07  0.301E-03    8.41       6.5  T
   6    -50.7187798 -0.792332E-08  0.170E-03    8.41      11.6  T
   7    -50.7187798 -0.445777E-08  0.406E-04    8.41      48.3  T
speedup  1.09
cpu  time for SCC    0.01 s
wall time for SCC    0.01 s
speedup  1.06
cpu  time for grad    0.01 s
wall time for grad    0.01 s
 E :    -50.42673686  G :  0.026664    pred/act E change: -0.582D-03 -0.373D-03
Maxdispl :   0.1011   ||displ|| :   0.2841   Lambda : -0.118D-02
Largest |displ|/coords:  0.1011 (   2)  0.0954 (  20)  0.0948 (   3)
................................................................................
.............................. CYCLE   35 ......................................
................................................................................
   1    -50.7250108 -0.507250E+02  0.180E-01    8.58       0.0  T
   2    -50.7250259 -0.151050E-04  0.133E-01    8.58       1.0  T
   3    -50.7250358 -0.996333E-05  0.276E-02    8.58       1.0  T
   4    -50.7250376 -0.174530E-05  0.717E-03    8.58       2.7  T
   5    -50.7250377 -0.136431E-06  0.262E-03    8.58       7.5  T
   6    -50.7250377 -0.558749E-08  0.140E-03    8.58      14.1  T
speedup  0.93
cpu  time for SCC    0.00 s
wall time for SCC    0.01 s
speedup  1.00
cpu  time for grad    0.01 s
wall time for grad    0.01 s
 E :    -50.42714481  G :  0.018704    pred/act E change: -0.562D-03 -0.408D-03
Maxdispl :   0.2398   ||displ|| :   0.4693   Lambda : -0.131D-02
Largest |displ|/coords:  0.2398 (   7)  0.1664 (   5)  0.1641 (   6)
................................................................................
.............................. CYCLE   36 ......................................
................................................................................
   1    -50.7176701 -0.507177E+02  0.286E-01    8.24       0.0  T
   2    -50.7176919 -0.218209E-04  0.214E-01    8.24       1.0  T
   3    -50.7177110 -0.190680E-04  0.296E-02    8.23       1.0  T
   4    -50.7177133 -0.230667E-05  0.733E-03    8.23       2.7  T
   5    -50.7177134 -0.904348E-07  0.327E-03    8.23       6.0  T
   6    -50.7177134 -0.157776E-07  0.171E-03    8.23      11.5  T
   7    -50.7177134 -0.627112E-08  0.519E-04    8.23      37.8  T
speedup  1.09
cpu  time for SCC    0.01 s
wall time for SCC    0.01 s
speedup  1.00
cpu  time for grad    0.01 s
wall time for grad    0.01 s
 E :    -50.42767440  G :  0.023292    pred/act E change: -0.639D-03 -0.530D-03
Maxdispl :   0.1705   ||displ|| :   0.3019   Lambda : -0.980D-03
Largest |displ|/coords:  0.1705 (   2)  0.1391 (   3)  0.1009 (   7)
................................................................................
.............................. CYCLE   37 ......................................
................................................................................
   1    -50.7210605 -0.507211E+02  0.159E-01    8.41       0.0  T
   2    -50.7210694 -0.884304E-05  0.119E-01    8.40       1.0  T
   3    -50.7210755 -0.608240E-05  0.181E-02    8.39       1.1  T
   4    -50.7210767 -0.122585E-05  0.543E-03    8.39       3.6  T
   5    -50.7210767 -0.382461E-07  0.212E-03    8.39       9.3  T
speedup  0.89
cpu  time for SCC    0.00 s
wall time for SCC    0.00 s
speedup  0.99
cpu  time for grad    0.01 s
wall time for grad    0.01 s
 E :    -50.42818949  G :  0.017058    pred/act E change: -0.800D-03 -0.515D-03
Maxdispl :   0.2512   ||displ|| :   0.5486   Lambda : -0.916D-03
Largest |displ|/coords:  0.2512 (   2)  0.2320 (   3)  0.1959 (   7)
................................................................................
.............................. CYCLE   38 ......................................
................................................................................
   1    -50.7199760 -0.507200E+02  0.287E-01    8.41       0.0  T
   2    -50.7199904 -0.143168E-04  0.216E-01    8.41       1.0  T
   3    -50.7200056 -0.152529E-04  0.239E-02    8.40       1.0  T
   4    -50.7200069 -0.125798E-05  0.103E-02    8.40       1.9  T
   5    -50.7200070 -0.944469E-07  0.276E-03    8.40       7.1  T
   6    -50.7200070 -0.935805E-08  0.173E-03    8.40      11.3  T
speedup  0.93
cpu  time for SCC    0.00 s
wall time for SCC    0.01 s
speedup  1.00
cpu  time for grad    0.01 s
wall time for grad    0.01 s
 E :    -50.42877559  G :  0.021562    pred/act E change: -0.535D-03 -0.586D-03
Maxdispl :   0.1941   ||displ|| :   0.4432   Lambda : -0.110D-02
Largest |displ|/coords:  0.1941 (   9)  0.1909 (   1)  0.1632 (   3)
................................................................................
.............................. CYCLE   39 ......................................
................................................................................
   1    -50.7277166 -0.507277E+02  0.222E-01    8.46       0.0  T
   2    -50.7277368 -0.201682E-04  0.165E-01    8.46       1.0  T
   3    -50.7277547 -0.179343E-04  0.285E-02    8.44       1.0  T
   4    -50.7277571 -0.238404E-05  0.774E-03    8.45       2.5  T
   5    -50.7277572 -0.913721E-07  0.367E-03    8.45       5.3  T
   6    -50.7277572 -0.172001E-07  0.156E-03    8.45      12.6  T
speedup  0.93
cpu  time for SCC    0.00 s
wall time for SCC    0.01 s
speedup  1.00
cpu  time for grad    0.01 s
wall time for grad    0.01 s
 E :    -50.42932410  G :  0.021875    pred/act E change: -0.596D-03 -0.549D-03
Maxdispl :   0.2348   ||displ|| :   0.5591   Lambda : -0.121D-02
Largest |displ|/coords:  0.2348 (   3)  0.2263 (   1)  0.2047 (   7)
................................................................................
.............................. CYCLE   40 ......................................
................................................................................
   1    -50.7247198 -0.507247E+02  0.295E-01    8.29       0.0  T
   2    -50.7247362 -0.164711E-04  0.221E-01    8.29       1.0  T
   3    -50.7247510 -0.147193E-04  0.269E-02    8.28       1.0  T
   4    -50.7247525 -0.152737E-05  0.608E-03    8.28       3.2  T
   5    -50.7247525 -0.435972E-07  0.297E-03    8.28       6.6  T
   6    -50.7247526 -0.135857E-07  0.123E-03    8.28      15.9  T
speedup  1.07
cpu  time for SCC    0.01 s
wall time for SCC    0.01 s
speedup  0.98
cpu  time for grad    0.01 s
wall time for grad    0.01 s
 E :    -50.43011279  G :  0.015384    pred/act E change: -0.660D-03 -0.789D-03
Maxdispl :   0.2495   ||displ|| :   0.5333   Lambda : -0.168D-02
Largest |displ|/coords:  0.2495 (  10)  0.2439 (   1)  0.1945 (   3)
................................................................................
.............................. CYCLE   41 ......................................
................................................................................
   1    -50.7155192 -0.507155E+02  0.320E-01    8.47       0.0  T
   2    -50.7155614 -0.422530E-04  0.240E-01    8.48       1.0  T
   3    -50.7155937 -0.322247E-04  0.378E-02    8.48       1.0  T
   4    -50.7155990 -0.534045E-05  0.968E-03    8.48       2.0  T
   5    -50.7155991 -0.119715E-06  0.451E-03    8.48       4.3  T
   6    -50.7155992 -0.234090E-07  0.207E-03    8.48       9.5  T
   7    -50.7155992 -0.859387E-08  0.531E-04    8.48      36.9  T
speedup  1.08
cpu  time for SCC    0.01 s
wall time for SCC    0.01 s
speedup  0.99
cpu  time for grad    0.01 s
wall time for grad    0.01 s
 E :    -50.43007014  G :  0.043354    pred/act E change: -0.792D-03  0.427D-04
Maxdispl :   0.1311   ||displ|| :   0.2730   Lambda : -0.250D-02
Largest |displ|/coords:  0.1311 (   1)  0.0986 (   9)  0.0955 (   6)
................................................................................
.............................. CYCLE   42 ......................................
................................................................................
   1    -50.7349179 -0.507349E+02  0.224E-01    8.68       0.0  T
   2    -50.7349688 -0.508933E-04  0.165E-01    8.67       1.0  T
   3    -50.7349992 -0.304226E-04  0.398E-02    8.66       1.0  T
   4    -50.7350041 -0.493038E-05  0.695E-03    8.67       2.8  T
   5    -50.7350042 -0.748367E-07  0.371E-03    8.67       5.3  T
   6    -50.7350042 -0.726830E-08  0.161E-03    8.67      12.2  T
speedup  1.07
cpu  time for SCC    0.01 s
wall time for SCC    0.01 s
speedup  0.98
cpu  time for grad    0.01 s
wall time for grad    0.01 s
 E :    -50.43026533  G :  0.040883    pred/act E change: -0.108D-02 -0.195D-03
Maxdispl :   0.1884   ||displ|| :   0.4200   Lambda : -0.369D-02
Largest |displ|/coords:  0.1884 (   9)  0.1324 (  10)  0.1295 (  16)
................................................................................
.............................. CYCLE   43 ......................................
................................................................................
   1    -50.7286813 -0.507287E+02  0.365E-01    8.09       0.0  T
   2    -50.7287629 -0.815937E-04  0.271E-01    8.09       1.0  T
   3    -50.7288222 -0.592502E-04  0.525E-02    8.07       1.0  T
   4    -50.7288316 -0.946177E-05  0.138E-02    8.07       1.4  T
   5    -50.7288319 -0.287517E-06  0.632E-03    8.07       3.1  T
   6    -50.7288320 -0.469929E-07  0.316E-03    8.07       6.2  T
   7    -50.7288320 -0.161800E-07  0.781E-04    8.07      25.1  T
speedup  0.95
cpu  time for SCC    0.01 s
wall time for SCC    0.01 s
speedup  1.01
cpu  time for grad    0.01 s
wall time for grad    0.01 s
 E :    -50.42984987  G :  0.048803    pred/act E change: -0.134D-02  0.415D-03
Maxdispl :   0.0935   ||displ|| :   0.2009   Lambda : -0.364D-02
Largest |displ|/coords:  0.0935 (  25)  0.0667 (  18)  0.0602 (  23)
................................................................................
.............................. CYCLE   44 ......................................
................................................................................
   1    -50.7274498 -0.507274E+02  0.218E-01    8.31       0.0  T
   2    -50.7274851 -0.352940E-04  0.160E-01    8.32       1.0  T
   3    -50.7275067 -0.216236E-04  0.352E-02    8.33       1.0  T
   4    -50.7275100 -0.329124E-05  0.101E-02    8.32       1.9  T
   5    -50.7275102 -0.190234E-06  0.323E-03    8.32       6.1  T
   6    -50.7275102 -0.124404E-07  0.191E-03    8.32      10.3  T
speedup  0.93
cpu  time for SCC    0.00 s
wall time for SCC    0.01 s
speedup  0.98
cpu  time for grad    0.01 s
wall time for grad    0.01 s
 E :    -50.43151806  G :  0.018869    pred/act E change: -0.217D-02 -0.167D-02
Maxdispl :   0.1780   ||displ|| :   0.3931   Lambda : -0.110D-02
Largest |displ|/coords:  0.1780 (   1)  0.1763 (   3)  0.1288 (  10)
................................................................................
.............................. CYCLE   45 ......................................
................................................................................
   1    -50.7238044 -0.507238E+02  0.231E-01    8.49       0.0  T
   2    -50.7238268 -0.224639E-04  0.174E-01    8.49       1.0  T
   3    -50.7238445 -0.176940E-04  0.274E-02    8.49       1.0  T
   4    -50.7238476 -0.306653E-05  0.748E-03    8.49       2.6  T
   5    -50.7238477 -0.717274E-07  0.342E-03    8.49       5.7  T
   6    -50.7238477 -0.128964E-07  0.162E-03    8.49      12.1  T
   7    -50.7238477 -0.617682E-08  0.355E-04    8.49      55.3  T
speedup  0.97
cpu  time for SCC    0.01 s
wall time for SCC    0.01 s
speedup  1.01
cpu  time for grad    0.01 s
wall time for grad    0.01 s
 E :    -50.43138637  G :  0.032748    pred/act E change: -0.189D-02  0.132D-03
Maxdispl :   0.0614   ||displ|| :   0.1640   Lambda : -0.123D-02
Largest |displ|/coords:  0.0614 (  13)  0.0614 (   1)  0.0529 (  21)
................................................................................
.............................. CYCLE   46 ......................................
................................................................................
   1    -50.7296167 -0.507296E+02  0.150E-01    8.48       0.0  T
   2    -50.7296296 -0.128601E-04  0.111E-01    8.47       1.0  T
   3    -50.7296369 -0.729937E-05  0.232E-02    8.47       1.0  T
   4    -50.7296385 -0.165284E-05  0.652E-03    8.47       3.0  T
   5    -50.7296386 -0.107177E-06  0.226E-03    8.47       8.7  T
   6    -50.7296386 -0.363869E-08  0.128E-03    8.47      15.4  T
speedup  0.94
cpu  time for SCC    0.00 s
wall time for SCC    0.01 s
speedup  0.99
cpu  time for grad    0.01 s
wall time for grad    0.01 s
 E :    -50.43196983  G :  0.013973    pred/act E change: -0.634D-03 -0.583D-03
Maxdispl :   0.1481   ||displ|| :   0.2834   Lambda : -0.769D-03
Largest |displ|/coords:  0.1481 (   4)  0.0845 (   1)  0.0812 (  15)
................................................................................
.............................. CYCLE   47 ......................................
................................................................................
   1    -50.7281926 -0.507282E+02  0.196E-01    8.14       0.0  T
   2    -50.7282034 -0.108113E-04  0.146E-01    8.14       1.0  T
   3    -50.7282134 -0.100064E-04  0.224E-02    8.13       1.0  T
   4    -50.7282143 -0.918985E-06  0.717E-03    8.13       2.7  T
   5    -50.7282144 -0.677302E-07  0.240E-03    8.13       8.2  T
   6    -50.7282144 -0.764429E-08  0.133E-03    8.13      14.8  T
speedup  0.93
cpu  time for SCC    0.00 s
wall time for SCC    0.01 s
speedup  0.97
cpu  time for grad    0.01 s
wall time for grad    0.01 s
 E :    -50.43182682  G :  0.024618    pred/act E change: -0.630D-03  0.143D-03
Maxdispl :   0.0573   ||displ|| :   0.1407   Lambda : -0.870D-03
Largest |displ|/coords:  0.0573 (  17)  0.0530 (  13)  0.0421 (   9)
................................................................................
.............................. CYCLE   48 ......................................
................................................................................
   1    -50.7291213 -0.507291E+02  0.113E-01    8.33       0.0  T
   2    -50.7291258 -0.445766E-05  0.836E-02    8.33       1.0  T
   3    -50.7291291 -0.328405E-05  0.147E-02    8.34       1.3  T
   4    -50.7291295 -0.431156E-06  0.488E-03    8.34       4.0  T
   5    -50.7291295 -0.381476E-07  0.128E-03    8.34      15.3  T
speedup  0.89
cpu  time for SCC    0.00 s
wall time for SCC    0.00 s
speedup  0.98
cpu  time for grad    0.01 s
wall time for grad    0.01 s
 E :    -50.43230257  G :  0.010288    pred/act E change: -0.416D-03 -0.476D-03
Maxdispl :   0.1167   ||displ|| :   0.2410   Lambda : -0.429D-03
Largest |displ|/coords:  0.1167 (   1)  0.0935 (   2)  0.0742 (   3)
................................................................................
.............................. CYCLE   49 ......................................
................................................................................
   1    -50.7303078 -0.507303E+02  0.120E-01    8.41       0.0  T
   2    -50.7303132 -0.541532E-05  0.900E-02    8.41       1.0  T
   3    -50.7303177 -0.448498E-05  0.135E-02    8.40       1.5  T
   4    -50.7303183 -0.678300E-06  0.376E-03    8.41       5.2  T
   5    -50.7303184 -0.225552E-07  0.157E-03    8.41      12.5  T
   6    -50.7303184 -0.264390E-08  0.661E-04    8.41      29.6  T
speedup  0.94
cpu  time for SCC    0.00 s
wall time for SCC    0.01 s
speedup  0.99
cpu  time for grad    0.01 s
wall time for grad    0.01 s
 E :    -50.43228722  G :  0.016804    pred/act E change: -0.444D-03  0.153D-04
Maxdispl :   0.0517   ||displ|| :   0.1138   Lambda : -0.467D-03
Largest |displ|/coords:  0.0517 (  12)  0.0419 (   4)  0.0326 (  23)
................................................................................
.............................. CYCLE   50 ......................................
................................................................................
   1    -50.7298137 -0.507298E+02  0.956E-02    8.38       0.0  T
   2    -50.7298162 -0.250659E-05  0.711E-02    8.38       1.0  T
   3    -50.7298179 -0.164717E-05  0.891E-03    8.39       2.2  T
   4    -50.7298182 -0.325978E-06  0.331E-03    8.39       5.9  T
   5    -50.7298182 -0.103724E-07  0.101E-03    8.39      19.5  T
   6    -50.7298182 -0.120274E-08  0.498E-04    8.39      39.4  T
speedup  1.13
cpu  time for SCC    0.01 s
wall time for SCC    0.01 s
speedup  0.99
cpu  time for grad    0.01 s
wall time for grad    0.01 s
 E :    -50.43256839  G :  0.009325    pred/act E change: -0.227D-03 -0.281D-03
Maxdispl :   0.0648   ||displ|| :   0.1597   Lambda : -0.296D-03
Largest |displ|/coords:  0.0648 (  13)  0.0644 (   4)  0.0468 (   9)
................................................................................
.............................. CYCLE   51 ......................................
................................................................................
   1    -50.7289895 -0.507290E+02  0.124E-01    8.33       0.0  T
   2    -50.7289917 -0.215679E-05  0.933E-02    8.33       1.0  T
   3    -50.7289940 -0.231161E-05  0.780E-03    8.32       2.5  T
   4    -50.7289942 -0.196950E-06  0.381E-03    8.32       5.2  T
   5    -50.7289942 -0.155158E-07  0.104E-03    8.32      18.9  T
   6    -50.7289942 -0.157211E-08  0.565E-04    8.32      34.7  T
speedup  1.11
cpu  time for SCC    0.01 s
wall time for SCC    0.01 s
speedup  0.98
cpu  time for grad    0.01 s
wall time for grad    0.01 s
 E :    -50.43265130  G :  0.011101    pred/act E change: -0.237D-03 -0.829D-04
Maxdispl :   0.0685   ||displ|| :   0.1649   Lambda : -0.282D-03
Largest |displ|/coords:  0.0685 (   2)  0.0517 (   1)  0.0484 (   4)
................................................................................
.............................. CYCLE   52 ......................................
................................................................................
   1    -50.7296201 -0.507296E+02  0.109E-01    8.33       0.0  T
   2    -50.7296223 -0.220565E-05  0.822E-02    8.33       1.0  T
   3    -50.7296249 -0.255475E-05  0.945E-03    8.33       2.1  T
   4    -50.7296250 -0.128639E-06  0.296E-03    8.33       6.6  T
   5    -50.7296250 -0.108876E-07  0.101E-03    8.33      19.3  T
speedup  1.09
cpu  time for SCC    0.00 s
wall time for SCC    0.00 s
speedup  0.97
cpu  time for grad    0.01 s
wall time for grad    0.01 s
 E :    -50.43283529  G :  0.008272    pred/act E change: -0.152D-03 -0.184D-03
Maxdispl :   0.0868   ||displ|| :   0.2483   Lambda : -0.312D-03
Largest |displ|/coords:  0.0868 (   9)  0.0866 (  25)  0.0853 (   2)

generating ANC from model Hessian ...
 Shifting diagonal of input Hessian by   5.080811393815325E-003
 Lowest  eigenvalues of input Hessian
    0.005000   -0.000000   -0.000000   -0.000000    0.000000    0.000000
    0.000000    0.005205    0.005444    0.005586    0.005789    0.005957
    0.006165    0.006230    0.006710    0.007140    0.007321    0.007739
 Highest eigenvalues
    1.402672    1.412434    1.414016    2.525468    3.257519    3.870361
 
cpu  time for ANC gen    0.02 s
wall time for ANC gen    0.02 s
................................................................................
.............................. CYCLE   53 ......................................
................................................................................
   1    -50.7284293 -0.507284E+02  0.182E-01    8.31       0.0  T
   2    -50.7284364 -0.709555E-05  0.137E-01    8.31       1.0  T
   3    -50.7284430 -0.660801E-05  0.161E-02    8.31       1.2  T
   4    -50.7284438 -0.751775E-06  0.442E-03    8.32       4.4  T
   5    -50.7284438 -0.220412E-07  0.191E-03    8.32      10.3  T
   6    -50.7284438 -0.453588E-08  0.965E-04    8.32      20.3  T
   7    -50.7284438 -0.154336E-08  0.219E-04    8.32      89.6  T
speedup  1.13
cpu  time for SCC    0.01 s
wall time for SCC    0.01 s
speedup  1.01
cpu  time for grad    0.01 s
wall time for grad    0.01 s
 E :    -50.43277244  G :  0.021867    pred/act E change:  0.000D+00  0.629D-04
Maxdispl :   0.1409   ||displ|| :   0.2556   Lambda : -0.971D-03
Largest |displ|/coords:  0.1409 (   1)  0.1053 (  13)  0.0879 (   3)
................................................................................
.............................. CYCLE   54 ......................................
................................................................................
   1    -50.7288566 -0.507289E+02  0.224E-01    8.29       0.0  T
   2    -50.7288649 -0.828796E-05  0.170E-01    8.29       1.0  T
   3    -50.7288732 -0.824685E-05  0.154E-02    8.28       1.3  T
   4    -50.7288740 -0.840563E-06  0.544E-03    8.28       3.6  T
   5    -50.7288741 -0.497693E-07  0.230E-03    8.28       8.5  T
speedup  0.87
cpu  time for SCC    0.00 s
wall time for SCC    0.00 s
speedup  0.97
cpu  time for grad    0.01 s
wall time for grad    0.01 s
 E :    -50.43345351  G :  0.010114    pred/act E change:  0.000D+00 -0.681D-03
Maxdispl :   0.2088   ||displ|| :   0.3721   Lambda : -0.766D-03
Largest |displ|/coords:  0.2088 (   1)  0.1383 (   7)  0.1361 (   3)
................................................................................
.............................. CYCLE   55 ......................................
................................................................................
   1    -50.7282155 -0.507282E+02  0.271E-01    8.25       0.0  T
   2    -50.7282266 -0.111183E-04  0.204E-01    8.25       1.0  T
   3    -50.7282379 -0.113464E-04  0.197E-02    8.25       1.0  T
   4    -50.7282391 -0.112952E-05  0.650E-03    8.25       3.0  T
   5    -50.7282391 -0.722295E-07  0.297E-03    8.25       6.6  T
   6    -50.7282391 -0.907985E-08  0.138E-03    8.25      14.2  T
speedup  0.93
cpu  time for SCC    0.00 s
wall time for SCC    0.01 s
speedup  0.98
cpu  time for grad    0.01 s
wall time for grad    0.01 s
 E :    -50.43384189  G :  0.020565    pred/act E change: -0.517D-03 -0.388D-03
Maxdispl :   0.1540   ||displ|| :   0.2851   Lambda : -0.683D-03
Largest |displ|/coords:  0.1540 (   1)  0.1278 (   3)  0.1055 (   2)
................................................................................
.............................. CYCLE   56 ......................................
................................................................................
   1    -50.7290275 -0.507290E+02  0.234E-01    8.22       0.0  T
   2    -50.7290360 -0.845852E-05  0.177E-01    8.22       1.0  T
   3    -50.7290450 -0.901972E-05  0.146E-02    8.23       1.3  T
   4    -50.7290457 -0.710070E-06  0.461E-03    8.23       4.3  T
   5    -50.7290457 -0.160640E-07  0.181E-03    8.23      10.8  T
speedup  0.91
cpu  time for SCC    0.00 s
wall time for SCC    0.00 s
speedup  0.98
cpu  time for grad    0.01 s
wall time for grad    0.01 s
 E :    -50.43433391  G :  0.016038    pred/act E change: -0.436D-03 -0.492D-03
Maxdispl :   0.2813   ||displ|| :   0.5644   Lambda : -0.991D-03
Largest |displ|/coords:  0.2813 (   1)  0.2295 (   3)  0.2031 (   2)
................................................................................
.............................. CYCLE   57 ......................................
................................................................................
   1    -50.7207229 -0.507207E+02  0.466E-01    8.11       0.0  T
   2    -50.7207659 -0.429620E-04  0.354E-01    8.12       1.0  T
   3    -50.7208078 -0.419494E-04  0.341E-02    8.14       1.0  T
   4    -50.7208124 -0.463386E-05  0.881E-03    8.14       2.2  T
   5    -50.7208125 -0.454133E-07  0.472E-03    8.14       4.2  T
   6    -50.7208125 -0.357285E-07  0.182E-03    8.14      10.8  T
   7    -50.7208125 -0.645886E-08  0.510E-04    8.14      38.5  T
speedup  0.94
cpu  time for SCC    0.01 s
wall time for SCC    0.01 s
speedup  0.99
cpu  time for grad    0.01 s
wall time for grad    0.01 s
 E :    -50.43449932  G :  0.031424    pred/act E change: -0.369D-03 -0.165D-03
Maxdispl :   0.1134   ||displ|| :   0.2720   Lambda : -0.202D-02
Largest |displ|/coords:  0.1134 (  11)  0.1059 (   7)  0.0931 (   3)
................................................................................
.............................. CYCLE   58 ......................................
................................................................................
   1    -50.7283028 -0.507283E+02  0.330E-01    8.12       0.0  T
   2    -50.7283416 -0.388619E-04  0.250E-01    8.11       1.0  T
   3    -50.7283666 -0.249637E-04  0.368E-02    8.10       1.0  T
   4    -50.7283727 -0.610036E-05  0.765E-03    8.10       2.6  T
   5    -50.7283729 -0.245935E-06  0.304E-03    8.10       6.4  T
   6    -50.7283729 -0.352468E-08  0.182E-03    8.10      10.8  T
speedup  1.09
cpu  time for SCC    0.01 s
wall time for SCC    0.01 s
speedup  1.05
cpu  time for grad    0.01 s
wall time for grad    0.01 s
 E :    -50.43534310  G :  0.015068    pred/act E change: -0.653D-03 -0.844D-03
Maxdispl :   0.2068   ||displ|| :   0.3706   Lambda : -0.645D-03
Largest |displ|/coords:  0.2068 (   3)  0.1792 (   1)  0.1090 (   5)
................................................................................
.............................. CYCLE   59 ......................................
................................................................................
   1    -50.7255999 -0.507256E+02  0.211E-01    8.12       0.0  T
   2    -50.7256079 -0.803714E-05  0.159E-01    8.11       1.0  T
   3    -50.7256178 -0.988342E-05  0.146E-02    8.10       1.3  T
   4    -50.7256184 -0.605050E-06  0.663E-03    8.10       3.0  T
   5    -50.7256185 -0.584948E-07  0.232E-03    8.10       8.5  T
   6    -50.7256185 -0.815347E-08  0.105E-03    8.10      18.6  T
speedup  0.91
cpu  time for SCC    0.00 s
wall time for SCC    0.01 s
speedup  0.97
cpu  time for grad    0.01 s
wall time for grad    0.01 s
 E :    -50.43560632  G :  0.026929    pred/act E change: -0.109D-02 -0.263D-03
Maxdispl :   0.1542   ||displ|| :   0.2891   Lambda : -0.135D-02
Largest |displ|/coords:  0.1542 (   3)  0.1096 (  15)  0.0833 (  10)
................................................................................
.............................. CYCLE   60 ......................................
................................................................................
   1    -50.7334677 -0.507335E+02  0.203E-01    8.32       0.0  T
   2    -50.7334852 -0.175029E-04  0.150E-01    8.32       1.0  T
   3    -50.7334947 -0.952774E-05  0.329E-02    8.31       1.0  T
   4    -50.7334966 -0.195477E-05  0.672E-03    8.31       2.9  T
   5    -50.7334968 -0.133106E-06  0.229E-03    8.31       8.6  T
   6    -50.7334968 -0.267241E-08  0.128E-03    8.31      15.3  T
speedup  1.05
cpu  time for SCC    0.01 s
wall time for SCC    0.01 s
speedup  0.96
cpu  time for grad    0.01 s
wall time for grad    0.01 s
 E :    -50.43612665  G :  0.019108    pred/act E change: -0.367D-03 -0.520D-03
Maxdispl :   0.2243   ||displ|| :   0.4250   Lambda : -0.146D-02
Largest |displ|/coords:  0.2243 (   3)  0.1665 (   6)  0.1385 (   1)
................................................................................
.............................. CYCLE   61 ......................................
................................................................................
   1    -50.7344071 -0.507344E+02  0.289E-01    8.20       0.0  T
   2    -50.7344399 -0.328158E-04  0.217E-01    8.20       1.0  T
   3    -50.7344712 -0.313102E-04  0.375E-02    8.20       1.0  T
   4    -50.7344748 -0.351948E-05  0.103E-02    8.21       1.9  T
   5    -50.7344750 -0.198618E-06  0.434E-03    8.21       4.5  T
   6    -50.7344750 -0.182768E-07  0.210E-03    8.21       9.4  T
   7    -50.7344750 -0.133608E-07  0.582E-04    8.21      33.7  T
speedup  1.11
cpu  time for SCC    0.01 s
wall time for SCC    0.01 s
speedup  0.99
cpu  time for grad    0.01 s
wall time for grad    0.01 s
 E :    -50.43648139  G :  0.029005    pred/act E change: -0.733D-03 -0.355D-03
Maxdispl :   0.2291   ||displ|| :   0.4598   Lambda : -0.169D-02
Largest |displ|/coords:  0.2291 (   3)  0.1911 (  14)  0.1550 (   1)
................................................................................
.............................. CYCLE   62 ......................................
................................................................................
   1    -50.7184435 -0.507184E+02  0.359E-01    7.84       0.0  T
   2    -50.7184778 -0.343571E-04  0.270E-01    7.84       1.0  T
   3    -50.7185132 -0.354105E-04  0.373E-02    7.86       1.0  T
   4    -50.7185164 -0.315458E-05  0.113E-02    7.86       1.7  T
   5    -50.7185166 -0.240449E-06  0.455E-03    7.86       4.3  T
   6    -50.7185167 -0.218591E-07  0.236E-03    7.86       8.3  T
speedup  1.09
cpu  time for SCC    0.01 s
wall time for SCC    0.01 s
speedup  0.97
cpu  time for grad    0.01 s
wall time for grad    0.01 s
 E :    -50.43651768  G :  0.035602    pred/act E change: -0.861D-03 -0.363D-04
Maxdispl :   0.0820   ||displ|| :   0.2099   Lambda : -0.187D-02
Largest |displ|/coords:  0.0820 (   8)  0.0783 (  14)  0.0742 (  12)
................................................................................
.............................. CYCLE   63 ......................................
................................................................................
   1    -50.7298763 -0.507299E+02  0.206E-01    8.23       0.0  T
   2    -50.7298907 -0.144267E-04  0.152E-01    8.23       1.0  T
   3    -50.7299030 -0.122833E-04  0.284E-02    8.21       1.0  T
   4    -50.7299042 -0.121460E-05  0.729E-03    8.21       2.7  T
   5    -50.7299043 -0.117853E-06  0.264E-03    8.21       7.4  T
   6    -50.7299043 -0.820325E-08  0.145E-03    8.21      13.5  T
speedup  0.93
cpu  time for SCC    0.00 s
wall time for SCC    0.01 s
speedup  0.98
cpu  time for grad    0.01 s
wall time for grad    0.01 s
 E :    -50.43722003  G :  0.015952    pred/act E change: -0.102D-02 -0.702D-03
Maxdispl :   0.0976   ||displ|| :   0.2007   Lambda : -0.884D-03
Largest |displ|/coords:  0.0976 (   3)  0.0706 (   1)  0.0657 (  10)
................................................................................
.............................. CYCLE   64 ......................................
................................................................................
   1    -50.7362833 -0.507363E+02  0.158E-01    8.31       0.0  T
   2    -50.7362919 -0.854090E-05  0.119E-01    8.30       1.0  T
   3    -50.7363005 -0.858202E-05  0.181E-02    8.29       1.1  T
   4    -50.7363012 -0.725371E-06  0.588E-03    8.29       3.3  T
   5    -50.7363012 -0.547457E-07  0.214E-03    8.29       9.1  T
   6    -50.7363013 -0.469744E-08  0.111E-03    8.29      17.6  T
speedup  0.93
cpu  time for SCC    0.00 s
wall time for SCC    0.01 s
speedup  0.98
cpu  time for grad    0.01 s
wall time for grad    0.01 s
 E :    -50.43728140  G :  0.022251    pred/act E change: -0.975D-03 -0.614D-04
Maxdispl :   0.1336   ||displ|| :   0.2688   Lambda : -0.801D-03
Largest |displ|/coords:  0.1336 (   3)  0.1074 (   6)  0.0789 (   7)
[...]
Maxdispl :   0.0056   ||displ|| :   0.0089   Lambda : -0.915D-06
Largest |displ|/coords:  0.0056 (   2)  0.0031 (   6)  0.0029 (  13)
................................................................................
.............................. CYCLE  152 ......................................
................................................................................
   1    -50.7330015 -0.507330E+02  0.570E-03    7.96       0.0  T
   2    -50.7330015 -0.353283E-08  0.431E-03    7.96       4.6  T
   3    -50.7330015 -0.403874E-08  0.305E-04    7.96      64.3  T
   4    -50.7330015 -0.252491E-09  0.130E-04    7.96     151.0  T
speedup  1.08
cpu  time for SCC    0.00 s
wall time for SCC    0.00 s
speedup  0.98
cpu  time for grad    0.01 s
wall time for grad    0.01 s
 E :    -50.44194197  G :  0.000444    pred/act E change: -0.106D-05 -0.580D-06
Maxdispl :   0.0093   ||displ|| :   0.0152   Lambda : -0.953D-06
Largest |displ|/coords:  0.0093 (   2)  0.0070 (   1)  0.0050 (   3)
................................................................................
.............................. CYCLE  153 ......................................
................................................................................
   1    -50.7331126 -0.507331E+02  0.726E-03    7.97       0.0  T
   2    -50.7331126 -0.672853E-08  0.546E-03    7.97       3.6  T
   3    -50.7331126 -0.657840E-08  0.455E-04    7.97      43.1  T
   4    -50.7331126 -0.614975E-09  0.218E-04    7.97      89.8  T
speedup  1.05
cpu  time for SCC    0.00 s
wall time for SCC    0.00 s
speedup  0.97
cpu  time for grad    0.01 s
wall time for grad    0.01 s
 E :    -50.44194264  G :  0.000228    pred/act E change: -0.458D-06 -0.669D-06
Maxdispl :   0.0334   ||displ|| :   0.0470   Lambda : -0.105D-05
Largest |displ|/coords:  0.0334 (   2)  0.0172 (   3)  0.0160 (   1)
................................................................................
.............................. CYCLE  154 ......................................
................................................................................
   1    -50.7331217 -0.507331E+02  0.355E-02    7.97       0.0  T
   2    -50.7331218 -0.662107E-07  0.268E-02    7.97       1.0  T
   3    -50.7331219 -0.862209E-07  0.139E-03    7.97      14.1  T
   4    -50.7331219 -0.159530E-08  0.463E-04    7.97      42.4  T
   5    -50.7331219 -0.157186E-09  0.196E-04    7.97     100.0  T
speedup  1.09
cpu  time for SCC    0.00 s
wall time for SCC    0.00 s
speedup  1.00
cpu  time for grad    0.01 s
wall time for grad    0.01 s
 E :    -50.44194329  G :  0.000524    pred/act E change: -0.476D-06 -0.648D-06
Maxdispl :   0.0134   ||displ|| :   0.0199   Lambda : -0.584D-06
Largest |displ|/coords:  0.0134 (   2)  0.0099 (   1)  0.0069 (   3)
................................................................................
.............................. CYCLE  155 ......................................
................................................................................
   1    -50.7331967 -0.507332E+02  0.121E-02    7.97       0.0  T
   2    -50.7331967 -0.936869E-08  0.913E-03    7.97       2.1  T
   3    -50.7331967 -0.102829E-07  0.552E-04    7.97      35.5  T
   4    -50.7331967 -0.664230E-09  0.224E-04    7.97      87.6  T
speedup  0.81
cpu  time for SCC    0.00 s
wall time for SCC    0.00 s
speedup  0.99
cpu  time for grad    0.01 s
wall time for grad    0.01 s
 E :    -50.44194375  G :  0.000381    pred/act E change: -0.524D-06 -0.456D-06
Maxdispl :   0.0283   ||displ|| :   0.0390   Lambda : -0.767D-06
Largest |displ|/coords:  0.0283 (   2)  0.0155 (   1)  0.0135 (   3)
................................................................................
.............................. CYCLE  156 ......................................
................................................................................
   1    -50.7332073 -0.507332E+02  0.297E-02    7.97       0.0  T
   2    -50.7332073 -0.433900E-07  0.224E-02    7.97       1.0  T
   3    -50.7332074 -0.552378E-07  0.105E-03    7.97      18.6  T
   4    -50.7332074 -0.130601E-08  0.394E-04    7.97      49.8  T
   5    -50.7332074 -0.101551E-09  0.155E-04    7.97     126.8  T
speedup  0.87
cpu  time for SCC    0.00 s
wall time for SCC    0.00 s
speedup  1.00
cpu  time for grad    0.01 s
wall time for grad    0.01 s
 E :    -50.44194429  G :  0.000499    pred/act E change: -0.311D-06 -0.538D-06
Maxdispl :   0.0179   ||displ|| :   0.0243   Lambda : -0.698D-06
Largest |displ|/coords:  0.0179 (   2)  0.0105 (   1)  0.0059 (   3)
................................................................................
.............................. CYCLE  157 ......................................
................................................................................
   1    -50.7332692 -0.507333E+02  0.166E-02    7.97       0.0  T
   2    -50.7332692 -0.177355E-07  0.125E-02    7.97       1.6  T
   3    -50.7332693 -0.174404E-07  0.743E-04    7.97      26.4  T
   4    -50.7332693 -0.174627E-08  0.271E-04    7.97      72.4  T
speedup  0.81
cpu  time for SCC    0.00 s
wall time for SCC    0.00 s
speedup  0.99
cpu  time for grad    0.01 s
wall time for grad    0.01 s
 E :    -50.44194470  G :  0.000290    pred/act E change: -0.384D-06 -0.415D-06
Maxdispl :   0.0226   ||displ|| :   0.0292   Lambda : -0.383D-06
Largest |displ|/coords:  0.0226 (   2)  0.0096 (   1)  0.0079 (  10)
................................................................................
.............................. CYCLE  158 ......................................
................................................................................
   1    -50.7332275 -0.507332E+02  0.239E-02    7.96       0.0  T
   2    -50.7332275 -0.273211E-07  0.180E-02    7.96       1.1  T
   3    -50.7332275 -0.353572E-07  0.902E-04    7.97      21.8  T
   4    -50.7332275 -0.690115E-09  0.344E-04    7.97      57.0  T
speedup  1.05
cpu  time for SCC    0.00 s
wall time for SCC    0.00 s
speedup  0.98
cpu  time for grad    0.01 s
wall time for grad    0.01 s
 E :    -50.44194495  G :  0.000436    pred/act E change: -0.349D-06 -0.255D-06
Maxdispl :   0.0086   ||displ|| :   0.0112   Lambda : -0.404D-06
Largest |displ|/coords:  0.0086 (   2)  0.0037 (   7)  0.0031 (  11)
................................................................................
.............................. CYCLE  159 ......................................
................................................................................
   1    -50.7332431 -0.507332E+02  0.915E-03    7.96       0.0  T
   2    -50.7332431 -0.830978E-08  0.690E-03    7.96       2.8  T
   3    -50.7332431 -0.828594E-08  0.549E-04    7.96      35.7  T
   4    -50.7332431 -0.740847E-09  0.198E-04    7.96      99.1  T
speedup  1.05
cpu  time for SCC    0.00 s
wall time for SCC    0.00 s
speedup  0.98
cpu  time for grad    0.01 s
wall time for grad    0.01 s
 E :    -50.44194522  G :  0.000216    pred/act E change: -0.192D-06 -0.262D-06
Maxdispl :   0.0155   ||displ|| :   0.0195   Lambda : -0.231D-06
Largest |displ|/coords:  0.0155 (   2)  0.0064 (   1)  0.0057 (  11)
................................................................................
.............................. CYCLE  160 ......................................
................................................................................
   1    -50.7332221 -0.507332E+02  0.163E-02    7.96       0.0  T
   2    -50.7332221 -0.155689E-07  0.123E-02    7.96       1.6  T
   3    -50.7332222 -0.191590E-07  0.690E-04    7.96      28.4  T
   4    -50.7332222 -0.614001E-09  0.189E-04    7.96     103.6  T
speedup  0.77
cpu  time for SCC    0.00 s
wall time for SCC    0.00 s
speedup  0.98
cpu  time for grad    0.01 s
wall time for grad    0.01 s
 E :    -50.44194536  G :  0.000273    pred/act E change: -0.202D-06 -0.148D-06
Maxdispl :   0.0017   ||displ|| :   0.0043   Lambda : -0.138D-06
Largest |displ|/coords:  0.0017 (   3)  0.0016 (  11)  0.0016 (   2)
................................................................................
.............................. CYCLE  161 ......................................
................................................................................
   1    -50.7332332 -0.507332E+02  0.348E-03    7.96       0.0  T
   2    -50.7332332 -0.196310E-08  0.262E-03    7.96       7.5  T
   3    -50.7332332 -0.152274E-08  0.279E-04    7.97      70.2  T
   4    -50.7332332 -0.264023E-09  0.854E-05    7.97     229.6  T
speedup  1.08
cpu  time for SCC    0.00 s
wall time for SCC    0.00 s
speedup  0.99
cpu  time for grad    0.01 s
wall time for grad    0.01 s
 E :    -50.44194546  G :  0.000159    pred/act E change: -0.115D-06 -0.943D-07
Maxdispl :   0.0118   ||displ|| :   0.0159   Lambda : -0.141D-06
Largest |displ|/coords:  0.0118 (   2)  0.0053 (  10)  0.0051 (   1)

   *** GEOMETRY OPTIMIZATION CONVERGED AFTER 161 ITERATIONS ***

------------------------------------------------------------------------
 total energy gain (kcal):     -0.0052
------------------------------------------------------------------------
================
 final structure:
================
$coord
       -2.81403998442732        3.81286401632464       -0.98208305803559      S 
       -4.67193856905068        5.56558844096317       -0.20327462965868      O 
       -3.33559758964821        1.16018054985388       -0.60770256514228      O 
       -0.22103823109441        4.37531348786074        0.33661366915967      O 
       -2.08411763989405        4.25557283682079       -3.77403970273189      O 
       -1.14133122328353        2.72224977917291       -4.32391921683864      H 
       -0.28703674945529        3.81617885770907        2.16017395177864      H 
        2.44661933546732       -1.46300238775354        3.42239465185506      O 
        3.33318543721415       -2.66781988128055        4.44100307055326      H 
        3.78474036889931        1.07224126400909       -0.91140273955819      O 
        3.56054508502616        0.05227324988423        0.60532703665109      H 
        3.02048773146325        2.68550451527705       -0.53978176729742      H 
        0.05504603228151       -0.15802897278117       -4.02803983186104      O 
        1.64763902213599        0.14456489056564       -3.09630156445105      H 
       -1.25281949670997       -0.27220302135184       -2.73366129830648      H 
        0.08067302813105        2.71619458649320        4.86669105962671      O 
        1.23030310594376        3.74218112209618        5.82326847961344      H 
        0.95406211412434        1.10584153082232        4.50430171893147      H 
        0.28950732654810       -5.37639943005568       -3.60256705946628      O 
        0.18968090333651       -3.63798640694560       -4.19503936177488      H 
        1.72820870744322       -6.11411285045458       -4.41650725510893      H 
       -1.43788530917971       -3.63259383891219        1.41496338489284      N 
       -2.52969429445380       -2.13096864539825        0.91529765893040      H 
       -0.95406248209994       -4.56585159502453       -0.19756568401921      H 
        0.92357821676503       -2.40093983901496        2.65010153381647      H 
       -2.51471482650072       -4.80684225878084        2.47174951853417      H 
$end
 
 Bond Distances (Angstroems)
 ---------------------------
S1-O2=1.4130         S1-O3=1.4443         S1-O4=1.5679         S1-O5=1.5450         O2-S1=1.4130         O3-S1=1.4443         
O4-S1=1.5679         O4-H7=1.0099         O5-S1=1.5450         O5-H6=0.9960         H6-O5=0.9960         H7-O4=1.0099         
O8-H9=0.9577         O8-H25=1.0310        H9-O8=0.9577         O10-H11=0.9745       O10-H12=0.9649       H11-O10=0.9745       
H12-O10=0.9649       O13-H14=0.9894       O13-H15=0.9756       H14-O13=0.9894       H15-O13=0.9756       O16-H17=0.9597       
O16-H18=0.9882       H17-O16=0.9597       H18-O16=0.9882       O19-H20=0.9733       O19-H21=0.9579       H20-O19=0.9733       
H21-O19=0.9579       N22-H23=1.0174       N22-H24=1.0186       N22-H26=1.0117       H23-N22=1.0174       H24-N22=1.0186       
H25-O8=1.0310        H26-N22=1.0117       
 N  H  Rav=1.0159 sigma=0.0030  Rmin=1.0117  Rmax=1.0186     3
 O  H  Rav=0.9815 sigma=0.0216  Rmin=0.9577  Rmax=1.0310    12
 S  O  Rav=1.4925 sigma=0.0653  Rmin=1.4130  Rmax=1.5679     4
 
 selected bond angles (degree)
 --------------------
O3-S1-O2=117.71                O4-S1-O2=110.76                O4-S1-O3=106.90                O5-S1-O2=110.69                
O5-S1-O3=109.05                O5-S1-O4=100.26                H7-O4-S1=109.84                H6-O5-S1=106.33                
H25-O8-H9=106.59               H12-O10-H11=105.73             
 
 selected dihedral angles (degree)
 ---------------------------------
H7-O4-S1-O2= 74.79            H7-O4-S1-O3=305.38            H7-O4-S1-O5=191.70            H6-O5-S1-O2=194.50            
H6-O5-S1-O3=325.52            H6-O5-S1-O4= 77.54            
 
 CMA Distance (Angstroems)
 ---------------------------
R(CMA):  3.2784

========================================================================
 FINAL SINGLEPOINT CALCULATION ON OPTIMIZED GEOMETRY
========================================================================

 Ncao       : 65
 Nao        : 64
 Nshell     : 38
 Nel        : 80
 T(el)      :   300.0
 intcut     :    25.0
 scfconv/Eh :  0.100E-05
   qconv/e  :  0.100E-03
 intneglect :  0.100E-07
 broydamp   :      0.250
 iter      E             dE          RMSdq      gap      omega  full diag
   1    -50.7332332 -0.507332E+02  0.316E-05    7.97       0.0  T
   2    -50.7332332 -0.660805E-12  0.194E-05    7.97    1011.2  T
   3    -50.7332332 -0.248690E-12  0.326E-06    7.97    6022.6  T
speedup  1.07
cpu  time for SCC    0.00 s
wall time for SCC    0.00 s

   *** convergence criteria satisfied after 3 iterations ***

          eigenvalues
 #    :          28         29         30         31         32         33         34         35
 occ. :        2.000      2.000      2.000      2.000      2.000      2.000      2.000      2.000
 eps  :       -13.704    -13.587    -13.248    -12.820    -12.800    -12.739    -12.575    -12.479
 #    :          36         37         38         39         40         41         42         43
 occ. :        2.000      2.000      2.000      2.000      2.000      0.000      0.000      0.000
 eps  :       -12.328    -12.243    -12.140    -11.938    -11.207     -3.242     -0.963     -0.778
 #    :          44         45         46         47         48         49         50         51
 occ. :        0.000      0.000      0.000      0.000      0.000      0.000      0.000      0.000
 eps  :        -0.182      0.888      1.121      1.963      2.496      3.481      3.866      5.020


   #   Z            q   n(s)   n(p)   n(d)      C6AA      α(0)
   1  16 S      1.697  1.582  1.777  0.943    88.833    15.863
   2   8 O     -0.635  1.751  4.883  0.000    26.981     6.964
   3   8 O     -0.719  1.761  4.958  0.000    29.240     7.250
   4   8 O     -0.637  1.757  4.879  0.000    26.050     6.890
   5   8 O     -0.590  1.753  4.837  0.000    24.911     6.738
   6   1 H      0.390  0.610  0.000  0.000     0.499     1.108
   7   1 H      0.389  0.611  0.000  0.000     0.502     1.112
   8   8 O     -0.646  1.757  4.890  0.000    26.334     6.925
   9   1 H      0.281  0.719  0.000  0.000     0.782     1.389
  10   8 O     -0.618  1.753  4.864  0.000    25.616     6.831
  11   1 H      0.325  0.675  0.000  0.000     0.651     1.268
  12   1 H      0.303  0.697  0.000  0.000     0.712     1.326
  13   8 O     -0.647  1.768  4.879  0.000    26.354     6.928
  14   1 H      0.337  0.663  0.000  0.000     0.621     1.238
  15   1 H      0.321  0.679  0.000  0.000     0.663     1.279
  16   8 O     -0.605  1.757  4.847  0.000    25.293     6.788
  17   1 H      0.300  0.700  0.000  0.000     0.722     1.334
  18   1 H      0.346  0.654  0.000  0.000     0.597     1.214
  19   8 O     -0.607  1.744  4.863  0.000    25.358     6.797
  20   1 H      0.316  0.684  0.000  0.000     0.675     1.291
  21   1 H      0.277  0.723  0.000  0.000     0.794     1.399
  22   7 N     -0.455  1.364  4.091  0.000    31.961     8.396
  23   1 H      0.193  0.807  0.000  0.000     1.142     1.674
  24   1 H      0.203  0.797  0.000  0.000     1.089     1.635
  25   1 H      0.326  0.674  0.000  0.000     0.642     1.255
  26   1 H      0.156  0.844  0.000  0.000     1.361     1.827

 Mol. C6AA /au·bohr⁶  :       5445.600845
 Mol. C8AA /au·bohr⁸  :     117587.637012
 Mol. α(0) /au        :        106.719221

 
 Wiberg/Mayer (AO) data. WBOs > 0.1 written file <wbo>
 largest (>0.05) Wiberg bond orders for each atom
           total WBO             WBO to atom ...
     1  S   4.839    O    2 1.512    O    3 1.342    O    5 1.009    O    4 0.945
     2  O   1.823    S    1 1.512    O    3 0.125    O    4 0.093    O    5 0.079
     3  O   1.735    S    1 1.342    O    2 0.125    O    4 0.089    O    5 0.088
     4  O   1.952    S    1 0.945    H    7 0.699    O    2 0.093    O    3 0.089    O    5 0.051
     5  O   2.004    S    1 1.009    H    6 0.730    O    3 0.088    O    2 0.079    O    4 0.051
     6  H   0.848    O    5 0.730    O   13 0.098
     7  H   0.848    O    4 0.699    O   16 0.132
     8  O   1.877    H    9 0.911    H   25 0.728    H   18 0.073    N   22 0.068
     9  H   0.921    O    8 0.911
    10  O   1.881    H   12 0.888    H   11 0.849    H   14 0.074
    11  H   0.895    O   10 0.849
    12  H   0.908    O   10 0.888
    13  O   1.912    H   15 0.844    H   14 0.811    H    6 0.098
    14  H   0.887    O   13 0.811    O   10 0.074
    15  H   0.897    O   13 0.844
    16  O   1.932    H   17 0.908    H   18 0.805    H    7 0.132
    17  H   0.910    O   16 0.908
    18  H   0.880    O   16 0.805    O    8 0.073
    19  O   1.833    H   21 0.919    H   20 0.858
    20  H   0.900    O   19 0.858
    21  H   0.923    O   19 0.919
    22  N   3.114    H   26 0.971    H   23 0.942    H   24 0.934    H   25 0.165    O    8 0.068
    23  H   0.963    N   22 0.942
    24  H   0.959    N   22 0.934
    25  H   0.894    O    8 0.728    N   22 0.165
    26  H   0.976    N   22 0.971
 MOs/occ written to file <molden.input>
 
molecular dipole:
                 x           y           z       tot (Debye)
 q only:        1.500      -1.149       1.128
   full:        1.641      -1.318       1.339       6.340
molecular quadrupole (traceless):
                xx          xy          yy          xz          yz          zz
 q only:       -6.873       8.144      -3.775       3.494       1.236      10.649
  q+dip:       -8.070       9.597      -3.120       5.286       1.376      11.190
   full:       -8.277       9.331      -3.138       5.221       1.337      11.415

SCC energy    :     -50.7332332
rep           :       0.2909265
ES            :       0.2352504
AES           :      -0.0503472
AXC           :      -0.0071807
disp          :      -0.0184053
XB            :       0.0000000
fix           :       0.0000000
total E       :     -50.4419455
atomizationE  :       4.9722496     3120.13
(atE without considering molecular charge,
 total energy contains solvation terms)
H-L gap (eV)  :          7.9650
optimized geometry written to: xtbopt.xyz


------------------------------------------------------------------------
 * finished run on 2019/09/16 at 12:58:15.765     
------------------------------------------------------------------------
 total:
 * wall-time:     0 d,  0 h,  0 min,  3.787 sec
 *  cpu-time:     0 d,  0 h,  0 min,  3.519 sec
 * ratio c/w:     0.929 speedup
 SCF:
 * wall-time:     0 d,  0 h,  0 min,  0.145 sec
 *  cpu-time:     0 d,  0 h,  0 min,  0.142 sec
 * ratio c/w:     0.978 speedup
 ANC optimizer:
 * wall-time:     0 d,  0 h,  0 min,  3.615 sec
 *  cpu-time:     0 d,  0 h,  0 min,  3.355 sec
 * ratio c/w:     0.928 speedup

