      -----------------------------------------------------------      
     |                   =====================                   |     
     |                           x T B                           |     
     |                   =====================                   |     
     |                         S. Grimme                         |     
     |          Mulliken Center for Theoretical Chemistry        |     
     |                    University of Bonn                     |     
     |                 Version 6.0.1 (SAW181210)                 |     
      -----------------------------------------------------------      

   This program is distributed in the hope that it will be useful,
   but WITHOUT ANY WARRANTY; without even the implied warranty of
   MERCHANTABILITY or FITNESS FOR A PARTICULAR PURPOSE.
   
   FOR NON-COMMERCIAL, ACADEMIA USE ONLY.
   
   Cite this work as:
   S. Grimme, C. Bannwarth, P. Shushkov, J. Comput. Theory Chem., 2017,
   13, 1989-2009.
   C. Bannwarth, S. Ehlert and S. Grimme., ChemRxiv, 2018, preprint.
   http://doi.org/10.26434/chemrxiv.7246238.v1
   
   for sTDA-xTB:
   S. Grimme and C. Bannwarth, J. Chem. Phys., 2016, 145, 054103.
   
   in the mass-spec context:
   V. Asgeirsson, C. Bauer and S. Grimme, Chem. Sci., 2017, 8, 4879.
   
   if GBSA is used:
   P. Shushkov, F. März and S. Grimme, unpublished.
   
   for ANC optimizer:
   S. Grimme, unpublished.
   Rational Function algorithm used in ANCopt:
   F. Eckert, P. Pulay, H.-J. Werner, J. Comput. Chem., 1997, 18, 1473.
   
   with help from (in alphabetical order)
   C. Bannwarth, F. Bohle, G. Brandenburg, E. Caldeweyher, M. Checinski,
   S. Dohm, S. Ehlert, S. Ehrlich, F. März, H. Neugebauer, J. Pisarek,
   P. Pracht, P. Shushkov, and S. Spicher.
   
 * started run on 2019/09/16 at 11:15:58.719     
========================================================================
 # omp threads = 1
========================================================================
number of atoms            : 26
number of electrons        : 80
charge                     : 0
spin                       : .0
first test random number   : .3663

########################################################################
# WARNING! Please study the warnings concerning your input carefully
#  - XTBPATH is not set, using XTBHOME instead
#  - the use of '-opt' is discouraged, please use '--opt' next time
#  - the use of '-chrg' is discouraged, please use '--chrg' next time
#  - the use of '-uhf' is discouraged, please use '--uhf' next time
########################################################################

           ------------------------------------------------- 
          |                 G F N 2 - x T B                 |
          | Geometry, Frequencies, Noncovalent interactions |
          |            JCTC 2018 parametrisation            |
           ------------------------------------------------- 
      method parameters     
 k(s)        :  1.8500
 k(p)        :  2.2300
 k(d)        :  2.2300
 k(f)        :  2.0000
 kEN (H0ij)  : -2.0000
 D4 a1       :  0.5200
 D4 a2       :  5.0000
 D4 s6       :  1.0000
 D4 s8       :  2.7000
 D4 s9       :  5.0000
 alphaj      :  2.0000


            Z     q(EN)     CN     RAES       Cart. coordinates
     1  S   6.0    0.67    4.15    3.96     0.56572    -0.20596     2.02668
     2  O   6.0   -0.33    1.24    1.80     2.71363     1.55750     1.57407
     3  O   6.0   -0.32    1.17    1.80     1.32641    -2.81765     1.29970
     4  O   6.0   -0.30    1.19    1.80    -0.13069    -0.15621     4.75443
     5  O   6.0   -0.33    1.24    1.80    -1.64645     0.59254     0.47851
     6  O   6.0   -0.36    1.56    1.80     2.55809     0.66536    -5.63105
     7  H   1.0    0.17    0.94    1.42     2.75963     0.47557    -7.47688
     8  O   6.0   -0.29    2.03    1.83     2.30808     6.18639    -0.39832
     9  H   1.0    0.15    0.97    1.43     2.93707     7.56426     0.61186
    10  H   1.0    0.17    1.04    1.43     2.62570     4.68598     0.58276
    11  O   6.0   -0.22    2.93    2.60    -2.17916    -4.60195     4.69878
    12  H   1.0    0.13    0.98    1.43    -0.90029    -5.30871     3.53482
    13  H   1.0    0.15    1.05    1.44    -1.58016    -3.04175     5.53363
    14  H   1.0    0.12    1.05    1.44    -3.82947    -4.35512     3.85792
    15  O   6.0   -0.22    2.93    2.62     4.75197    -1.15851    -2.14775
    16  H   1.0    0.14    1.02    1.43     4.89674     0.18443    -0.85725
    17  H   1.0    0.14    1.00    1.43     3.81270    -2.64281    -1.51162
    18  H   1.0    0.16    1.22    1.47     4.03868    -0.51443    -3.75021
    19  O   6.0   -0.22    2.92    2.59    -0.35000     3.33076    -3.41706
    20  H   1.0    0.16    1.22    1.47     0.73916     2.29257    -4.52420
    21  H   1.0    0.15    1.06    1.44    -1.24952     2.29501    -2.14896
    22  H   1.0    0.14    1.04    1.43     0.59349     4.73754    -2.62820
    23  N   5.0   -0.22    3.03    1.93    -5.96567    -2.81606     1.74086
    24  H   1.0    0.11    0.99    1.43    -7.43749    -1.83819     2.50806
    25  H   1.0    0.10    0.99    1.43    -6.65590    -3.62540     0.13475
    26  H   1.0    0.13    1.02    1.43    -4.70227    -1.48516     1.15470

  Z AO/shell   Hii/eV     exponent
  1     Wed Apr 25 08:07:45 CEST 2018   EN: 2.200 GM2: 0.406  GM3: 0.0800  RAES: 1.40
     1s    -10.707211    1.230000
  7     Wed Apr 25 08:07:45 CEST 2018   EN: 3.040 GM2: 0.461  GM3:-0.0640  RAES: 1.90
     2s    -16.686243    2.339881
     2p    -12.523956    2.014332
  8     Wed Apr 25 08:07:45 CEST 2018   EN: 3.440 GM2: 0.452  GM3:-0.0517  RAES: 1.80
     2s    -20.229985    2.439742
     2p    -15.503117    2.137023
 16     Tue Apr 24 11:44:34 CEST 2018   EN: 2.580 GM2: 0.340  GM3:-0.0502  RAES: 3.10
     3s    -20.029654    1.981333
     3p    -11.377694    2.025643
     3d     -0.420282    1.702555
 no old-style atom pair restraining (fixing) potential

molecular fragmentation (1/2 indicates fragments):
11111222222222222222222222
# atoms in fragment 1/2:     5    21
 fragment masses (1/2) :       96.06      109.12
CMA distance (Bohr)    :   2.920
constraining FC (au)   :  0.0500
           ------------------------------------------------- 
          |        Self-Consistent Charge Iterations        |
           ------------------------------------------------- 

 Ncao       : 65
 Nao        : 64
 Nshell     : 38
 Nel        : 80
 T(el)      :   300.0
 intcut     :    25.0
 scfconv/Eh :  0.100E-05
   qconv/e  :  0.100E-03
 intneglect :  0.100E-07
 broydamp   :      0.250
 iter      E             dE          RMSdq      gap      omega  full diag
   1    -50.5294179 -0.505294E+02  0.703E+00   10.21       0.0  T
   2    -50.5705482 -0.411303E-01  0.505E+00    9.98       1.0  T
   3    -50.6053856 -0.348373E-01  0.111E+00    6.73       1.0  T
   4    -50.6098518 -0.446627E-02  0.539E-01    7.16       1.0  T
   5    -50.6105850 -0.733145E-03  0.237E-01    7.21       1.0  T
   6    -50.6108378 -0.252862E-03  0.121E-01    7.30       1.0  T
   7    -50.6109267 -0.888180E-04  0.442E-02    7.33       1.0  T
   8    -50.6109350 -0.835534E-05  0.277E-02    7.33       1.0  T
   9    -50.6109394 -0.442725E-05  0.100E-02    7.34       2.0  T
  10    -50.6109399 -0.467977E-06  0.202E-03    7.35       9.7  T
  11    -50.6109399 -0.140642E-07  0.107E-03    7.35      18.4  T
  12    -50.6109399 -0.390553E-08  0.325E-04    7.35      60.3  T
  13    -50.6109399 -0.461348E-09  0.834E-05    7.35     235.0  T
speedup  1.03
cpu  time for SCC    0.01 s
wall time for SCC    0.01 s

   *** convergence criteria satisfied after 13 iterations ***

          eigenvalues
 #    :          28         29         30         31         32         33         34         35
 occ. :        2.000      2.000      2.000      2.000      2.000      2.000      2.000      2.000
 eps  :       -11.920    -11.707    -11.696    -10.996    -10.852    -10.262    -10.135    -10.089
 #    :          36         37         38         39         40         41         42         43
 occ. :        2.000      2.000      2.000      2.000      2.000      0.000      0.000      0.000
 eps  :        -9.968     -9.866     -9.753     -9.612     -9.049     -1.699     -0.588      0.604
 #    :          44         45         46         47         48         49         50         51
 occ. :        0.000      0.000      0.000      0.000      0.000      0.000      0.000      0.000
 eps  :         0.917      1.567      2.218      2.488      2.668      3.710      4.833      5.261


   #   Z            q   n(s)   n(p)   n(d)      C6AA      α(0)
   1  16 S      1.497  1.609  1.903  0.991    93.537    16.278
   2   8 O     -0.792  1.776  5.016  0.000    31.350     7.507
   3   8 O     -0.822  1.780  5.042  0.000    32.258     7.615
   4   8 O     -0.787  1.784  5.003  0.000    31.208     7.490
   5   8 O     -0.800  1.781  5.019  0.000    31.580     7.534
   6   8 O     -0.878  1.818  5.060  0.000    33.945     7.815
   7   1 H      0.189  0.811  0.000  0.000     1.176     1.704
   8   8 O     -0.619  1.730  4.888  0.000    25.641     6.834
   9   1 H      0.282  0.718  0.000  0.000     0.777     1.384
  10   1 H      0.335  0.665  0.000  0.000     0.626     1.242
  11   8 O     -0.387  1.625  4.762  0.000    20.544     6.122
  12   1 H      0.406  0.594  0.000  0.000     0.474     1.081
  13   1 H      0.419  0.581  0.000  0.000     0.452     1.056
  14   1 H      0.398  0.602  0.000  0.000     0.488     1.097
  15   8 O     -0.420  1.645  4.775  0.000    21.182     6.216
  16   1 H      0.394  0.606  0.000  0.000     0.496     1.106
  17   1 H      0.386  0.614  0.000  0.000     0.511     1.123
  18   1 H      0.411  0.589  0.000  0.000     0.457     1.058
  19   8 O     -0.452  1.657  4.795  0.000    21.837     6.311
  20   1 H      0.404  0.596  0.000  0.000     0.471     1.074
  21   1 H      0.392  0.608  0.000  0.000     0.500     1.111
  22   1 H      0.396  0.604  0.000  0.000     0.493     1.103
  23   7 N     -0.465  1.382  4.083  0.000    32.263     8.436
  24   1 H      0.153  0.847  0.000  0.000     1.378     1.839
  25   1 H      0.153  0.847  0.000  0.000     1.381     1.841
  26   1 H      0.207  0.793  0.000  0.000     1.071     1.622

 Mol. C6AA /au·bohr⁶  :       5561.814848
 Mol. C8AA /au·bohr⁸  :     120840.782331
 Mol. α(0) /au        :        107.598882

 
 Wiberg/Mayer (AO) data. WBOs > 0.1 written file <wbo>
 largest (>0.05) Wiberg bond orders for each atom
           total WBO             WBO to atom ...
     1  S   4.991    O    4 1.259    O    3 1.242    O    2 1.240    O    5 1.218
     2  O   1.671    S    1 1.240    O    5 0.096    O    3 0.093    O    4 0.087    H   10 0.056    H   16 0.051
     3  O   1.619    S    1 1.242    O    4 0.099    O    5 0.096    O    2 0.093
     4  O   1.671    S    1 1.259    O    3 0.099    O    5 0.093    H   13 0.089    O    2 0.087
     5  O   1.668    S    1 1.218    O    3 0.096    O    2 0.096    O    4 0.093    H   21 0.089
     6  O   1.508    H    7 0.949    H   18 0.214    H   20 0.204    O   15 0.063    O   19 0.062
     7  H   0.964    O    6 0.949
     8  O   1.844    H    9 0.906    H   10 0.829    H   22 0.059
     9  H   0.920    O    8 0.906
    10  H   0.888    O    8 0.829    O    2 0.056
    11  O   2.356    H   12 0.804    H   14 0.739    H   13 0.727
    12  H   0.835    O   11 0.804
    13  H   0.824    O   11 0.727    O    4 0.089
    14  H   0.841    O   11 0.739    N   23 0.097
    15  O   2.313    H   17 0.808    H   16 0.786    H   18 0.610    O    6 0.063
    16  H   0.845    O   15 0.786    O    2 0.051
    17  H   0.851    O   15 0.808
    18  H   0.831    O   15 0.610    O    6 0.214
    19  O   2.288    H   22 0.776    H   21 0.748    H   20 0.628    O    6 0.062
    20  H   0.837    O   19 0.628    O    6 0.204
    21  H   0.847    O   19 0.748    O    5 0.089
    22  H   0.843    O   19 0.776    O    8 0.059
    23  N   3.029    H   24 0.973    H   25 0.973    H   26 0.926    H   14 0.097
    24  H   0.976    N   23 0.973
    25  H   0.977    N   23 0.973
    26  H   0.957    N   23 0.926
 MOs/occ written to file <molden.input>
 
molecular dipole:
                 x           y           z       tot (Debye)
 q only:       -1.215      -1.898       0.317
   full:       -1.262      -1.529       0.225       5.071
molecular quadrupole (traceless):
                xx          xy          yy          xz          yz          zz
 q only:        4.841       8.823      12.378      -7.636     -14.039     -17.219
  q+dip:        7.161       9.249      10.055      -4.966      -7.308     -17.217
   full:        6.872       9.290      10.098      -5.010      -7.031     -16.971

SCC energy    :     -50.6109399
rep           :       0.2762387
ES            :       0.3709828
AES           :      -0.0794078
AXC           :      -0.0084975
disp          :      -0.0184826
XB            :       0.0000000
fix           :       0.0000000
total E       :     -50.3344959
atomizationE  :       4.8648001     3052.71
(atE without considering molecular charge,
 total energy contains solvation terms)
H-L gap (eV)  :          7.3503
           ------------------------------------------------- 
          |                 ===============                 |
          |                   A N C O P T                   |
          |                 ===============                 |
          |          Approximate Normal Coordinate          |
          |           Rational Function Optimizer           |
           ------------------------------------------------- 
dumping coords to <xtbopt.coord> and <xtbopt.log>
 optlevel               2
 Maxcycle             520
 Maxmicro              25
 Econv         1.000000000000000E-007
 Gconv         2.000000000000000E-004
 Maxdispl       1.00000000000000     
 Hlow          5.000000000000000E-003
 S6             20.0000000000000     
 Nvar               72

generating ANC from model Hessian ...
 Shifting diagonal of input Hessian by   4.998990217821702E-003
 Lowest  eigenvalues of input Hessian
   -0.000000   -0.000000   -0.000000   -0.000000    0.000000    0.000000
    0.005000    0.005042    0.005235    0.005817    0.006151    0.006434
    0.006899    0.007064    0.007531    0.007888    0.007999    0.008568
 Highest eigenvalues
    1.557686    1.587109    1.590033    3.077241    3.080152    3.083979
 
cpu  time for ANC gen    0.01 s
wall time for ANC gen    0.01 s
................................................................................
.............................. CYCLE    1 ......................................
................................................................................
   1    -50.6109399 -0.506109E+02  0.350E-05    7.35       0.0  T
   2    -50.6109399 -0.385825E-11  0.249E-05    7.35     786.8  T
   3    -50.6109399 -0.185452E-11  0.117E-05    7.35    1678.0  T
speedup  0.74
cpu  time for SCC    0.00 s
wall time for SCC    0.00 s
speedup  1.01
cpu  time for grad    0.01 s
wall time for grad    0.01 s
 E :    -50.33449587  G :  0.180778    pred/act E change:  0.000D+00  0.152D-07
Maxdispl :   0.2389   ||displ|| :   0.4946   Lambda : -0.488D-01
Largest |displ|/coords:  0.2389 (  24)  0.1783 (  25)  0.1286 (  31)
................................................................................
.............................. CYCLE    2 ......................................
................................................................................
   1    -50.6308308 -0.506308E+02  0.388E-01    7.70       0.0  T
   2    -50.6311737 -0.342988E-03  0.290E-01    7.83       1.0  T
   3    -50.6313360 -0.162293E-03  0.863E-02    8.09       1.0  T
   4    -50.6313627 -0.266791E-04  0.285E-02    8.07       1.0  T
   5    -50.6313646 -0.188707E-05  0.841E-03    8.05       2.3  T
   6    -50.6313648 -0.156318E-06  0.469E-03    8.05       4.2  T
   7    -50.6313648 -0.814870E-07  0.191E-03    8.05      10.3  T
speedup  0.98
cpu  time for SCC    0.01 s
wall time for SCC    0.01 s
speedup  1.01
cpu  time for grad    0.01 s
wall time for grad    0.01 s
 E :    -50.37654154  G :  0.116132    pred/act E change:  0.000D+00 -0.420D-01
Maxdispl :   0.2946   ||displ|| :   0.5733   Lambda : -0.346D-01
Largest |displ|/coords:  0.2946 (  24)  0.2048 (  25)  0.1630 (  31)
................................................................................
.............................. CYCLE    3 ......................................
................................................................................
   1    -50.6453096 -0.506453E+02  0.387E-01    8.18       0.0  T
   2    -50.6460416 -0.732016E-03  0.281E-01    8.30       1.0  T
   3    -50.6463682 -0.326670E-03  0.119E-01    8.48       1.0  T
   4    -50.6463879 -0.196953E-04  0.372E-02    8.48       1.0  T
   5    -50.6463902 -0.224860E-05  0.110E-02    8.47       1.8  T
   6    -50.6463905 -0.292445E-06  0.613E-03    8.47       3.2  T
   7    -50.6463906 -0.155800E-06  0.259E-03    8.47       7.6  T
   8    -50.6463907 -0.405804E-07  0.791E-04    8.47      24.8  T
speedup  1.00
cpu  time for SCC    0.01 s
wall time for SCC    0.01 s
speedup  0.95
cpu  time for grad    0.01 s
wall time for grad    0.01 s
 E :    -50.40558201  G :  0.081125    pred/act E change: -0.304D-01 -0.290D-01
Maxdispl :   0.2798   ||displ|| :   0.5674   Lambda : -0.208D-01
Largest |displ|/coords:  0.2798 (  24)  0.2073 (  21)  0.1715 (   6)
................................................................................
.............................. CYCLE    4 ......................................
................................................................................
   1    -50.6550616 -0.506551E+02  0.383E-01    8.58       0.0  T
   2    -50.6561284 -0.106673E-02  0.267E-01    8.68       1.0  T
   3    -50.6565840 -0.455688E-03  0.131E-01    8.81       1.0  T
   4    -50.6566024 -0.183599E-04  0.439E-02    8.82       1.0  T
   5    -50.6566056 -0.317911E-05  0.130E-02    8.81       1.5  T
   6    -50.6566060 -0.378815E-06  0.697E-03    8.81       2.8  T
   7    -50.6566061 -0.181931E-06  0.282E-03    8.81       7.0  T
   8    -50.6566062 -0.447727E-07  0.103E-03    8.81      19.0  T
speedup  1.00
cpu  time for SCC    0.01 s
wall time for SCC    0.01 s
speedup  0.95
cpu  time for grad    0.01 s
wall time for grad    0.01 s
 E :    -50.42106975  G :  0.063421    pred/act E change: -0.230D-01 -0.155D-01
Maxdispl :   0.2054   ||displ|| :   0.4283   Lambda : -0.849D-02
Largest |displ|/coords:  0.2054 (   6)  0.1511 (  21)  0.1365 (  11)
................................................................................
.............................. CYCLE    5 ......................................
................................................................................
   1    -50.6613704 -0.506614E+02  0.323E-01    9.01       0.0  T
   2    -50.6617979 -0.427516E-03  0.229E-01    9.13       1.0  T
   3    -50.6619821 -0.184228E-03  0.920E-02    9.33       1.0  T
   4    -50.6619956 -0.134645E-04  0.270E-02    9.33       1.0  T
   5    -50.6619976 -0.194509E-05  0.717E-03    9.32       2.7  T
   6    -50.6619977 -0.963743E-07  0.431E-03    9.32       4.6  T
   7    -50.6619977 -0.560793E-07  0.157E-03    9.32      12.5  T
speedup  1.00
cpu  time for SCC    0.01 s
wall time for SCC    0.01 s
speedup  1.01
cpu  time for grad    0.01 s
wall time for grad    0.01 s
 E :    -50.42751860  G :  0.051277    pred/act E change: -0.137D-01 -0.645D-02
Maxdispl :   0.1741   ||displ|| :   0.3739   Lambda : -0.545D-02
Largest |displ|/coords:  0.1741 (  11)  0.1566 (  14)  0.1109 (   6)
................................................................................
.............................. CYCLE    6 ......................................
................................................................................
   1    -50.6641926 -0.506642E+02  0.396E-01    9.46       0.0  T
   2    -50.6645806 -0.388049E-03  0.285E-01    9.49       1.0  T
   3    -50.6647496 -0.168952E-03  0.945E-02    9.50       1.0  T
   4    -50.6647750 -0.254235E-04  0.135E-02    9.50       1.5  T
   5    -50.6647755 -0.494985E-06  0.679E-03    9.50       2.9  T
   6    -50.6647755 -0.746845E-07  0.380E-03    9.50       5.2  T
   7    -50.6647756 -0.229277E-07  0.994E-04    9.50      19.7  T
speedup  0.98
cpu  time for SCC    0.01 s
wall time for SCC    0.01 s
speedup  0.92
cpu  time for grad    0.01 s
wall time for grad    0.01 s
 E :    -50.43115570  G :  0.062872    pred/act E change: -0.502D-02 -0.364D-02
Maxdispl :   0.1626   ||displ|| :   0.3487   Lambda : -0.729D-02
Largest |displ|/coords:  0.1626 (   1)  0.1252 (  14)  0.1188 (   7)
................................................................................
.............................. CYCLE    7 ......................................
................................................................................
   1    -50.6793128 -0.506793E+02  0.410E-01    9.64       0.0  T
   2    -50.6794047 -0.918619E-04  0.310E-01    9.63       1.0  T
   3    -50.6794736 -0.689157E-04  0.494E-02    9.61       1.0  T
   4    -50.6794838 -0.102462E-04  0.175E-02    9.62       1.1  T
   5    -50.6794845 -0.677651E-06  0.535E-03    9.62       3.7  T
   6    -50.6794846 -0.343877E-07  0.257E-03    9.62       7.6  T
speedup  0.98
cpu  time for SCC    0.00 s
wall time for SCC    0.01 s
speedup  1.00
cpu  time for grad    0.01 s
wall time for grad    0.01 s
 E :    -50.43272773  G :  0.054797    pred/act E change: -0.311D-02 -0.157D-02
Maxdispl :   0.1463   ||displ|| :   0.3591   Lambda : -0.580D-02
Largest |displ|/coords:  0.1463 (  12)  0.1455 (  11)  0.1365 (  10)
................................................................................
.............................. CYCLE    8 ......................................
................................................................................
   1    -50.6763652 -0.506764E+02  0.522E-01    9.55       0.0  T
   2    -50.6766723 -0.307096E-03  0.386E-01    9.55       1.0  T
   3    -50.6768227 -0.150363E-03  0.944E-02    9.53       1.0  T
   4    -50.6768592 -0.364824E-04  0.186E-02    9.53       1.1  T
   5    -50.6768599 -0.685468E-06  0.720E-03    9.54       2.7  T
   6    -50.6768600 -0.140808E-06  0.455E-03    9.54       4.3  T
   7    -50.6768600 -0.264743E-07  0.845E-04    9.54      23.2  T
speedup  1.00
cpu  time for SCC    0.01 s
wall time for SCC    0.01 s
speedup  1.01
cpu  time for grad    0.01 s
wall time for grad    0.01 s
 E :    -50.43579666  G :  0.052210    pred/act E change: -0.409D-02 -0.307D-02
Maxdispl :   0.1517   ||displ|| :   0.3282   Lambda : -0.512D-02
Largest |displ|/coords:  0.1517 (  12)  0.1300 (  13)  0.1297 (   1)
................................................................................
.............................. CYCLE    9 ......................................
................................................................................
   1    -50.6830389 -0.506830E+02  0.433E-01    9.59       0.0  T
   2    -50.6831811 -0.142151E-03  0.325E-01    9.57       1.0  T
   3    -50.6832596 -0.785254E-04  0.641E-02    9.51       1.0  T
   4    -50.6832811 -0.215087E-04  0.163E-02    9.52       1.2  T
   5    -50.6832815 -0.424040E-06  0.637E-03    9.52       3.1  T
   6    -50.6832816 -0.376144E-07  0.337E-03    9.52       5.8  T
   7    -50.6832816 -0.182238E-07  0.779E-04    9.53      25.2  T
speedup  1.00
cpu  time for SCC    0.01 s
wall time for SCC    0.01 s
speedup  0.94
cpu  time for grad    0.01 s
wall time for grad    0.01 s
 E :    -50.43637981  G :  0.047149    pred/act E change: -0.327D-02 -0.583D-03
Maxdispl :   0.0926   ||displ|| :   0.2187   Lambda : -0.403D-02
Largest |displ|/coords:  0.0926 (  11)  0.0688 (  13)  0.0609 (  12)
................................................................................
.............................. CYCLE   10 ......................................
................................................................................
   1    -50.6894583 -0.506895E+02  0.243E-01    9.53       0.0  T
   2    -50.6895557 -0.973361E-04  0.178E-01    9.51       1.0  T
   3    -50.6896023 -0.466626E-04  0.524E-02    9.48       1.0  T
   4    -50.6896106 -0.822627E-05  0.145E-02    9.48       1.4  T
   5    -50.6896111 -0.553028E-06  0.350E-03    9.48       5.6  T
   6    -50.6896111 -0.151053E-07  0.221E-03    9.48       8.9  T
speedup  0.98
cpu  time for SCC    0.01 s
wall time for SCC    0.01 s
speedup  1.00
cpu  time for grad    0.01 s
wall time for grad    0.01 s
 E :    -50.43937245  G :  0.030921    pred/act E change: -0.284D-02 -0.299D-02
Maxdispl :   0.2289   ||displ|| :   0.5296   Lambda : -0.694D-02
Largest |displ|/coords:  0.2289 (   7)  0.2047 (  10)  0.1847 (  11)
................................................................................
.............................. CYCLE   11 ......................................
................................................................................
   1    -50.6798243 -0.506798E+02  0.697E-01    9.02       0.0  T
   2    -50.6810333 -0.120897E-02  0.493E-01    8.90       1.0  T
   3    -50.6815079 -0.474587E-03  0.175E-01    8.69       1.0  T
   4    -50.6815784 -0.704964E-04  0.378E-02    8.67       1.0  T
   5    -50.6815808 -0.239163E-05  0.148E-02    8.69       1.3  T
   6    -50.6815819 -0.115981E-05  0.862E-03    8.68       2.3  T
   7    -50.6815820 -0.817589E-07  0.159E-03    8.69      12.3  T
   8    -50.6815820 -0.101050E-07  0.513E-04    8.69      38.2  T
speedup  0.96
cpu  time for SCC    0.01 s
wall time for SCC    0.01 s
speedup  0.99
cpu  time for grad    0.01 s
wall time for grad    0.02 s
 E :    -50.43742430  G :  0.092653    pred/act E change: -0.211D-02  0.195D-02
Maxdispl :   0.2290   ||displ|| :   0.4684   Lambda : -0.226D-01
Largest |displ|/coords:  0.2290 (   7)  0.1956 (  14)  0.1764 (  10)
................................................................................
.............................. CYCLE   12 ......................................
................................................................................
   1    -50.7103695 -0.507104E+02  0.690E-01    9.25       0.0  T
   2    -50.7108609 -0.491418E-03  0.508E-01    9.25       1.0  T
   3    -50.7111640 -0.303101E-03  0.117E-01    9.27       1.0  T
   4    -50.7112144 -0.504299E-04  0.194E-02    9.26       1.0  T
   5    -50.7112158 -0.136984E-05  0.122E-02    9.26       1.6  T
   6    -50.7112159 -0.124538E-06  0.450E-03    9.26       4.4  T
   7    -50.7112160 -0.668160E-07  0.101E-03    9.26      19.4  T
speedup  1.00
cpu  time for SCC    0.01 s
wall time for SCC    0.01 s
speedup  1.01
cpu  time for grad    0.01 s
wall time for grad    0.01 s
 E :    -50.44057117  G :  0.066778    pred/act E change: -0.444D-02 -0.315D-02
Maxdispl :   0.1208   ||displ|| :   0.3405   Lambda : -0.880D-02
Largest |displ|/coords:  0.1208 (   9)  0.1182 (   7)  0.0951 (  10)
................................................................................
.............................. CYCLE   13 ......................................
................................................................................
   1    -50.6949872 -0.506950E+02  0.417E-01    9.10       0.0  T
   2    -50.6951288 -0.141674E-03  0.309E-01    9.08       1.0  T
   3    -50.6952142 -0.853310E-04  0.644E-02    9.03       1.0  T
   4    -50.6952300 -0.158401E-04  0.123E-02    9.05       1.6  T
   5    -50.6952302 -0.204853E-06  0.587E-03    9.05       3.3  T
   6    -50.6952303 -0.652097E-07  0.274E-03    9.05       7.1  T
speedup  0.94
cpu  time for SCC    0.00 s
wall time for SCC    0.01 s
speedup  0.99
cpu  time for grad    0.01 s
wall time for grad    0.01 s
 E :    -50.44403891  G :  0.048115    pred/act E change: -0.138D-01 -0.347D-02
Maxdispl :   0.1331   ||displ|| :   0.3140   Lambda : -0.516D-02
Largest |displ|/coords:  0.1331 (  13)  0.1245 (   2)  0.1084 (  31)
................................................................................
.............................. CYCLE   14 ......................................
................................................................................
   1    -50.7066982 -0.507067E+02  0.381E-01    8.84       0.0  T
   2    -50.7069500 -0.251849E-03  0.280E-01    8.80       1.0  T
   3    -50.7070863 -0.136264E-03  0.893E-02    8.70       1.0  T
   4    -50.7071092 -0.229344E-04  0.237E-02    8.70       1.0  T
   5    -50.7071102 -0.988370E-06  0.886E-03    8.70       2.2  T
   6    -50.7071103 -0.747732E-07  0.481E-03    8.70       4.1  T
   7    -50.7071103 -0.294816E-07  0.122E-03    8.70      16.1  T
speedup  1.00
cpu  time for SCC    0.01 s
wall time for SCC    0.01 s
speedup  1.01
cpu  time for grad    0.01 s
wall time for grad    0.01 s
 E :    -50.44365048  G :  0.069736    pred/act E change: -0.491D-02  0.388D-03
Maxdispl :   0.1181   ||displ|| :   0.3304   Lambda : -0.117D-01
Largest |displ|/coords:  0.1181 (  31)  0.1072 (  13)  0.1007 (  11)
................................................................................
.............................. CYCLE   15 ......................................
................................................................................
   1    -50.7039609 -0.507040E+02  0.469E-01    8.98       0.0  T
   2    -50.7044038 -0.442936E-03  0.340E-01    9.03       1.0  T
   3    -50.7046420 -0.238159E-03  0.111E-01    9.13       1.0  T
   4    -50.7046747 -0.326758E-04  0.269E-02    9.13       1.0  T
   5    -50.7046760 -0.137611E-05  0.110E-02    9.13       1.8  T
   6    -50.7046762 -0.124867E-06  0.616E-03    9.13       3.2  T
   7    -50.7046762 -0.563592E-07  0.143E-03    9.13      13.7  T
   8    -50.7046762 -0.576041E-08  0.380E-04    9.13      51.7  T
speedup  1.03
cpu  time for SCC    0.01 s
wall time for SCC    0.01 s
speedup  1.01
cpu  time for grad    0.01 s
wall time for grad    0.01 s
 E :    -50.44424536  G :  0.048337    pred/act E change: -0.283D-02 -0.595D-03
Maxdispl :   0.0562   ||displ|| :   0.1646   Lambda : -0.452D-02
Largest |displ|/coords:  0.0562 (  26)  0.0543 (  31)  0.0534 (   2)
................................................................................
.............................. CYCLE   16 ......................................
................................................................................
   1    -50.7081597 -0.507082E+02  0.206E-01    9.04       0.0  T
   2    -50.7082487 -0.890078E-04  0.151E-01    9.01       1.0  T
   3    -50.7082964 -0.477172E-04  0.526E-02    8.94       1.0  T
   4    -50.7083031 -0.672821E-05  0.151E-02    8.94       1.3  T
   5    -50.7083035 -0.407564E-06  0.514E-03    8.94       3.8  T
   6    -50.7083035 -0.274332E-07  0.282E-03    8.94       7.0  T
speedup  0.96
cpu  time for SCC    0.01 s
wall time for SCC    0.01 s
speedup  0.99
cpu  time for grad    0.01 s
wall time for grad    0.01 s
 E :    -50.44742040  G :  0.026005    pred/act E change: -0.648D-02 -0.318D-02
Maxdispl :   0.1237   ||displ|| :   0.2166   Lambda : -0.229D-02
Largest |displ|/coords:  0.1237 (   2)  0.0603 (  26)  0.0586 (   7)
................................................................................
.............................. CYCLE   17 ......................................
................................................................................
   1    -50.7132022 -0.507132E+02  0.182E-01    8.87       0.0  T
   2    -50.7132576 -0.553313E-04  0.136E-01    8.84       1.0  T
   3    -50.7132913 -0.337778E-04  0.421E-02    8.78       1.0  T
   4    -50.7132972 -0.581938E-05  0.121E-02    8.78       1.6  T
   5    -50.7132974 -0.253130E-06  0.479E-03    8.78       4.1  T
   6    -50.7132974 -0.259009E-07  0.248E-03    8.78       7.9  T
speedup  0.96
cpu  time for SCC    0.00 s
wall time for SCC    0.01 s
speedup  1.00
cpu  time for grad    0.01 s
wall time for grad    0.01 s
 E :    -50.44879223  G :  0.036156    pred/act E change: -0.232D-02 -0.137D-02
Maxdispl :   0.0998   ||displ|| :   0.1940   Lambda : -0.176D-02
Largest |displ|/coords:  0.0998 (   2)  0.0628 (  24)  0.0567 (  30)
................................................................................
.............................. CYCLE   18 ......................................
................................................................................
   1    -50.7162901 -0.507163E+02  0.130E-01    8.74       0.0  T
   2    -50.7163377 -0.475726E-04  0.957E-02    8.73       1.0  T
   3    -50.7163628 -0.250854E-04  0.341E-02    8.70       1.0  T
   4    -50.7163666 -0.376783E-05  0.705E-03    8.69       2.8  T
   5    -50.7163666 -0.893148E-07  0.321E-03    8.69       6.1  T
   6    -50.7163667 -0.108437E-07  0.146E-03    8.70      13.4  T
speedup  0.96
cpu  time for SCC    0.00 s
wall time for SCC    0.01 s
speedup  1.00
cpu  time for grad    0.01 s
wall time for grad    0.01 s
 E :    -50.45034186  G :  0.034628    pred/act E change: -0.120D-02 -0.155D-02
Maxdispl :   0.2233   ||displ|| :   0.5207   Lambda : -0.586D-02
Largest |displ|/coords:  0.2233 (  30)  0.1998 (   2)  0.1700 (  24)
................................................................................
.............................. CYCLE   19 ......................................
................................................................................
   1    -50.7279008 -0.507279E+02  0.390E-01    8.55       0.0  T
   2    -50.7282169 -0.316127E-03  0.290E-01    8.52       1.0  T
   3    -50.7284288 -0.211944E-03  0.943E-02    8.45       1.0  T
   4    -50.7284560 -0.271453E-04  0.185E-02    8.44       1.1  T
   5    -50.7284564 -0.411809E-06  0.894E-03    8.44       2.2  T
   6    -50.7284565 -0.508620E-07  0.300E-03    8.44       6.5  T
   7    -50.7284565 -0.120787E-07  0.749E-04    8.44      26.2  T
speedup  0.98
cpu  time for SCC    0.01 s
wall time for SCC    0.01 s
speedup  1.01
cpu  time for grad    0.01 s
wall time for grad    0.01 s
 E :    -50.45190577  G :  0.042469    pred/act E change: -0.911D-03 -0.156D-02
Maxdispl :   0.0915   ||displ|| :   0.2023   Lambda : -0.339D-02
Largest |displ|/coords:  0.0915 (   9)  0.0576 (  69)  0.0539 (   3)
................................................................................
.............................. CYCLE   20 ......................................
................................................................................
   1    -50.7255469 -0.507255E+02  0.165E-01    8.51       0.0  T
   2    -50.7255788 -0.319013E-04  0.125E-01    8.52       1.0  T
   3    -50.7256038 -0.249930E-04  0.297E-02    8.53       1.0  T
   4    -50.7256071 -0.334531E-05  0.105E-02    8.53       1.9  T
   5    -50.7256073 -0.145082E-06  0.320E-03    8.53       6.1  T
   6    -50.7256073 -0.134586E-07  0.170E-03    8.53      11.5  T
speedup  0.98
cpu  time for SCC    0.00 s
wall time for SCC    0.01 s
speedup  1.01
cpu  time for grad    0.01 s
wall time for grad    0.01 s
 E :    -50.45307960  G :  0.018363    pred/act E change: -0.372D-02 -0.117D-02
Maxdispl :   0.1132   ||displ|| :   0.1794   Lambda : -0.885D-03
Largest |displ|/coords:  0.1132 (   3)  0.0753 (   9)  0.0547 (   2)
................................................................................
.............................. CYCLE   21 ......................................
................................................................................
   1    -50.7236771 -0.507237E+02  0.121E-01    8.54       0.0  T
   2    -50.7236865 -0.939803E-05  0.904E-02    8.54       1.0  T
   3    -50.7236945 -0.801751E-05  0.180E-02    8.55       1.1  T
   4    -50.7236956 -0.108896E-05  0.569E-03    8.55       3.4  T
   5    -50.7236957 -0.496416E-07  0.247E-03    8.55       7.9  T
   6    -50.7236957 -0.937304E-08  0.108E-03    8.55      18.1  T
speedup  0.96
cpu  time for SCC    0.00 s
wall time for SCC    0.01 s
speedup  1.00
cpu  time for grad    0.01 s
wall time for grad    0.01 s
 E :    -50.45321081  G :  0.019371    pred/act E change: -0.177D-02 -0.131D-03
Maxdispl :   0.0688   ||displ|| :   0.1881   Lambda : -0.931D-03
Largest |displ|/coords:  0.0688 (   2)  0.0670 (  30)  0.0628 (   3)
................................................................................
.............................. CYCLE   22 ......................................
................................................................................
   1    -50.7261688 -0.507262E+02  0.125E-01    8.52       0.0  T
   2    -50.7261853 -0.164290E-04  0.942E-02    8.51       1.0  T
   3    -50.7261973 -0.120850E-04  0.220E-02    8.48       1.0  T
   4    -50.7261993 -0.197883E-05  0.589E-03    8.48       3.3  T
   5    -50.7261994 -0.519891E-07  0.258E-03    8.49       7.6  T
   6    -50.7261994 -0.586233E-08  0.129E-03    8.49      15.2  T
speedup  1.11
cpu  time for SCC    0.01 s
wall time for SCC    0.01 s
speedup  1.06
cpu  time for grad    0.01 s
wall time for grad    0.01 s
 E :    -50.45379317  G :  0.012175    pred/act E change: -0.457D-03 -0.582D-03
Maxdispl :   0.0629   ||displ|| :   0.1427   Lambda : -0.343D-03
Largest |displ|/coords:  0.0629 (   4)  0.0554 (   5)  0.0549 (  11)
................................................................................
.............................. CYCLE   23 ......................................
................................................................................
   1    -50.7287678 -0.507288E+02  0.689E-02    8.49       0.0  T
   2    -50.7287732 -0.536529E-05  0.518E-02    8.49       1.0  T
   3    -50.7287768 -0.361546E-05  0.128E-02    8.47       1.5  T
   4    -50.7287774 -0.629859E-06  0.407E-03    8.47       4.8  T
   5    -50.7287775 -0.323231E-07  0.128E-03    8.47      15.3  T
   6    -50.7287775 -0.125953E-08  0.692E-04    8.47      28.3  T
speedup  0.98
cpu  time for SCC    0.00 s
wall time for SCC    0.01 s
speedup  1.01
cpu  time for grad    0.01 s
wall time for grad    0.01 s
 E :    -50.45402313  G :  0.009703    pred/act E change: -0.482D-03 -0.230D-03
Maxdispl :   0.1230   ||displ|| :   0.2231   Lambda : -0.370D-03
Largest |displ|/coords:  0.1230 (   4)  0.0836 (   5)  0.0817 (  11)
................................................................................
.............................. CYCLE   24 ......................................
................................................................................
   1    -50.7274379 -0.507274E+02  0.108E-01    8.49       0.0  T
   2    -50.7274431 -0.521735E-05  0.813E-02    8.49       1.0  T
   3    -50.7274473 -0.418435E-05  0.128E-02    8.49       1.5  T
   4    -50.7274480 -0.662946E-06  0.535E-03    8.49       3.7  T
   5    -50.7274480 -0.526135E-07  0.176E-03    8.49      11.2  T
   6    -50.7274480 -0.355513E-08  0.929E-04    8.49      21.1  T
speedup  0.98
cpu  time for SCC    0.00 s
wall time for SCC    0.01 s
speedup  1.00
cpu  time for grad    0.01 s
wall time for grad    0.01 s
 E :    -50.45423299  G :  0.010139    pred/act E change: -0.175D-03 -0.210D-03
Maxdispl :   0.1037   ||displ|| :   0.1707   Lambda : -0.265D-03
Largest |displ|/coords:  0.1037 (   4)  0.0745 (  11)  0.0527 (   3)
................................................................................
.............................. CYCLE   25 ......................................
................................................................................
   1    -50.7290098 -0.507290E+02  0.728E-02    8.51       0.0  T
   2    -50.7290124 -0.263576E-05  0.547E-02    8.51       1.0  T
   3    -50.7290144 -0.201239E-05  0.903E-03    8.51       2.2  T
   4    -50.7290147 -0.320409E-06  0.474E-03    8.51       4.1  T
   5    -50.7290148 -0.295814E-07  0.116E-03    8.51      16.8  T
   6    -50.7290148 -0.154919E-08  0.646E-04    8.51      30.3  T
speedup  0.98
cpu  time for SCC    0.00 s
wall time for SCC    0.01 s
speedup  1.00
cpu  time for grad    0.01 s
wall time for grad    0.01 s
 E :    -50.45434935  G :  0.008163    pred/act E change: -0.194D-03 -0.116D-03
Maxdispl :   0.0629   ||displ|| :   0.0931   Lambda : -0.153D-03
Largest |displ|/coords:  0.0629 (   4)  0.0387 (  11)  0.0201 (   1)

generating ANC from model Hessian ...
 Shifting diagonal of input Hessian by   5.011302346114556E-003
 Lowest  eigenvalues of input Hessian
    0.005000   -0.000000   -0.000000    0.000000    0.000000    0.000000
    0.000000    0.005151    0.005367    0.005894    0.006171    0.006437
    0.006813    0.007670    0.008112    0.008897    0.010231    0.013101
 Highest eigenvalues
    1.357885    1.405617    1.418297    2.880819    3.302396    3.606191
 
cpu  time for ANC gen    0.01 s
wall time for ANC gen    0.01 s
................................................................................
.............................. CYCLE   26 ......................................
................................................................................
   1    -50.7291967 -0.507292E+02  0.447E-02    8.52       0.0  T
   2    -50.7291985 -0.173909E-05  0.331E-02    8.52       1.0  T
   3    -50.7291995 -0.103566E-05  0.721E-03    8.52       2.7  T
   4    -50.7291997 -0.211735E-06  0.162E-03    8.52      12.1  T
   5    -50.7291997 -0.413107E-08  0.747E-04    8.52      26.2  T
   6    -50.7291997 -0.686342E-09  0.367E-04    8.52      53.5  T
speedup  0.96
cpu  time for SCC    0.00 s
wall time for SCC    0.01 s
speedup  1.04
cpu  time for grad    0.01 s
wall time for grad    0.01 s
 E :    -50.45444238  G :  0.006442    pred/act E change:  0.000D+00 -0.930D-04
Maxdispl :   0.0630   ||displ|| :   0.1418   Lambda : -0.278D-03
Largest |displ|/coords:  0.0630 (   1)  0.0588 (   7)  0.0504 (  12)
................................................................................
.............................. CYCLE   27 ......................................
................................................................................
   1    -50.7288166 -0.507288E+02  0.111E-01    8.52       0.0  T
   2    -50.7288195 -0.291298E-05  0.842E-02    8.52       1.0  T
   3    -50.7288218 -0.225099E-05  0.882E-03    8.53       2.2  T
   4    -50.7288222 -0.417071E-06  0.280E-03    8.53       7.0  T
   5    -50.7288222 -0.743365E-08  0.104E-03    8.53      18.8  T
speedup  0.93
cpu  time for SCC    0.00 s
wall time for SCC    0.00 s
speedup  0.99
cpu  time for grad    0.01 s
wall time for grad    0.01 s
 E :    -50.45464759  G :  0.003794    pred/act E change:  0.000D+00 -0.205D-03
Maxdispl :   0.1330   ||displ|| :   0.2858   Lambda : -0.352D-03
Largest |displ|/coords:  0.1330 (   8)  0.1264 (   1)  0.1238 (   3)
................................................................................
.............................. CYCLE   28 ......................................
................................................................................
   1    -50.7261718 -0.507262E+02  0.231E-01    8.52       0.0  T
   2    -50.7261854 -0.135522E-04  0.174E-01    8.53       1.0  T
   3    -50.7261949 -0.954318E-05  0.202E-02    8.55       1.0  T
   4    -50.7261970 -0.206683E-05  0.528E-03    8.55       3.7  T
   5    -50.7261970 -0.237497E-07  0.254E-03    8.55       7.7  T
   6    -50.7261970 -0.731588E-08  0.118E-03    8.55      16.7  T
   7    -50.7261970 -0.192772E-08  0.248E-04    8.55      79.1  T
   8    -50.7261970 -0.131429E-09  0.745E-05    8.55     263.1  T
speedup  1.00
cpu  time for SCC    0.01 s
wall time for SCC    0.01 s
speedup  0.97
cpu  time for grad    0.01 s
wall time for grad    0.02 s
 E :    -50.45479103  G :  0.013787    pred/act E change: -0.142D-03 -0.143D-03
Maxdispl :   0.0511   ||displ|| :   0.0665   Lambda : -0.182D-03
Largest |displ|/coords:  0.0511 (   4)  0.0226 (   3)  0.0176 (   5)
................................................................................
.............................. CYCLE   29 ......................................
................................................................................
   1    -50.7277371 -0.507277E+02  0.513E-02    8.55       0.0  T
   2    -50.7277387 -0.155115E-05  0.384E-02    8.55       1.0  T
   3    -50.7277399 -0.123631E-05  0.690E-03    8.56       2.8  T
   4    -50.7277401 -0.198342E-06  0.190E-03    8.56      10.3  T
   5    -50.7277401 -0.487002E-08  0.851E-04    8.56      23.0  T
speedup  0.93
cpu  time for SCC    0.00 s
wall time for SCC    0.00 s
speedup  0.98
cpu  time for grad    0.01 s
wall time for grad    0.01 s
 E :    -50.45489282  G :  0.005244    pred/act E change: -0.191D-03 -0.102D-03
Maxdispl :   0.0758   ||displ|| :   0.1410   Lambda : -0.127D-03
Largest |displ|/coords:  0.0758 (   3)  0.0623 (   7)  0.0606 (   1)
................................................................................
.............................. CYCLE   30 ......................................
................................................................................
   1    -50.7277443 -0.507277E+02  0.929E-02    8.56       0.0  T
   2    -50.7277451 -0.803101E-06  0.696E-02    8.56       1.0  T
   3    -50.7277459 -0.754953E-06  0.528E-03    8.57       3.7  T
   4    -50.7277460 -0.849763E-07  0.177E-03    8.57      11.1  T
   5    -50.7277460 -0.374607E-08  0.753E-04    8.57      26.0  T
speedup  1.14
cpu  time for SCC    0.00 s
wall time for SCC    0.00 s
speedup  0.98
cpu  time for grad    0.01 s
wall time for grad    0.01 s
 E :    -50.45497904  G :  0.002677    pred/act E change: -0.916D-04 -0.862D-04
Maxdispl :   0.1572   ||displ|| :   0.2884   Lambda : -0.162D-03
Largest |displ|/coords:  0.1572 (   3)  0.1442 (   1)  0.1009 (   8)
................................................................................
.............................. CYCLE   31 ......................................
................................................................................
   1    -50.7261413 -0.507261E+02  0.187E-01    8.56       0.0  T
   2    -50.7261474 -0.612772E-05  0.140E-01    8.56       1.0  T
   3    -50.7261525 -0.514639E-05  0.143E-02    8.58       1.4  T
   4    -50.7261533 -0.789121E-06  0.420E-03    8.57       4.7  T
   5    -50.7261534 -0.199916E-07  0.191E-03    8.57      10.2  T
   6    -50.7261534 -0.393042E-08  0.929E-04    8.57      21.1  T
   7    -50.7261534 -0.171756E-08  0.194E-04    8.57     101.0  T
speedup  0.98
cpu  time for SCC    0.01 s
wall time for SCC    0.01 s
speedup  0.97
cpu  time for grad    0.01 s
wall time for grad    0.01 s
 E :    -50.45506319  G :  0.006712    pred/act E change: -0.649D-04 -0.842D-04
Maxdispl :   0.0499   ||displ|| :   0.0723   Lambda : -0.624D-04
Largest |displ|/coords:  0.0499 (   3)  0.0182 (   4)  0.0178 (   5)
................................................................................
.............................. CYCLE   32 ......................................
................................................................................
   1    -50.7269063 -0.507269E+02  0.372E-02    8.57       0.0  T
   2    -50.7269068 -0.477922E-06  0.278E-02    8.57       1.0  T
   3    -50.7269071 -0.328474E-06  0.405E-03    8.57       4.8  T
   4    -50.7269072 -0.639970E-07  0.128E-03    8.57      15.3  T
   5    -50.7269072 -0.328435E-08  0.434E-04    8.57      45.2  T
speedup  0.93
cpu  time for SCC    0.00 s
wall time for SCC    0.00 s
speedup  0.99
cpu  time for grad    0.01 s
wall time for grad    0.01 s
 E :    -50.45510418  G :  0.003012    pred/act E change: -0.878D-04 -0.410D-04
Maxdispl :   0.1277   ||displ|| :   0.1907   Lambda : -0.783D-04
Largest |displ|/coords:  0.1277 (   3)  0.0921 (   1)  0.0548 (   7)
................................................................................
.............................. CYCLE   33 ......................................
................................................................................
   1    -50.7268931 -0.507269E+02  0.105E-01    8.57       0.0  T
   2    -50.7268949 -0.175795E-05  0.794E-02    8.57       1.0  T
   3    -50.7268965 -0.168610E-05  0.792E-03    8.57       2.5  T
   4    -50.7268968 -0.210986E-06  0.307E-03    8.57       6.4  T
   5    -50.7268968 -0.115299E-07  0.909E-04    8.57      21.6  T
   6    -50.7268968 -0.116068E-08  0.454E-04    8.57      43.2  T
speedup  0.96
cpu  time for SCC    0.00 s
wall time for SCC    0.01 s
speedup  0.96
cpu  time for grad    0.01 s
wall time for grad    0.01 s
 E :    -50.45514701  G :  0.002386    pred/act E change: -0.314D-04 -0.428D-04
Maxdispl :   0.0787   ||displ|| :   0.1529   Lambda : -0.493D-04
Largest |displ|/coords:  0.0787 (   3)  0.0751 (   1)  0.0544 (   4)
................................................................................
.............................. CYCLE   34 ......................................
................................................................................
   1    -50.7269505 -0.507270E+02  0.857E-02    8.57       0.0  T
   2    -50.7269516 -0.112166E-05  0.645E-02    8.57       1.0  T
   3    -50.7269528 -0.119472E-05  0.580E-03    8.57       3.4  T
   4    -50.7269529 -0.118733E-06  0.258E-03    8.57       7.6  T
   5    -50.7269529 -0.944877E-08  0.771E-04    8.57      25.4  T
   6    -50.7269529 -0.929738E-09  0.400E-04    8.57      49.0  T
speedup  0.96
cpu  time for SCC    0.01 s
wall time for SCC    0.01 s
speedup  0.96
cpu  time for grad    0.01 s
wall time for grad    0.01 s
 E :    -50.45517132  G :  0.003780    pred/act E change: -0.406D-04 -0.243D-04
Maxdispl :   0.0616   ||displ|| :   0.0950   Lambda : -0.441D-04
Largest |displ|/coords:  0.0616 (   3)  0.0394 (   1)  0.0263 (   7)
................................................................................
.............................. CYCLE   35 ......................................
................................................................................
   1    -50.7276884 -0.507277E+02  0.402E-02    8.58       0.0  T
   2    -50.7276890 -0.563681E-06  0.302E-02    8.58       1.0  T
   3    -50.7276894 -0.414258E-06  0.437E-03    8.58       4.5  T
   4    -50.7276895 -0.883541E-07  0.158E-03    8.58      12.4  T
   5    -50.7276895 -0.457308E-08  0.568E-04    8.58      34.5  T
   6    -50.7276895 -0.626386E-09  0.291E-04    8.58      67.5  T
speedup  0.94
cpu  time for SCC    0.00 s
wall time for SCC    0.01 s
speedup  1.03
cpu  time for grad    0.01 s
wall time for grad    0.01 s
 E :    -50.45519794  G :  0.002445    pred/act E change: -0.252D-04 -0.266D-04
Maxdispl :   0.1157   ||displ|| :   0.1682   Lambda : -0.355D-04
Largest |displ|/coords:  0.1157 (   3)  0.0799 (   1)  0.0451 (   4)
................................................................................
.............................. CYCLE   36 ......................................
................................................................................
   1    -50.7270334 -0.507270E+02  0.893E-02    8.58       0.0  T
   2    -50.7270347 -0.128365E-05  0.672E-02    8.58       1.0  T
   3    -50.7270359 -0.126307E-05  0.645E-03    8.58       3.0  T
   4    -50.7270361 -0.155611E-06  0.271E-03    8.58       7.2  T
   5    -50.7270361 -0.118059E-07  0.937E-04    8.58      20.9  T
   6    -50.7270361 -0.134924E-08  0.507E-04    8.58      38.6  T
speedup  1.18
cpu  time for SCC    0.01 s
wall time for SCC    0.01 s
speedup  1.04
cpu  time for grad    0.01 s
wall time for grad    0.01 s
 E :    -50.45521796  G :  0.002966    pred/act E change: -0.223D-04 -0.200D-04
Maxdispl :   0.0628   ||displ|| :   0.1412   Lambda : -0.448D-04
Largest |displ|/coords:  0.0628 (   1)  0.0585 (   3)  0.0427 (   4)
................................................................................
.............................. CYCLE   37 ......................................
................................................................................
   1    -50.7284201 -0.507284E+02  0.608E-02    8.59       0.0  T
   2    -50.7284211 -0.108626E-05  0.456E-02    8.59       1.0  T
   3    -50.7284218 -0.659514E-06  0.557E-03    8.59       3.5  T
   4    -50.7284220 -0.187009E-06  0.206E-03    8.59       9.5  T
   5    -50.7284220 -0.898730E-08  0.784E-04    8.59      25.0  T
   6    -50.7284220 -0.936780E-09  0.407E-04    8.59      48.1  T
speedup  0.98
cpu  time for SCC    0.00 s
wall time for SCC    0.01 s
speedup  0.97
cpu  time for grad    0.01 s
wall time for grad    0.01 s
 E :    -50.45523668  G :  0.002872    pred/act E change: -0.183D-04 -0.187D-04
Maxdispl :   0.0327   ||displ|| :   0.0501   Lambda : -0.167D-04
Largest |displ|/coords:  0.0327 (   3)  0.0202 (   4)  0.0171 (   5)
................................................................................
.............................. CYCLE   38 ......................................
................................................................................
   1    -50.7280095 -0.507280E+02  0.273E-02    8.58       0.0  T
   2    -50.7280097 -0.144311E-06  0.204E-02    8.58       1.0  T
   3    -50.7280098 -0.139005E-06  0.255E-03    8.59       7.7  T
   4    -50.7280098 -0.149350E-07  0.847E-04    8.59      23.2  T
   5    -50.7280098 -0.103722E-08  0.298E-04    8.59      65.9  T
speedup  0.91
cpu  time for SCC    0.00 s
wall time for SCC    0.00 s
speedup  1.02
cpu  time for grad    0.01 s
wall time for grad    0.01 s
 E :    -50.45524991  G :  0.002059    pred/act E change: -0.228D-04 -0.132D-04
Maxdispl :   0.0677   ||displ|| :   0.1156   Lambda : -0.269D-04
Largest |displ|/coords:  0.0677 (   3)  0.0402 (   1)  0.0389 (   4)
................................................................................
.............................. CYCLE   39 ......................................
................................................................................
   1    -50.7276059 -0.507276E+02  0.568E-02    8.57       0.0  T
   2    -50.7276065 -0.595005E-06  0.424E-02    8.57       1.0  T
   3    -50.7276071 -0.581295E-06  0.530E-03    8.58       3.7  T
   4    -50.7276071 -0.562110E-07  0.216E-03    8.57       9.1  T
   5    -50.7276071 -0.543709E-08  0.595E-04    8.57      32.9  T
   6    -50.7276071 -0.419988E-09  0.374E-04    8.57      52.5  T
speedup  0.98
cpu  time for SCC    0.00 s
wall time for SCC    0.01 s
speedup  1.04
cpu  time for grad    0.01 s
wall time for grad    0.01 s
 E :    -50.45526648  G :  0.001824    pred/act E change: -0.838D-05 -0.166D-04
Maxdispl :   0.0422   ||displ|| :   0.0787   Lambda : -0.992D-05
Largest |displ|/coords:  0.0422 (   3)  0.0354 (   1)  0.0239 (   4)
................................................................................
.............................. CYCLE   40 ......................................
................................................................................
   1    -50.7276351 -0.507276E+02  0.371E-02    8.57       0.0  T
   2    -50.7276353 -0.236851E-06  0.277E-02    8.57       1.0  T
   3    -50.7276356 -0.243827E-06  0.335E-03    8.57       5.9  T
   4    -50.7276356 -0.220534E-07  0.146E-03    8.57      13.4  T
   5    -50.7276356 -0.237895E-08  0.385E-04    8.57      50.9  T
   6    -50.7276356 -0.162693E-09  0.243E-04    8.57      80.8  T
speedup  1.18
cpu  time for SCC    0.01 s
wall time for SCC    0.01 s
speedup  1.04
cpu  time for grad    0.01 s
wall time for grad    0.01 s
 E :    -50.45527428  G :  0.001821    pred/act E change: -0.136D-04 -0.781D-05
Maxdispl :   0.0775   ||displ|| :   0.1565   Lambda : -0.191D-04
Largest |displ|/coords:  0.0775 (   3)  0.0743 (   1)  0.0452 (   5)
................................................................................
.............................. CYCLE   41 ......................................
................................................................................
   1    -50.7278227 -0.507278E+02  0.720E-02    8.56       0.0  T
   2    -50.7278236 -0.846281E-06  0.537E-02    8.56       1.0  T
   3    -50.7278245 -0.904148E-06  0.632E-03    8.56       3.1  T
   4    -50.7278245 -0.731960E-07  0.289E-03    8.56       6.8  T
   5    -50.7278245 -0.859315E-08  0.734E-04    8.56      26.7  T
   6    -50.7278245 -0.524146E-09  0.466E-04    8.56      42.0  T
speedup  0.96
cpu  time for SCC    0.01 s
wall time for SCC    0.01 s
speedup  0.95
cpu  time for grad    0.01 s
wall time for grad    0.01 s
 E :    -50.45528809  G :  0.002096    pred/act E change: -0.499D-05 -0.138D-04
Maxdispl :   0.0913   ||displ|| :   0.1828   Lambda : -0.192D-04
Largest |displ|/coords:  0.0913 (   1)  0.0909 (   3)  0.0511 (   5)
................................................................................
.............................. CYCLE   42 ......................................
................................................................................
   1    -50.7278141 -0.507278E+02  0.856E-02    8.56       0.0  T
   2    -50.7278152 -0.109787E-05  0.640E-02    8.56       1.0  T
   3    -50.7278165 -0.131743E-05  0.694E-03    8.55       2.8  T
   4    -50.7278166 -0.759712E-07  0.302E-03    8.55       6.5  T
   5    -50.7278166 -0.103451E-07  0.861E-04    8.55      22.8  T
   6    -50.7278166 -0.751236E-09  0.517E-04    8.55      37.9  T
speedup  0.96
cpu  time for SCC    0.00 s
wall time for SCC    0.01 s
speedup  0.96
cpu  time for grad    0.01 s
wall time for grad    0.01 s
 E :    -50.45530262  G :  0.002598    pred/act E change: -0.978D-05 -0.145D-04
Maxdispl :   0.0931   ||displ|| :   0.2161   Lambda : -0.346D-04
Largest |displ|/coords:  0.0931 (  17)  0.0856 (   1)  0.0844 (   5)
................................................................................
.............................. CYCLE   43 ......................................
................................................................................
   1    -50.7287348 -0.507287E+02  0.113E-01    8.56       0.0  T
   2    -50.7287373 -0.248279E-05  0.847E-02    8.56       1.0  T
   3    -50.7287402 -0.285006E-05  0.102E-02    8.56       1.9  T
   4    -50.7287404 -0.203747E-06  0.391E-03    8.56       5.0  T
   5    -50.7287404 -0.181408E-07  0.128E-03    8.56      15.4  T
   6    -50.7287404 -0.208360E-08  0.693E-04    8.56      28.3  T
   7    -50.7287404 -0.833118E-09  0.155E-04    8.56     126.3  T
speedup  1.00
cpu  time for SCC    0.01 s
wall time for SCC    0.01 s
speedup  0.98
cpu  time for grad    0.01 s
wall time for grad    0.01 s
 E :    -50.45530980  G :  0.005282    pred/act E change: -0.994D-05 -0.717D-05
Maxdispl :   0.1027   ||displ|| :   0.1804   Lambda : -0.435D-04
Largest |displ|/coords:  0.1027 (   3)  0.0905 (   1)  0.0532 (   2)
................................................................................
.............................. CYCLE   44 ......................................
................................................................................
   1    -50.7274201 -0.507274E+02  0.901E-02    8.55       0.0  T
   2    -50.7274216 -0.148646E-05  0.677E-02    8.55       1.0  T
   3    -50.7274230 -0.145812E-05  0.663E-03    8.55       3.0  T
   4    -50.7274232 -0.164015E-06  0.261E-03    8.55       7.5  T
   5    -50.7274232 -0.895524E-08  0.101E-03    8.55      19.4  T
speedup  0.93
cpu  time for SCC    0.00 s
wall time for SCC    0.00 s
speedup  0.99
cpu  time for grad    0.01 s
wall time for grad    0.01 s
 E :    -50.45532835  G :  0.003709    pred/act E change: -0.181D-04 -0.186D-04
Maxdispl :   0.0886   ||displ|| :   0.1812   Lambda : -0.336D-04
Largest |displ|/coords:  0.0886 (   3)  0.0857 (   1)  0.0514 (   4)
................................................................................
.............................. CYCLE   45 ......................................
................................................................................
   1    -50.7289184 -0.507289E+02  0.826E-02    8.58       0.0  T
   2    -50.7289196 -0.118271E-05  0.617E-02    8.58       1.0  T
   3    -50.7289208 -0.120519E-05  0.715E-03    8.58       2.7  T
   4    -50.7289209 -0.111256E-06  0.333E-03    8.58       5.9  T
   5    -50.7289209 -0.110848E-07  0.851E-04    8.58      23.1  T
   6    -50.7289209 -0.768736E-09  0.530E-04    8.58      37.0  T
speedup  0.96
cpu  time for SCC    0.00 s
wall time for SCC    0.01 s
speedup  1.04
cpu  time for grad    0.01 s
wall time for grad    0.01 s
 E :    -50.45533241  G :  0.002666    pred/act E change: -0.224D-04 -0.406D-05
Maxdispl :   0.0540   ||displ|| :   0.1244   Lambda : -0.215D-04
Largest |displ|/coords:  0.0540 (   3)  0.0482 (   5)  0.0473 (  17)
................................................................................
.............................. CYCLE   46 ......................................
................................................................................
   1    -50.7284895 -0.507285E+02  0.647E-02    8.58       0.0  T
   2    -50.7284902 -0.679997E-06  0.486E-02    8.58       1.0  T
   3    -50.7284911 -0.883014E-06  0.524E-03    8.58       3.7  T
   4    -50.7284911 -0.372632E-07  0.199E-03    8.58       9.9  T
   5    -50.7284911 -0.549264E-08  0.663E-04    8.58      29.6  T
   6    -50.7284911 -0.456147E-09  0.386E-04    8.58      50.8  T
speedup  1.15
cpu  time for SCC    0.01 s
wall time for SCC    0.01 s
speedup  1.04
cpu  time for grad    0.01 s
wall time for grad    0.01 s
 E :    -50.45534752  G :  0.001153    pred/act E change: -0.174D-04 -0.151D-04
Maxdispl :   0.0677   ||displ|| :   0.1587   Lambda : -0.131D-04
Largest |displ|/coords:  0.0677 (   3)  0.0606 (  17)  0.0600 (   1)
................................................................................
.............................. CYCLE   47 ......................................
................................................................................
   1    -50.7278998 -0.507279E+02  0.844E-02    8.57       0.0  T
   2    -50.7279009 -0.109736E-05  0.636E-02    8.57       1.0  T
   3    -50.7279024 -0.150420E-05  0.625E-03    8.57       3.1  T
   4    -50.7279025 -0.515481E-07  0.194E-03    8.57      10.1  T
   5    -50.7279025 -0.583385E-08  0.879E-04    8.57      22.3  T
   6    -50.7279025 -0.112944E-08  0.418E-04    8.57      46.9  T
speedup  0.96
cpu  time for SCC    0.00 s
wall time for SCC    0.01 s
speedup  0.97
cpu  time for grad    0.01 s
wall time for grad    0.01 s
 E :    -50.45535267  G :  0.002954    pred/act E change: -0.109D-04 -0.515D-05
Maxdispl :   0.0158   ||displ|| :   0.0266   Lambda : -0.888D-05
Largest |displ|/coords:  0.0158 (   1)  0.0104 (  10)  0.0079 (  17)
................................................................................
.............................. CYCLE   48 ......................................
................................................................................
   1    -50.7281600 -0.507282E+02  0.119E-02    8.58       0.0  T
   2    -50.7281601 -0.435655E-07  0.885E-03    8.58       2.2  T
   3    -50.7281601 -0.410114E-07  0.149E-03    8.58      13.2  T
   4    -50.7281601 -0.387330E-08  0.552E-04    8.58      35.5  T
   5    -50.7281601 -0.301398E-09  0.128E-04    8.58     152.6  T
speedup  0.93
cpu  time for SCC    0.00 s
wall time for SCC    0.00 s
speedup  0.96
cpu  time for grad    0.01 s
wall time for grad    0.01 s
 E :    -50.45535827  G :  0.001567    pred/act E change: -0.672D-05 -0.561D-05
Maxdispl :   0.0178   ||displ|| :   0.0413   Lambda : -0.784D-05
Largest |displ|/coords:  0.0178 (   2)  0.0139 (   3)  0.0132 (  17)
................................................................................
.............................. CYCLE   49 ......................................
................................................................................
   1    -50.7284285 -0.507284E+02  0.240E-02    8.58       0.0  T
   2    -50.7284287 -0.152549E-06  0.181E-02    8.58       1.1  T
   3    -50.7284288 -0.140175E-06  0.233E-03    8.58       8.4  T
   4    -50.7284288 -0.184580E-07  0.649E-04    8.58      30.2  T
   5    -50.7284288 -0.441844E-09  0.278E-04    8.58      70.5  T
speedup  0.93
cpu  time for SCC    0.00 s
wall time for SCC    0.00 s
speedup  1.03
cpu  time for grad    0.01 s
wall time for grad    0.01 s
 E :    -50.45536322  G :  0.000855    pred/act E change: -0.444D-05 -0.495D-05
Maxdispl :   0.0462   ||displ|| :   0.1009   Lambda : -0.559D-05
Largest |displ|/coords:  0.0462 (   3)  0.0392 (   2)  0.0357 (  17)
................................................................................
.............................. CYCLE   50 ......................................
................................................................................
   1    -50.7283224 -0.507283E+02  0.538E-02    8.58       0.0  T
   2    -50.7283228 -0.439617E-06  0.405E-02    8.58       1.0  T
   3    -50.7283234 -0.589927E-06  0.394E-03    8.58       5.0  T
   4    -50.7283235 -0.226941E-07  0.137E-03    8.58      14.3  T
   5    -50.7283235 -0.240927E-08  0.556E-04    8.58      35.3  T
   6    -50.7283235 -0.424322E-09  0.275E-04    8.58      71.3  T
speedup  0.96
cpu  time for SCC    0.00 s
wall time for SCC    0.01 s
speedup  1.04
cpu  time for grad    0.01 s
wall time for grad    0.01 s
 E :    -50.45536663  G :  0.001130    pred/act E change: -0.393D-05 -0.340D-05
Maxdispl :   0.0266   ||displ|| :   0.0533   Lambda : -0.279D-05
Largest |displ|/coords:  0.0266 (   3)  0.0226 (   2)  0.0163 (  17)
................................................................................
.............................. CYCLE   51 ......................................
................................................................................
   1    -50.7284101 -0.507284E+02  0.265E-02    8.58       0.0  T
   2    -50.7284102 -0.131253E-06  0.199E-02    8.58       1.0  T
   3    -50.7284103 -0.146180E-06  0.229E-03    8.58       8.6  T
   4    -50.7284104 -0.113019E-07  0.107E-03    8.58      18.3  T
   5    -50.7284104 -0.112669E-08  0.265E-04    8.58      74.0  T
   6    -50.7284104 -0.823661E-10  0.164E-04    8.58     119.8  T
speedup  0.96
cpu  time for SCC    0.00 s
wall time for SCC    0.01 s
speedup  1.04
cpu  time for grad    0.01 s
wall time for grad    0.01 s
 E :    -50.45536874  G :  0.000909    pred/act E change: -0.283D-05 -0.212D-05
Maxdispl :   0.0352   ||displ|| :   0.0659   Lambda : -0.334D-05
Largest |displ|/coords:  0.0352 (   3)  0.0292 (   2)  0.0201 (   5)
................................................................................
.............................. CYCLE   52 ......................................
................................................................................
   1    -50.7285908 -0.507286E+02  0.309E-02    8.58       0.0  T
   2    -50.7285910 -0.203017E-06  0.231E-02    8.58       1.0  T
   3    -50.7285913 -0.205028E-06  0.298E-03    8.57       6.6  T
   4    -50.7285913 -0.199826E-07  0.136E-03    8.57      14.4  T
   5    -50.7285913 -0.182681E-08  0.319E-04    8.57      61.4  T
   6    -50.7285913 -0.113999E-09  0.202E-04    8.57      96.9  T
speedup  0.96
cpu  time for SCC    0.00 s
wall time for SCC    0.01 s
speedup  1.04
cpu  time for grad    0.01 s
wall time for grad    0.01 s
 E :    -50.45537085  G :  0.000628    pred/act E change: -0.140D-05 -0.211D-05
Maxdispl :   0.0319   ||displ|| :   0.0546   Lambda : -0.162D-05
Largest |displ|/coords:  0.0319 (   3)  0.0219 (   2)  0.0163 (   5)

generating ANC from model Hessian ...
 Shifting diagonal of input Hessian by   4.993932640461377E-003
 Lowest  eigenvalues of input Hessian
   -0.000000   -0.000000   -0.000000   -0.000000    0.000000    0.000000
    0.005000    0.005126    0.005395    0.005962    0.006263    0.006393
    0.007198    0.007666    0.008679    0.008797    0.010010    0.011717
 Highest eigenvalues
    1.355846    1.390847    1.400339    2.844452    3.286636    3.624577
 
cpu  time for ANC gen    0.01 s
wall time for ANC gen    0.01 s
................................................................................
.............................. CYCLE   53 ......................................
................................................................................
   1    -50.7285657 -0.507286E+02  0.257E-02    8.57       0.0  T
   2    -50.7285659 -0.122840E-06  0.192E-02    8.57       1.0  T
   3    -50.7285660 -0.129257E-06  0.223E-03    8.57       8.8  T
   4    -50.7285660 -0.109122E-07  0.105E-03    8.57      18.7  T
   5    -50.7285660 -0.109291E-08  0.247E-04    8.57      79.4  T
   6    -50.7285660 -0.635652E-10  0.156E-04    8.57     125.7  T
speedup  0.96
cpu  time for SCC    0.00 s
wall time for SCC    0.01 s
speedup  0.96
cpu  time for grad    0.01 s
wall time for grad    0.01 s
 E :    -50.45537177  G :  0.000631    pred/act E change:  0.000D+00 -0.912D-06
Maxdispl :   0.0039   ||displ|| :   0.0087   Lambda : -0.129D-05
Largest |displ|/coords:  0.0039 (   8)  0.0028 (   6)  0.0025 (   7)
................................................................................
.............................. CYCLE   54 ......................................
................................................................................
   1    -50.7286719 -0.507287E+02  0.582E-03    8.58       0.0  T
   2    -50.7286719 -0.701056E-08  0.438E-03    8.58       4.5  T
   3    -50.7286719 -0.738108E-08  0.568E-04    8.58      34.5  T
   4    -50.7286719 -0.631495E-09  0.178E-04    8.58     110.3  T
speedup  1.18
cpu  time for SCC    0.00 s
wall time for SCC    0.00 s
speedup  1.03
cpu  time for grad    0.01 s
wall time for grad    0.01 s
 E :    -50.45537262  G :  0.000374    pred/act E change:  0.000D+00 -0.855D-06
Maxdispl :   0.0053   ||displ|| :   0.0130   Lambda : -0.126D-05
Largest |displ|/coords:  0.0053 (   2)  0.0048 (   4)  0.0046 (  10)
................................................................................
.............................. CYCLE   55 ......................................
................................................................................
   1    -50.7288215 -0.507288E+02  0.767E-03    8.58       0.0  T
   2    -50.7288215 -0.132265E-07  0.575E-03    8.58       3.4  T
   3    -50.7288215 -0.135218E-07  0.655E-04    8.58      29.9  T
   4    -50.7288215 -0.114375E-08  0.214E-04    8.58      91.7  T
speedup  0.86
cpu  time for SCC    0.00 s
wall time for SCC    0.00 s
speedup  0.93
cpu  time for grad    0.01 s
wall time for grad    0.01 s
 E :    -50.45537338  G :  0.000299    pred/act E change: -0.647D-06 -0.762D-06
Maxdispl :   0.0074   ||displ|| :   0.0152   Lambda : -0.788D-06
Largest |displ|/coords:  0.0074 (   2)  0.0058 (   1)  0.0050 (   7)
................................................................................
.............................. CYCLE   56 ......................................
................................................................................
   1    -50.7288809 -0.507289E+02  0.847E-03    8.59       0.0  T
   2    -50.7288809 -0.140880E-07  0.638E-03    8.59       3.1  T
   3    -50.7288809 -0.156037E-07  0.607E-04    8.59      32.3  T
   4    -50.7288809 -0.109920E-08  0.190E-04    8.59     103.2  T
speedup  1.14
cpu  time for SCC    0.00 s
wall time for SCC    0.00 s
speedup  1.02
cpu  time for grad    0.01 s
wall time for grad    0.01 s
 E :    -50.45537392  G :  0.000363    pred/act E change: -0.632D-06 -0.538D-06
Maxdispl :   0.0119   ||displ|| :   0.0214   Lambda : -0.869D-06
Largest |displ|/coords:  0.0119 (   2)  0.0079 (   1)  0.0057 (   5)
................................................................................
.............................. CYCLE   57 ......................................
................................................................................
   1    -50.7288864 -0.507289E+02  0.108E-02    8.59       0.0  T
   2    -50.7288864 -0.264091E-07  0.812E-03    8.59       2.4  T
   3    -50.7288864 -0.291900E-07  0.872E-04    8.59      22.5  T
   4    -50.7288864 -0.225468E-08  0.319E-04    8.59      61.4  T
speedup  1.14
cpu  time for SCC    0.00 s
wall time for SCC    0.00 s
speedup  1.02
cpu  time for grad    0.01 s
wall time for grad    0.01 s
 E :    -50.45537457  G :  0.000383    pred/act E change: -0.394D-06 -0.653D-06
Maxdispl :   0.0175   ||displ|| :   0.0282   Lambda : -0.912D-06
Largest |displ|/coords:  0.0175 (   2)  0.0112 (   1)  0.0071 (   8)
................................................................................
.............................. CYCLE   58 ......................................
................................................................................
   1    -50.7288497 -0.507288E+02  0.131E-02    8.59       0.0  T
   2    -50.7288497 -0.361254E-07  0.985E-03    8.59       2.0  T
   3    -50.7288498 -0.429006E-07  0.989E-04    8.59      19.8  T
   4    -50.7288498 -0.251770E-08  0.454E-04    8.59      43.2  T
speedup  0.86
cpu  time for SCC    0.00 s
wall time for SCC    0.00 s
speedup  0.97
cpu  time for grad    0.01 s
wall time for grad    0.01 s
 E :    -50.45537527  G :  0.000357    pred/act E change: -0.434D-06 -0.693D-06
Maxdispl :   0.0208   ||displ|| :   0.0321   Lambda : -0.820D-06
Largest |displ|/coords:  0.0208 (   2)  0.0137 (   1)  0.0081 (   8)
................................................................................
.............................. CYCLE   59 ......................................
................................................................................
   1    -50.7288026 -0.507288E+02  0.139E-02    8.58       0.0  T
   2    -50.7288027 -0.391208E-07  0.105E-02    8.58       1.9  T
   3    -50.7288027 -0.484016E-07  0.108E-03    8.58      18.2  T
   4    -50.7288027 -0.227451E-08  0.516E-04    8.58      38.0  T
   5    -50.7288027 -0.288537E-09  0.132E-04    8.58     148.4  T
speedup  1.09
cpu  time for SCC    0.00 s
wall time for SCC    0.00 s
speedup  0.92
cpu  time for grad    0.01 s
wall time for grad    0.01 s
 E :    -50.45537591  G :  0.000344    pred/act E change: -0.456D-06 -0.645D-06
Maxdispl :   0.0305   ||displ|| :   0.0451   Lambda : -0.935D-06
Largest |displ|/coords:  0.0305 (   2)  0.0202 (   1)  0.0111 (   8)
................................................................................
.............................. CYCLE   60 ......................................
................................................................................
   1    -50.7287617 -0.507288E+02  0.191E-02    8.58       0.0  T
   2    -50.7287618 -0.719519E-07  0.143E-02    8.58       1.4  T
   3    -50.7287619 -0.881546E-07  0.144E-03    8.58      13.6  T
   4    -50.7287619 -0.404741E-08  0.728E-04    8.58      26.9  T
   5    -50.7287619 -0.557954E-09  0.179E-04    8.58     109.3  T
speedup  0.93
cpu  time for SCC    0.00 s
wall time for SCC    0.00 s
speedup  1.03
cpu  time for grad    0.01 s
wall time for grad    0.01 s
 E :    -50.45537653  G :  0.000393    pred/act E change: -0.410D-06 -0.616D-06
Maxdispl :   0.0177   ||displ|| :   0.0248   Lambda : -0.555D-06
Largest |displ|/coords:  0.0177 (   2)  0.0118 (   1)  0.0059 (   3)
................................................................................
.............................. CYCLE   61 ......................................
................................................................................
   1    -50.7287720 -0.507288E+02  0.975E-03    8.58       0.0  T
   2    -50.7287721 -0.207215E-07  0.727E-03    8.58       2.7  T
   3    -50.7287721 -0.219172E-07  0.815E-04    8.58      24.1  T
   4    -50.7287721 -0.161376E-08  0.373E-04    8.58      52.6  T
speedup  0.88
cpu  time for SCC    0.00 s
wall time for SCC    0.00 s
speedup  0.93
cpu  time for grad    0.01 s
wall time for grad    0.01 s
 E :    -50.45537696  G :  0.000364    pred/act E change: -0.469D-06 -0.437D-06
Maxdispl :   0.0209   ||displ|| :   0.0277   Lambda : -0.736D-06
Largest |displ|/coords:  0.0209 (   2)  0.0130 (   1)  0.0060 (   3)
................................................................................
.............................. CYCLE   62 ......................................
................................................................................
   1    -50.7288225 -0.507288E+02  0.107E-02    8.58       0.0  T
   2    -50.7288225 -0.273940E-07  0.791E-03    8.58       2.5  T
   3    -50.7288225 -0.252598E-07  0.942E-04    8.58      20.8  T
   4    -50.7288225 -0.245524E-08  0.395E-04    8.58      49.7  T
speedup  1.18
cpu  time for SCC    0.00 s
wall time for SCC    0.00 s
speedup  1.03
cpu  time for grad    0.01 s
wall time for grad    0.01 s
 E :    -50.45537750  G :  0.000282    pred/act E change: -0.277D-06 -0.533D-06
Maxdispl :   0.0220   ||displ|| :   0.0283   Lambda : -0.466D-06
Largest |displ|/coords:  0.0220 (   2)  0.0127 (   1)  0.0071 (   3)
................................................................................
.............................. CYCLE   63 ......................................
................................................................................
   1    -50.7288566 -0.507289E+02  0.116E-02    8.58       0.0  T
   2    -50.7288566 -0.263580E-07  0.858E-03    8.58       2.3  T
   3    -50.7288566 -0.294166E-07  0.942E-04    8.58      20.8  T
   4    -50.7288566 -0.152140E-08  0.382E-04    8.58      51.3  T
speedup  0.86
cpu  time for SCC    0.00 s
wall time for SCC    0.00 s
speedup  0.93
cpu  time for grad    0.01 s
wall time for grad    0.01 s
 E :    -50.45537787  G :  0.000248    pred/act E change: -0.368D-06 -0.377D-06
Maxdispl :   0.0308   ||displ|| :   0.0385   Lambda : -0.572D-06
Largest |displ|/coords:  0.0308 (   2)  0.0157 (   1)  0.0092 (   3)
................................................................................
.............................. CYCLE   64 ......................................
................................................................................
   1    -50.7289020 -0.507289E+02  0.163E-02    8.58       0.0  T
   2    -50.7289020 -0.471353E-07  0.121E-02    8.58       1.6  T
   3    -50.7289021 -0.557805E-07  0.123E-03    8.58      15.9  T
   4    -50.7289021 -0.201237E-08  0.501E-04    8.58      39.2  T
   5    -50.7289021 -0.299863E-09  0.145E-04    8.58     134.8  T
speedup  1.09
cpu  time for SCC    0.01 s
wall time for SCC    0.01 s
speedup  1.04
cpu  time for grad    0.02 s
wall time for grad    0.02 s
 E :    -50.45537833  G :  0.000283    pred/act E change: -0.233D-06 -0.460D-06
Maxdispl :   0.0480   ||displ|| :   0.0600   Lambda : -0.729D-06
Largest |displ|/coords:  0.0480 (   2)  0.0225 (   1)  0.0151 (   3)
................................................................................
.............................. CYCLE   65 ......................................
................................................................................
   1    -50.7289365 -0.507289E+02  0.260E-02    8.58       0.0  T
   2    -50.7289367 -0.114506E-06  0.193E-02    8.58       1.0  T
   3    -50.7289368 -0.139372E-06  0.190E-03    8.58      10.3  T
   4    -50.7289368 -0.423387E-08  0.773E-04    8.58      25.4  T
   5    -50.7289368 -0.692438E-09  0.240E-04    8.58      81.8  T
speedup  1.00
cpu  time for SCC    0.00 s
wall time for SCC    0.00 s
speedup  0.98
cpu  time for grad    0.01 s
wall time for grad    0.01 s
 E :    -50.45537884  G :  0.000399    pred/act E change: -0.287D-06 -0.504D-06
Maxdispl :   0.0254   ||displ|| :   0.0315   Lambda : -0.509D-06
Largest |displ|/coords:  0.0254 (   2)  0.0083 (   3)  0.0081 (   1)
................................................................................
.............................. CYCLE   66 ......................................
................................................................................
   1    -50.7289856 -0.507290E+02  0.144E-02    8.58       0.0  T
   2    -50.7289856 -0.329259E-07  0.107E-02    8.58       1.8  T
   3    -50.7289856 -0.394776E-07  0.102E-03    8.58      19.3  T
   4    -50.7289856 -0.118332E-08  0.387E-04    8.58      50.7  T
[...]
Largest |displ|/coords:  0.0286 (   2)  0.0118 (   3)  0.0066 (   5)
................................................................................
.............................. CYCLE   69 ......................................
................................................................................
   1    -50.7290186 -0.507290E+02  0.171E-02    8.58       0.0  T
   2    -50.7290187 -0.498414E-07  0.127E-02    8.58       1.5  T
   3    -50.7290187 -0.565082E-07  0.121E-03    8.58      16.1  T
   4    -50.7290187 -0.244160E-08  0.583E-04    8.58      33.6  T
   5    -50.7290187 -0.338119E-09  0.141E-04    8.58     139.1  T
speedup  1.00
cpu  time for SCC    0.00 s
wall time for SCC    0.00 s
speedup  1.01
cpu  time for grad    0.01 s
wall time for grad    0.01 s
 E :    -50.45538022  G :  0.000239    pred/act E change: -0.146D-06 -0.217D-06
Maxdispl :   0.0060   ||displ|| :   0.0098   Lambda : -0.168D-06
Largest |displ|/coords:  0.0060 (   2)  0.0044 (   3)  0.0027 (   6)
................................................................................
.............................. CYCLE   70 ......................................
................................................................................
   1    -50.7290202 -0.507290E+02  0.521E-03    8.58       0.0  T
   2    -50.7290202 -0.585825E-08  0.388E-03    8.58       5.1  T
   3    -50.7290202 -0.505557E-08  0.446E-04    8.58      44.0  T
   4    -50.7290202 -0.667690E-09  0.191E-04    8.58     102.6  T
speedup  0.93
cpu  time for SCC    0.00 s
wall time for SCC    0.00 s
speedup  0.99
cpu  time for grad    0.01 s
wall time for grad    0.01 s
 E :    -50.45538035  G :  0.000210    pred/act E change: -0.177D-06 -0.137D-06
Maxdispl :   0.0107   ||displ|| :   0.0199   Lambda : -0.329D-06
Largest |displ|/coords:  0.0107 (   2)  0.0092 (   3)  0.0063 (   6)
................................................................................
.............................. CYCLE   71 ......................................
................................................................................
   1    -50.7290320 -0.507290E+02  0.101E-02    8.58       0.0  T
   2    -50.7290320 -0.225832E-07  0.757E-03    8.58       2.6  T
   3    -50.7290320 -0.198439E-07  0.917E-04    8.58      21.4  T
   4    -50.7290320 -0.258095E-08  0.375E-04    8.58      52.4  T
speedup  1.11
cpu  time for SCC    0.00 s
wall time for SCC    0.00 s
speedup  1.04
cpu  time for grad    0.01 s
wall time for grad    0.01 s
 E :    -50.45538059  G :  0.000172    pred/act E change: -0.840D-07 -0.241D-06
Maxdispl :   0.0075   ||displ|| :   0.0152   Lambda : -0.178D-06
Largest |displ|/coords:  0.0075 (   3)  0.0064 (   2)  0.0057 (   1)
................................................................................
.............................. CYCLE   72 ......................................
................................................................................
   1    -50.7290487 -0.507290E+02  0.744E-03    8.58       0.0  T
   2    -50.7290487 -0.102438E-07  0.557E-03    8.58       3.5  T
   3    -50.7290487 -0.110965E-07  0.626E-04    8.58      31.3  T
   4    -50.7290487 -0.898119E-09  0.254E-04    8.58      77.3  T
speedup  1.00
cpu  time for SCC    0.00 s
wall time for SCC    0.00 s
speedup  0.99
cpu  time for grad    0.01 s
wall time for grad    0.01 s
 E :    -50.45538075  G :  0.000163    pred/act E change: -0.163D-06 -0.159D-06
Maxdispl :   0.0253   ||displ|| :   0.0455   Lambda : -0.379D-06
Largest |displ|/coords:  0.0253 (   2)  0.0221 (   3)  0.0122 (   6)
................................................................................
.............................. CYCLE   73 ......................................
................................................................................
   1    -50.7290683 -0.507291E+02  0.213E-02    8.58       0.0  T
   2    -50.7290684 -0.825307E-07  0.160E-02    8.58       1.2  T
   3    -50.7290685 -0.965929E-07  0.175E-03    8.58      11.2  T
   4    -50.7290685 -0.566957E-08  0.767E-04    8.58      25.6  T
   5    -50.7290685 -0.705533E-09  0.218E-04    8.58      90.0  T
speedup  0.94
cpu  time for SCC    0.01 s
wall time for SCC    0.01 s
speedup  0.98
cpu  time for grad    0.01 s
wall time for grad    0.01 s
 E :    -50.45538103  G :  0.000196    pred/act E change: -0.890D-07 -0.274D-06
Maxdispl :   0.0127   ||displ|| :   0.0238   Lambda : -0.217D-06
Largest |displ|/coords:  0.0127 (   3)  0.0093 (   2)  0.0086 (   1)
................................................................................
.............................. CYCLE   74 ......................................
................................................................................
   1    -50.7291037 -0.507291E+02  0.110E-02    8.58       0.0  T
   2    -50.7291037 -0.212516E-07  0.823E-03    8.58       2.4  T
   3    -50.7291037 -0.251185E-07  0.850E-04    8.58      23.1  T
   4    -50.7291037 -0.157466E-08  0.400E-04    8.58      49.1  T
speedup  1.03
cpu  time for SCC    0.00 s
wall time for SCC    0.00 s
speedup  1.02
cpu  time for grad    0.01 s
wall time for grad    0.01 s
 E :    -50.45538121  G :  0.000178    pred/act E change: -0.190D-06 -0.182D-06
Maxdispl :   0.0121   ||displ|| :   0.0204   Lambda : -0.306D-06
Largest |displ|/coords:  0.0121 (   1)  0.0107 (   3)  0.0061 (   6)
................................................................................
.............................. CYCLE   75 ......................................
................................................................................
   1    -50.7291628 -0.507292E+02  0.838E-03    8.58       0.0  T
   2    -50.7291628 -0.154121E-07  0.629E-03    8.58       3.1  T
   3    -50.7291628 -0.119874E-07  0.680E-04    8.58      28.8  T
   4    -50.7291628 -0.219148E-08  0.319E-04    8.58      61.5  T
speedup  1.00
cpu  time for SCC    0.00 s
wall time for SCC    0.00 s
speedup  1.01
cpu  time for grad    0.01 s
wall time for grad    0.01 s
 E :    -50.45538144  G :  0.000150    pred/act E change: -0.108D-06 -0.228D-06
Maxdispl :   0.0200   ||displ|| :   0.0341   Lambda : -0.238D-06
Largest |displ|/coords:  0.0200 (   3)  0.0141 (   2)  0.0103 (   6)
................................................................................
.............................. CYCLE   76 ......................................
................................................................................
   1    -50.7291508 -0.507292E+02  0.158E-02    8.58       0.0  T
   2    -50.7291508 -0.472375E-07  0.118E-02    8.58       1.7  T
   3    -50.7291509 -0.513207E-07  0.125E-03    8.58      15.7  T
   4    -50.7291509 -0.413010E-08  0.635E-04    8.58      30.9  T
   5    -50.7291509 -0.433673E-09  0.157E-04    8.58     124.7  T
speedup  1.06
cpu  time for SCC    0.01 s
wall time for SCC    0.00 s
speedup  1.04
cpu  time for grad    0.01 s
wall time for grad    0.01 s
 E :    -50.45538162  G :  0.000153    pred/act E change: -0.153D-06 -0.181D-06
Maxdispl :   0.0142   ||displ|| :   0.0221   Lambda : -0.143D-06
Largest |displ|/coords:  0.0142 (   3)  0.0080 (   1)  0.0072 (   6)
................................................................................
.............................. CYCLE   77 ......................................
................................................................................
   1    -50.7291573 -0.507292E+02  0.101E-02    8.58       0.0  T
   2    -50.7291573 -0.186556E-07  0.759E-03    8.58       2.6  T
   3    -50.7291573 -0.191069E-07  0.787E-04    8.58      24.9  T
   4    -50.7291573 -0.187288E-08  0.393E-04    8.58      49.9  T
speedup  0.98
cpu  time for SCC    0.00 s
wall time for SCC    0.00 s
speedup  1.01
cpu  time for grad    0.01 s
wall time for grad    0.01 s
 E :    -50.45538172  G :  0.000142    pred/act E change: -0.119D-06 -0.105D-06
Maxdispl :   0.0085   ||displ|| :   0.0107   Lambda : -0.124D-06
Largest |displ|/coords:  0.0085 (   2)  0.0034 (   1)  0.0031 (   5)
................................................................................
.............................. CYCLE   78 ......................................
................................................................................
   1    -50.7291794 -0.507292E+02  0.360E-03    8.58       0.0  T
   2    -50.7291794 -0.223965E-08  0.268E-03    8.58       7.3  T
   3    -50.7291794 -0.212537E-08  0.263E-04    8.58      74.4  T
   4    -50.7291794 -0.192252E-09  0.849E-05    8.58     231.0  T
speedup  1.05
cpu  time for SCC    0.00 s
wall time for SCC    0.00 s
speedup  1.04
cpu  time for grad    0.01 s
wall time for grad    0.01 s
 E :    -50.45538180  G :  0.000107    pred/act E change: -0.716D-07 -0.733D-07
Maxdispl :   0.0165   ||displ|| :   0.0247   Lambda : -0.117D-06
Largest |displ|/coords:  0.0165 (   3)  0.0102 (   2)  0.0072 (   6)

   *** GEOMETRY OPTIMIZATION CONVERGED AFTER 78 ITERATIONS ***

------------------------------------------------------------------------
 total energy gain (kcal):     -0.0063
------------------------------------------------------------------------
================
 final structure:
================
$coord
        0.61710803983228       -0.37929805505021        1.84523325765577      S 
        2.81034886794568        1.23956054134881        1.40757766158879      O 
        1.14500942899619       -3.04187256403190        1.59764950299716      O 
       -0.31668632119140        0.19836947691194        4.54929238442928      O 
       -1.44795734490205        0.39574392205051        0.11347432073891      O 
        2.33473664734245        0.89742024997085       -5.92503194109002      O 
        3.75536254146064        1.76928646980935       -6.63805022968183      H 
        2.58343570197295        5.80309333711027       -0.32721017278809      O 
        1.97993285868352        6.89842231345395        0.98422260170233      H 
        2.91237022939778        4.14496027848702        0.48616347649675      H 
       -2.24200486897776       -4.15372808617541        5.21704916768638      O 
       -0.90868293475503       -4.70430794023049        4.08835783059341      H 
       -1.16257079152892       -1.41613033739526        5.12683878604915      H 
       -3.73873751043988       -3.95238243175217        4.11531754853293      H 
        4.26818927228661       -1.81286811842291       -2.28023933143256      O 
        4.31916317151477       -0.54049199445469       -0.95095969429064      H 
        3.27697934802394       -3.13818683845649       -1.50700026548378      H 
        3.04372419318101       -0.31685897372565       -4.67008973025387      H 
       -0.56101352530423        3.54935723510557       -3.17845908161118      O 
        0.52871727980449        2.53425288347390       -4.44576837892488      H 
       -1.08013692567659        2.17289204715621       -1.76832119370107      H 
        0.64722875074425        4.71432064143228       -2.21687651509931      H 
       -5.52698943739542       -2.94745041690950        1.53110339136636      N 
       -7.13436435657171       -1.95875740745631        1.84346605099536      H 
       -5.89208953108059       -4.23358570550729        0.16289769642796      H 
       -4.21107278341600       -1.72176048876247        0.83936281958176      H 
$end
 
 Bond Distances (Angstroems)
 ---------------------------
S1-O2=1.4610         S1-O3=1.4424         S1-O4=1.5444         S1-O5=1.4840         O2-S1=1.4610         O3-S1=1.4424         
O4-S1=1.5444         O4-H13=1.0118        O5-S1=1.4840         O6-H7=0.9594         O6-H18=0.9973        H7-O6=0.9594         
O8-H9=0.9589         O8-H10=0.9927        H9-O8=0.9589         H10-O8=0.9927        O11-H12=0.9693       O11-H14=0.9892       
H12-O11=0.9693       H13-O4=1.0118        H14-O11=0.9892       O15-H16=0.9741       O15-H17=0.9667       H16-O15=0.9741       
H17-O15=0.9667       H18-O6=0.9973        O19-H20=1.0348       O19-H21=1.0784       O19-H22=1.0236       H20-O19=1.0348       
H21-O19=1.0784       H22-O19=1.0236       N23-H24=1.0122       N23-H25=1.0123       N23-H26=1.0196       H24-N23=1.0122       
H25-N23=1.0123       H26-N23=1.0196       
 N  H  Rav=1.0147 sigma=0.0035  Rmin=1.0122  Rmax=1.0196     3
 O  H  Rav=0.9963 sigma=0.0343  Rmin=0.9589  Rmax=1.0784    12
 S  O  Rav=1.4829 sigma=0.0384  Rmin=1.4424  Rmax=1.5444     4
 
 selected bond angles (degree)
 --------------------
O3-S1-O2=113.86                O4-S1-O2=106.56                O4-S1-O3=109.85                O5-S1-O2=108.97                
O5-S1-O3=110.89                O5-S1-O4=106.37                H13-O4-S1=104.73               H18-O6-H7=106.08               
H10-O8-H9=106.19               
 
 selected dihedral angles (degree)
 ---------------------------------
H13-O4-S1-O2=207.54           H13-O4-S1-O3=331.32           H13-O4-S1-O5= 91.39           
 
 CMA Distance (Angstroems)
 ---------------------------
R(CMA):  1.4702

========================================================================
 FINAL SINGLEPOINT CALCULATION ON OPTIMIZED GEOMETRY
========================================================================

 Ncao       : 65
 Nao        : 64
 Nshell     : 38
 Nel        : 80
 T(el)      :   300.0
 intcut     :    25.0
 scfconv/Eh :  0.100E-05
   qconv/e  :  0.100E-03
 intneglect :  0.100E-07
 broydamp   :      0.250
 iter      E             dE          RMSdq      gap      omega  full diag
   1    -50.7291794 -0.507292E+02  0.315E-05    8.58       0.0  T
   2    -50.7291794 -0.150635E-11  0.199E-05    8.58     984.9  T
   3    -50.7291794 -0.838440E-12  0.477E-06    8.58    4115.0  T
speedup  1.00
cpu  time for SCC    0.00 s
wall time for SCC    0.00 s

   *** convergence criteria satisfied after 3 iterations ***

          eigenvalues
 #    :          28         29         30         31         32         33         34         35
 occ. :        2.000      2.000      2.000      2.000      2.000      2.000      2.000      2.000
 eps  :       -13.697    -13.173    -12.851    -12.769    -12.654    -12.504    -12.314    -12.184
 #    :          36         37         38         39         40         41         42         43
 occ. :        2.000      2.000      2.000      2.000      2.000      0.000      0.000      0.000
 eps  :       -12.133    -12.036    -11.931    -11.820    -10.956     -2.376     -0.437      0.005
 #    :          44         45         46         47         48         49         50         51
 occ. :        0.000      0.000      0.000      0.000      0.000      0.000      0.000      0.000
 eps  :         0.441      0.841      1.293      1.521      3.154      3.477      4.344      5.632


   #   Z            q   n(s)   n(p)   n(d)      C6AA      α(0)
   1  16 S      1.716  1.582  1.764  0.938    88.405    15.825
   2   8 O     -0.758  1.766  4.991  0.000    30.332     7.384
   3   8 O     -0.749  1.772  4.977  0.000    30.067     7.352
   4   8 O     -0.631  1.763  4.868  0.000    25.917     6.872
   5   8 O     -0.762  1.775  4.988  0.000    30.365     7.392
   6   8 O     -0.604  1.747  4.856  0.000    25.264     6.784
   7   1 H      0.299  0.701  0.000  0.000     0.725     1.337
   8   8 O     -0.603  1.744  4.859  0.000    25.251     6.782
   9   1 H      0.297  0.703  0.000  0.000     0.729     1.341
  10   1 H      0.344  0.656  0.000  0.000     0.603     1.220
  11   8 O     -0.608  1.753  4.855  0.000    25.373     6.798
  12   1 H      0.312  0.688  0.000  0.000     0.687     1.302
  13   1 H      0.383  0.617  0.000  0.000     0.511     1.120
  14   1 H      0.321  0.679  0.000  0.000     0.662     1.278
  15   8 O     -0.610  1.738  4.872  0.000    25.419     6.805
  16   1 H      0.314  0.686  0.000  0.000     0.681     1.296
  17   1 H      0.311  0.689  0.000  0.000     0.690     1.305
  18   1 H      0.347  0.653  0.000  0.000     0.596     1.213
  19   8 O     -0.509  1.729  4.780  0.000    23.034     6.482
  20   1 H      0.386  0.614  0.000  0.000     0.511     1.123
  21   1 H      0.393  0.607  0.000  0.000     0.491     1.096
  22   1 H      0.379  0.621  0.000  0.000     0.526     1.140
  23   7 N     -0.460  1.376  4.084  0.000    32.117     8.417
  24   1 H      0.154  0.846  0.000  0.000     1.376     1.837
  25   1 H      0.155  0.845  0.000  0.000     1.370     1.834
  26   1 H      0.185  0.815  0.000  0.000     1.184     1.704

 Mol. C6AA /au·bohr⁶  :       5489.262810
 Mol. C8AA /au·bohr⁸  :     118549.443563
 Mol. α(0) /au        :        107.040714

 
 Wiberg/Mayer (AO) data. WBOs > 0.1 written file <wbo>
 largest (>0.05) Wiberg bond orders for each atom
           total WBO             WBO to atom ...
     1  S   4.819    O    3 1.341    O    2 1.276    O    5 1.174    O    4 0.981
     2  O   1.722    S    1 1.276    O    3 0.102    O    5 0.101    H   10 0.076    O    4 0.067
     3  O   1.706    S    1 1.341    O    2 0.102    O    5 0.099    O    4 0.088
     4  O   1.959    S    1 0.981    H   13 0.695    O    3 0.088    O    5 0.072    O    2 0.067    O   11 0.050
     5  O   1.750    S    1 1.174    H   21 0.203    O    2 0.101    O    3 0.099    O    4 0.072    O   19 0.056
     6  O   1.942    H    7 0.907    H   18 0.787    H   20 0.150    O   19 0.054
     7  H   0.911    O    6 0.907
     8  O   1.930    H    9 0.907    H   10 0.802    H   22 0.131    O   19 0.050
     9  H   0.912    O    8 0.907
    10  H   0.882    O    8 0.802    O    2 0.076
    11  O   1.941    H   12 0.875    H   14 0.818    H   13 0.141    O    4 0.050
    12  H   0.903    O   11 0.875
    13  H   0.853    O    4 0.695    O   11 0.141
    14  H   0.897    O   11 0.818    N   23 0.077
    15  O   1.897    H   17 0.878    H   16 0.853    H   18 0.091
    16  H   0.901    O   15 0.853
    17  H   0.903    O   15 0.878
    18  H   0.880    O    6 0.787    O   15 0.091
    19  O   2.239    H   22 0.722    H   20 0.699    H   21 0.631    O    5 0.056    O    6 0.054    O    8 0.050
    20  H   0.851    O   19 0.699    O    6 0.150
    21  H   0.846    O   19 0.631    O    5 0.203
    22  H   0.857    O   19 0.722    O    8 0.131
    23  N   3.017    H   24 0.974    H   25 0.974    H   26 0.935    H   14 0.077
    24  H   0.976    N   23 0.974
    25  H   0.976    N   23 0.974
    26  H   0.966    N   23 0.935
 MOs/occ written to file <molden.input>
 
molecular dipole:
                 x           y           z       tot (Debye)
 q only:       -0.553       1.212      -1.281
   full:       -0.570       1.134      -0.989       4.090
molecular quadrupole (traceless):
                xx          xy          yy          xz          yz          zz
 q only:        0.420       4.582       3.920      -3.787      -0.069      -4.341
  q+dip:        4.307       4.843       4.322      -1.083       4.947      -8.630
   full:        4.182       5.045       4.334      -1.612       4.879      -8.516

SCC energy    :     -50.7291794
rep           :       0.2735855
ES            :       0.2435059
AES           :      -0.0689443
AXC           :      -0.0078096
disp          :      -0.0189732
XB            :       0.0000000
fix           :       0.0000000
total E       :     -50.4553818
atomizationE  :       4.9856860     3128.57
(atE without considering molecular charge,
 total energy contains solvation terms)
H-L gap (eV)  :          8.5800
optimized geometry written to: xtbopt.xyz


------------------------------------------------------------------------
 * finished run on 2019/09/16 at 11:16:00.553     
------------------------------------------------------------------------
 total:
 * wall-time:     0 d,  0 h,  0 min,  1.831 sec
 *  cpu-time:     0 d,  0 h,  0 min,  1.816 sec
 * ratio c/w:     0.991 speedup
 SCF:
 * wall-time:     0 d,  0 h,  0 min,  0.146 sec
 *  cpu-time:     0 d,  0 h,  0 min,  0.143 sec
 * ratio c/w:     0.978 speedup
 ANC optimizer:
 * wall-time:     0 d,  0 h,  0 min,  1.662 sec
 *  cpu-time:     0 d,  0 h,  0 min,  1.651 sec
 * ratio c/w:     0.993 speedup

