      -----------------------------------------------------------      
     |                   =====================                   |     
     |                           x T B                           |     
     |                   =====================                   |     
     |                         S. Grimme                         |     
     |          Mulliken Center for Theoretical Chemistry        |     
     |                    University of Bonn                     |     
     |                 Version 6.0.1 (SAW181210)                 |     
      -----------------------------------------------------------      

   This program is distributed in the hope that it will be useful,
   but WITHOUT ANY WARRANTY; without even the implied warranty of
   MERCHANTABILITY or FITNESS FOR A PARTICULAR PURPOSE.
   
   FOR NON-COMMERCIAL, ACADEMIA USE ONLY.
   
   Cite this work as:
   S. Grimme, C. Bannwarth, P. Shushkov, J. Comput. Theory Chem., 2017,
   13, 1989-2009.
   C. Bannwarth, S. Ehlert and S. Grimme., ChemRxiv, 2018, preprint.
   http://doi.org/10.26434/chemrxiv.7246238.v1
   
   for sTDA-xTB:
   S. Grimme and C. Bannwarth, J. Chem. Phys., 2016, 145, 054103.
   
   in the mass-spec context:
   V. Asgeirsson, C. Bauer and S. Grimme, Chem. Sci., 2017, 8, 4879.
   
   if GBSA is used:
   P. Shushkov, F. März and S. Grimme, unpublished.
   
   for ANC optimizer:
   S. Grimme, unpublished.
   Rational Function algorithm used in ANCopt:
   F. Eckert, P. Pulay, H.-J. Werner, J. Comput. Chem., 1997, 18, 1473.
   
   with help from (in alphabetical order)
   C. Bannwarth, F. Bohle, G. Brandenburg, E. Caldeweyher, M. Checinski,
   S. Dohm, S. Ehlert, S. Ehrlich, F. März, H. Neugebauer, J. Pisarek,
   P. Pracht, P. Shushkov, and S. Spicher.
   
 * started run on 2019/09/16 at 12:41:07.068     
========================================================================
 # omp threads = 1
========================================================================
number of atoms            : 26
number of electrons        : 80
charge                     : 0
spin                       : .0
first test random number   : .7626

########################################################################
# WARNING! Please study the warnings concerning your input carefully
#  - XTBPATH is not set, using XTBHOME instead
#  - the use of '-opt' is discouraged, please use '--opt' next time
#  - the use of '-chrg' is discouraged, please use '--chrg' next time
#  - the use of '-uhf' is discouraged, please use '--uhf' next time
########################################################################

           ------------------------------------------------- 
          |                 G F N 2 - x T B                 |
          | Geometry, Frequencies, Noncovalent interactions |
          |            JCTC 2018 parametrisation            |
           ------------------------------------------------- 
      method parameters     
 k(s)        :  1.8500
 k(p)        :  2.2300
 k(d)        :  2.2300
 k(f)        :  2.0000
 kEN (H0ij)  : -2.0000
 D4 a1       :  0.5200
 D4 a2       :  5.0000
 D4 s6       :  1.0000
 D4 s8       :  2.7000
 D4 s9       :  5.0000
 alphaj      :  2.0000


            Z     q(EN)     CN     RAES       Cart. coordinates
     1  S   6.0    0.61    4.51    4.57     6.15774     2.63861     2.70606
     2  O   6.0   -0.27    1.12    1.80     7.94832     1.02086     1.25526
     3  O   6.0   -0.30    1.19    1.80     4.49785     1.01061     4.29431
     4  O   6.0   -0.27    2.12    1.84     4.59732     4.10708     0.93937
     5  O   6.0   -0.25    2.08    1.84     7.58924     4.37144     4.33720
     6  H   1.0    0.14    1.22    1.47     7.19389     6.08564     3.89412
     7  H   1.0    0.18    1.37    1.52     3.66183     2.97584    -0.12658
     8  O   6.0   -0.39    1.68    1.81    -2.90738    -1.69651     2.34301
     9  H   1.0    0.18    0.95    1.42    -3.89374    -1.74171     3.92693
    10  O   6.0   -0.39    1.67    1.81     2.08125     0.97480    -1.49151
    11  H   1.0    0.18    0.95    1.42     3.03561     0.65713    -3.06378
    12  O   6.0   -0.30    2.00    1.83    -5.16416    -4.10931    -0.98572
    13  H   1.0    0.14    0.97    1.43    -5.57679    -5.75279    -0.31991
    14  H   1.0    0.18    1.13    1.45    -4.32698    -3.23519     0.37431
    15  O   6.0   -0.23    2.94    2.64    -2.44163     1.30982    -1.04434
    16  H   1.0    0.16    1.19    1.46    -0.60422     1.39317    -1.37115
    17  H   1.0    0.12    1.07    1.44    -3.39976     0.78795    -2.56080
    18  H   1.0    0.16    1.19    1.46    -2.84079     0.24197     0.43616
    19  O   6.0   -0.22    2.94    2.64     1.58904    -2.13850     1.82297
    20  H   1.0    0.16    1.19    1.46    -0.23548    -2.21308     2.21718
    21  H   1.0    0.16    1.16    1.46     1.92920    -1.17115     0.26139
    22  H   1.0    0.15    1.02    1.43     2.59145    -1.50753     3.26816
    23  N   5.0   -0.23    3.05    1.93    -5.07825    -0.58197    -5.04178
    24  H   1.0    0.10    0.99    1.43    -6.84209    -0.04848    -5.60330
    25  H   1.0    0.12    1.03    1.43    -5.33693    -2.07773    -3.85566
    26  H   1.0    0.10    0.99    1.43    -4.22453    -1.30096    -6.61190

  Z AO/shell   Hii/eV     exponent
  1     Wed Apr 25 08:07:45 CEST 2018   EN: 2.200 GM2: 0.406  GM3: 0.0800  RAES: 1.40
     1s    -10.707211    1.230000
  7     Wed Apr 25 08:07:45 CEST 2018   EN: 3.040 GM2: 0.461  GM3:-0.0640  RAES: 1.90
     2s    -16.686243    2.339881
     2p    -12.523956    2.014332
  8     Wed Apr 25 08:07:45 CEST 2018   EN: 3.440 GM2: 0.452  GM3:-0.0517  RAES: 1.80
     2s    -20.229985    2.439742
     2p    -15.503117    2.137023
 16     Tue Apr 24 11:44:34 CEST 2018   EN: 2.580 GM2: 0.340  GM3:-0.0502  RAES: 3.10
     3s    -20.029654    1.981333
     3p    -11.377694    2.025643
     3d     -0.420282    1.702555
 no old-style atom pair restraining (fixing) potential

molecular fragmentation (1/2 indicates fragments):
11111112222222222222222222
# atoms in fragment 1/2:     7    19
 fragment masses (1/2) :       98.07      107.11
CMA distance (Bohr)    :   9.547
constraining FC (au)   :  0.0500
           ------------------------------------------------- 
          |        Self-Consistent Charge Iterations        |
           ------------------------------------------------- 

 Ncao       : 65
 Nao        : 64
 Nshell     : 38
 Nel        : 80
 T(el)      :   300.0
 intcut     :    25.0
 scfconv/Eh :  0.100E-05
   qconv/e  :  0.100E-03
 intneglect :  0.100E-07
 broydamp   :      0.250
 iter      E             dE          RMSdq      gap      omega  full diag
   1    -50.5193880 -0.505194E+02  0.706E+00   10.48       0.0  T
   2    -50.5791809 -0.597929E-01  0.509E+00    9.64       1.0  T
   3    -50.6189623 -0.397814E-01  0.147E+00    7.10       1.0  T
   4    -50.6258693 -0.690700E-02  0.585E-01    7.33       1.0  T
   5    -50.6264212 -0.551861E-03  0.372E-01    7.25       1.0  T
   6    -50.6271104 -0.689167E-03  0.165E-01    7.36       1.0  T
   7    -50.6272860 -0.175640E-03  0.633E-02    7.37       1.0  T
   8    -50.6273057 -0.197305E-04  0.377E-02    7.37       1.0  T
   9    -50.6273145 -0.875787E-05  0.167E-02    7.38       1.2  T
  10    -50.6273165 -0.199956E-05  0.302E-03    7.39       6.5  T
  11    -50.6273165 -0.389755E-07  0.136E-03    7.39      14.4  T
  12    -50.6273165 -0.617928E-08  0.598E-04    7.39      32.8  T
  13    -50.6273165 -0.150513E-08  0.179E-04    7.39     109.4  T
speedup  1.04
cpu  time for SCC    0.02 s
wall time for SCC    0.02 s

   *** convergence criteria satisfied after 13 iterations ***

          eigenvalues
 #    :          28         29         30         31         32         33         34         35
 occ. :        2.000      2.000      2.000      2.000      2.000      2.000      2.000      2.000
 eps  :       -12.829    -12.784    -12.532    -12.333    -12.168    -11.708    -11.401    -11.177
 #    :          36         37         38         39         40         41         42         43
 occ. :        2.000      2.000      2.000      2.000      2.000      0.000      0.000      0.000
 eps  :       -11.099    -10.720    -10.679    -10.201     -9.889     -2.504     -1.378     -0.399
 #    :          44         45         46         47         48         49         50         51
 occ. :        0.000      0.000      0.000      0.000      0.000      0.000      0.000      0.000
 eps  :        -0.104      0.622      1.364      2.610      3.378      3.806      4.018      5.155


   #   Z            q   n(s)   n(p)   n(d)      C6AA      α(0)
   1  16 S      1.666  1.574  1.801  0.958    89.538    15.926
   2   8 O     -0.694  1.777  4.917  0.000    28.542     7.163
   3   8 O     -0.716  1.764  4.952  0.000    29.143     7.238
   4   8 O     -0.596  1.720  4.876  0.000    25.058     6.758
   5   8 O     -0.529  1.717  4.812  0.000    23.523     6.547
   6   1 H      0.376  0.624  0.000  0.000     0.524     1.133
   7   1 H      0.413  0.587  0.000  0.000     0.455     1.055
   8   8 O     -0.854  1.823  5.031  0.000    33.197     7.727
   9   1 H      0.207  0.793  0.000  0.000     1.083     1.635
  10   8 O     -0.855  1.831  5.024  0.000    33.251     7.733
  11   1 H      0.221  0.779  0.000  0.000     1.015     1.583
  12   8 O     -0.657  1.752  4.905  0.000    26.589     6.959
  13   1 H      0.257  0.743  0.000  0.000     0.866     1.461
  14   1 H      0.330  0.670  0.000  0.000     0.636     1.251
  15   8 O     -0.486  1.668  4.818  0.000    22.542     6.412
  16   1 H      0.396  0.604  0.000  0.000     0.487     1.093
  17   1 H      0.370  0.630  0.000  0.000     0.543     1.158
  18   1 H      0.402  0.598  0.000  0.000     0.475     1.079
  19   8 O     -0.472  1.663  4.809  0.000    22.249     6.371
  20   1 H      0.403  0.597  0.000  0.000     0.475     1.079
  21   1 H      0.394  0.606  0.000  0.000     0.491     1.099
  22   1 H      0.379  0.621  0.000  0.000     0.525     1.138
  23   7 N     -0.457  1.385  4.073  0.000    32.036     8.406
  24   1 H      0.145  0.855  0.000  0.000     1.434     1.876
  25   1 H      0.210  0.790  0.000  0.000     1.056     1.610
  26   1 H      0.146  0.854  0.000  0.000     1.427     1.871

 Mol. C6AA /au·bohr⁶  :       5528.792322
 Mol. C8AA /au·bohr⁸  :     119481.379856
 Mol. α(0) /au        :        107.360328

 
 Wiberg/Mayer (AO) data. WBOs > 0.1 written file <wbo>
 largest (>0.05) Wiberg bond orders for each atom
           total WBO             WBO to atom ...
     1  S   4.862    O    2 1.396    O    3 1.332    O    4 1.073    O    5 1.025
     2  O   1.715    S    1 1.396    O    3 0.138    O    4 0.095    O    5 0.076
     3  O   1.708    S    1 1.332    O    2 0.138    O    4 0.092    O    5 0.070
     4  O   2.009    S    1 1.073    H    7 0.649    O    2 0.095    O    3 0.092
     5  O   2.063    S    1 1.025    H    6 0.834    O    2 0.076    O    3 0.070
     6  H   0.859    O    5 0.834
     7  H   0.830    O    4 0.649    O   10 0.161
     8  O   1.600    H    9 0.940    H   20 0.183    H   18 0.177    H   14 0.121    O   19 0.058    O   15 0.056    O   12 0.052
     9  H   0.957    O    8 0.940
    10  O   1.624    H   11 0.940    H   21 0.171    H   16 0.170    H    7 0.161    O   19 0.058    O   15 0.055
    11  H   0.951    O   10 0.940
    12  O   1.791    H   13 0.926    H   14 0.768    O    8 0.052
    13  H   0.934    O   12 0.926
    14  H   0.891    O   12 0.768    O    8 0.121
    15  O   2.256    H   17 0.768    H   16 0.667    H   18 0.656    O    8 0.056    O   10 0.055
    16  H   0.843    O   15 0.667    O   10 0.170
    17  H   0.863    O   15 0.768    N   23 0.087
    18  H   0.838    O   15 0.656    O    8 0.177
    19  O   2.267    H   22 0.798    H   21 0.669    H   20 0.650    O    8 0.058    O   10 0.058
    20  H   0.838    O   19 0.650    O    8 0.183
    21  H   0.844    O   19 0.669    O   10 0.171
    22  H   0.856    O   19 0.798
    23  N   3.017    H   24 0.975    H   26 0.975    H   25 0.922    H   17 0.087
    24  H   0.979    N   23 0.975
    25  H   0.956    N   23 0.922
    26  H   0.979    N   23 0.975
 MOs/occ written to file <molden.input>
 
molecular dipole:
                 x           y           z       tot (Debye)
 q only:       -0.883       1.293      -0.501
   full:       -1.063       1.428      -0.482       4.687
molecular quadrupole (traceless):
                xx          xy          yy          xz          yz          zz
 q only:      -15.698       9.563      13.372       4.642       4.836       2.326
  q+dip:      -16.709      19.261      13.398       3.978       7.922       3.311
   full:      -16.894      19.510      13.272       4.333       7.871       3.623

SCC energy    :     -50.6273165
rep           :       0.2890862
ES            :       0.2907678
AES           :      -0.0580910
AXC           :      -0.0058892
disp          :      -0.0161767
XB            :       0.0000000
fix           :       0.0000000
total E       :     -50.3381803
atomizationE  :       4.8684845     3055.02
(atE without considering molecular charge,
 total energy contains solvation terms)
H-L gap (eV)  :          7.3857
           ------------------------------------------------- 
          |                 ===============                 |
          |                   A N C O P T                   |
          |                 ===============                 |
          |          Approximate Normal Coordinate          |
          |           Rational Function Optimizer           |
           ------------------------------------------------- 
dumping coords to <xtbopt.coord> and <xtbopt.log>
 optlevel               2
 Maxcycle             520
 Maxmicro              25
 Econv         1.000000000000000E-007
 Gconv         2.000000000000000E-004
 Maxdispl       1.00000000000000     
 Hlow          5.000000000000000E-003
 S6             20.0000000000000     
 Nvar               72

generating ANC from model Hessian ...
 Shifting diagonal of input Hessian by   5.175564772262886E-003
 Lowest  eigenvalues of input Hessian
    0.005000    0.005090   -0.000000   -0.000000   -0.000000   -0.000000
   -0.000000    0.000000    0.005312    0.005543    0.005923    0.005995
    0.006410    0.006583    0.007067    0.008262    0.008753    0.011336
 Highest eigenvalues
    1.576663    1.598034    1.603039    3.209338    3.409299    3.459796
 
cpu  time for ANC gen    0.01 s
wall time for ANC gen    0.01 s
................................................................................
.............................. CYCLE    1 ......................................
................................................................................
   1    -50.6273165 -0.506273E+02  0.694E-05    7.39       0.0  T
   2    -50.6273165 -0.147224E-10  0.524E-05    7.39     374.5  T
   3    -50.6273165 -0.936495E-11  0.282E-05    7.39     695.7  T
speedup  0.94
cpu  time for SCC    0.00 s
wall time for SCC    0.00 s
speedup  1.01
cpu  time for grad    0.01 s
wall time for grad    0.01 s
 E :    -50.33818031  G :  0.267237    pred/act E change:  0.000D+00  0.365D-07
Maxdispl :   0.1234   ||displ|| :   0.2513   Lambda : -0.432D-01
Largest |displ|/coords:  0.1234 (  54)  0.0838 (  42)  0.0652 (  15)
................................................................................
.............................. CYCLE    2 ......................................
................................................................................
   1    -50.6408793 -0.506409E+02  0.302E-01    7.59       0.0  T
   2    -50.6412819 -0.402671E-03  0.229E-01    7.66       1.0  T
   3    -50.6414326 -0.150679E-03  0.123E-01    7.75       1.0  T
   4    -50.6414442 -0.115476E-04  0.291E-02    7.79       1.0  T
   5    -50.6414455 -0.130202E-05  0.711E-03    7.78       2.8  T
   6    -50.6414456 -0.875773E-07  0.336E-03    7.79       5.8  T
   7    -50.6414456 -0.259830E-07  0.124E-03    7.79      15.8  T
speedup  1.04
cpu  time for SCC    0.01 s
wall time for SCC    0.01 s
speedup  1.00
cpu  time for grad    0.01 s
wall time for grad    0.01 s
 E :    -50.37174420  G :  0.164482    pred/act E change:  0.000D+00 -0.336D-01
Maxdispl :   0.0990   ||displ|| :   0.2795   Lambda : -0.200D-01
Largest |displ|/coords:  0.0990 (  15)  0.0864 (  54)  0.0797 (  19)
................................................................................
.............................. CYCLE    3 ......................................
................................................................................
   1    -50.6480504 -0.506481E+02  0.281E-01    7.86       0.0  T
   2    -50.6484394 -0.388979E-03  0.210E-01    7.94       1.0  T
   3    -50.6485791 -0.139755E-03  0.112E-01    8.06       1.0  T
   4    -50.6485859 -0.679037E-05  0.261E-02    8.10       1.0  T
   5    -50.6485872 -0.125533E-05  0.589E-03    8.09       3.3  T
   6    -50.6485872 -0.574533E-07  0.286E-03    8.09       6.8  T
speedup  1.07
cpu  time for SCC    0.01 s
wall time for SCC    0.01 s
speedup  1.01
cpu  time for grad    0.01 s
wall time for grad    0.01 s
 E :    -50.38764969  G :  0.098246    pred/act E change: -0.229D-01 -0.159D-01
Maxdispl :   0.1240   ||displ|| :   0.3233   Lambda : -0.102D-01
Largest |displ|/coords:  0.1240 (  15)  0.1229 (  12)  0.0973 (  19)
................................................................................
.............................. CYCLE    4 ......................................
................................................................................
   1    -50.6504648 -0.506505E+02  0.265E-01    8.06       0.0  T
   2    -50.6507704 -0.305566E-03  0.195E-01    8.15       1.0  T
   3    -50.6508820 -0.111544E-03  0.944E-02    8.27       1.0  T
   4    -50.6508887 -0.673103E-05  0.234E-02    8.30       1.0  T
   5    -50.6508898 -0.110893E-05  0.554E-03    8.29       3.5  T
   6    -50.6508898 -0.526952E-07  0.280E-03    8.29       7.0  T
speedup  0.89
cpu  time for SCC    0.00 s
wall time for SCC    0.01 s
speedup  1.02
cpu  time for grad    0.01 s
wall time for grad    0.01 s
 E :    -50.39577170  G :  0.056569    pred/act E change: -0.108D-01 -0.812D-02
Maxdispl :   0.1300   ||displ|| :   0.3259   Lambda : -0.517D-02
Largest |displ|/coords:  0.1300 (  15)  0.1118 (   9)  0.1010 (  12)
................................................................................
.............................. CYCLE    5 ......................................
................................................................................
   1    -50.6509917 -0.506510E+02  0.224E-01    8.22       0.0  T
   2    -50.6511717 -0.180041E-03  0.163E-01    8.30       1.0  T
   3    -50.6512404 -0.687198E-04  0.695E-02    8.42       1.0  T
   4    -50.6512470 -0.653679E-05  0.191E-02    8.43       1.0  T
   5    -50.6512478 -0.788704E-06  0.465E-03    8.43       4.2  T
   6    -50.6512478 -0.386969E-07  0.241E-03    8.43       8.1  T
speedup  0.88
cpu  time for SCC    0.00 s
wall time for SCC    0.01 s
speedup  0.93
cpu  time for grad    0.01 s
wall time for grad    0.01 s
 E :    -50.39999619  G :  0.039982    pred/act E change: -0.561D-02 -0.422D-02
Maxdispl :   0.1450   ||displ|| :   0.4364   Lambda : -0.623D-02
Largest |displ|/coords:  0.1450 (  15)  0.1380 (  12)  0.1232 (  20)
................................................................................
.............................. CYCLE    6 ......................................
................................................................................
   1    -50.6540126 -0.506540E+02  0.306E-01    8.27       0.0  T
   2    -50.6544665 -0.453922E-03  0.219E-01    8.39       1.0  T
   3    -50.6546438 -0.177314E-03  0.101E-01    8.53       1.0  T
   4    -50.6546563 -0.124674E-04  0.286E-02    8.57       1.0  T
   5    -50.6546579 -0.160970E-05  0.772E-03    8.58       2.5  T
   6    -50.6546580 -0.124706E-06  0.401E-03    8.58       4.9  T
   7    -50.6546581 -0.272791E-07  0.132E-03    8.58      14.9  T
speedup  1.08
cpu  time for SCC    0.01 s
wall time for SCC    0.01 s
speedup  1.01
cpu  time for grad    0.01 s
wall time for grad    0.01 s
 E :    -50.40410416  G :  0.034732    pred/act E change: -0.286D-02 -0.411D-02
Maxdispl :   0.1818   ||displ|| :   0.4834   Lambda : -0.334D-02
Largest |displ|/coords:  0.1818 (   5)  0.1784 (  20)  0.1622 (   4)
................................................................................
.............................. CYCLE    7 ......................................
................................................................................
   1    -50.6463818 -0.506464E+02  0.432E-01    8.37       0.0  T
   2    -50.6466863 -0.304471E-03  0.318E-01    8.44       1.0  T
   3    -50.6468191 -0.132793E-03  0.926E-02    8.58       1.0  T
   4    -50.6468505 -0.314635E-04  0.246E-02    8.59       1.0  T
   5    -50.6468520 -0.142075E-05  0.734E-03    8.58       2.7  T
   6    -50.6468521 -0.106962E-06  0.451E-03    8.58       4.3  T
   7    -50.6468521 -0.252068E-07  0.117E-03    8.58      16.8  T
speedup  1.06
cpu  time for SCC    0.01 s
wall time for SCC    0.01 s
speedup  1.01
cpu  time for grad    0.01 s
wall time for grad    0.01 s
 E :    -50.40548260  G :  0.056592    pred/act E change: -0.371D-02 -0.138D-02
Maxdispl :   0.1920   ||displ|| :   0.3886   Lambda : -0.566D-02
Largest |displ|/coords:  0.1920 (   6)  0.1853 (   5)  0.1494 (   7)
................................................................................
.............................. CYCLE    8 ......................................
................................................................................
   1    -50.6607824 -0.506608E+02  0.590E-01    8.67       0.0  T
   2    -50.6608962 -0.113745E-03  0.450E-01    8.68       1.0  T
   3    -50.6609915 -0.953492E-04  0.548E-02    8.71       1.0  T
   4    -50.6610070 -0.154973E-04  0.117E-02    8.71       1.7  T
   5    -50.6610072 -0.167744E-06  0.672E-03    8.71       2.9  T
   6    -50.6610072 -0.224909E-07  0.259E-03    8.71       7.6  T
   7    -50.6610072 -0.117837E-07  0.565E-04    8.71      34.7  T
speedup  0.88
cpu  time for SCC    0.01 s
wall time for SCC    0.01 s
speedup  0.99
cpu  time for grad    0.01 s
wall time for grad    0.01 s
 E :    -50.40652513  G :  0.044367    pred/act E change: -0.206D-02 -0.104D-02
Maxdispl :   0.1066   ||displ|| :   0.2747   Lambda : -0.237D-02
Largest |displ|/coords:  0.1066 (   8)  0.1031 (  11)  0.1005 (  20)
................................................................................
.............................. CYCLE    9 ......................................
................................................................................
   1    -50.6627942 -0.506628E+02  0.206E-01    8.75       0.0  T
   2    -50.6628542 -0.599264E-04  0.152E-01    8.77       1.0  T
   3    -50.6628849 -0.307457E-04  0.406E-02    8.79       1.0  T
   4    -50.6628917 -0.681150E-05  0.116E-02    8.79       1.7  T
   5    -50.6628920 -0.298810E-06  0.433E-03    8.79       4.5  T
   6    -50.6628920 -0.309427E-07  0.247E-03    8.79       7.9  T
speedup  1.05
cpu  time for SCC    0.01 s
wall time for SCC    0.01 s
speedup  1.08
cpu  time for grad    0.01 s
wall time for grad    0.01 s
 E :    -50.40847719  G :  0.038915    pred/act E change: -0.326D-02 -0.195D-02
Maxdispl :   0.2474   ||displ|| :   0.5599   Lambda : -0.563D-02
Largest |displ|/coords:  0.2474 (   8)  0.1614 (   9)  0.1592 (  20)
................................................................................
.............................. CYCLE   10 ......................................
................................................................................
   1    -50.6670335 -0.506670E+02  0.437E-01    8.99       0.0  T
   2    -50.6672993 -0.265797E-03  0.325E-01    8.98       1.0  T
   3    -50.6674563 -0.156986E-03  0.874E-02    8.95       1.0  T
   4    -50.6674856 -0.293198E-04  0.283E-02    8.96       1.0  T
   5    -50.6674871 -0.153959E-05  0.100E-02    8.96       2.0  T
   6    -50.6674873 -0.168350E-06  0.582E-03    8.96       3.4  T
   7    -50.6674873 -0.484215E-07  0.147E-03    8.96      13.3  T
speedup  1.08
cpu  time for SCC    0.01 s
wall time for SCC    0.01 s
speedup  1.01
cpu  time for grad    0.01 s
wall time for grad    0.01 s
 E :    -50.41220954  G :  0.042081    pred/act E change: -0.127D-02 -0.373D-02
Maxdispl :   0.2125   ||displ|| :   0.4946   Lambda : -0.553D-02
Largest |displ|/coords:  0.2125 (   4)  0.1464 (  20)  0.1322 (  29)
................................................................................
.............................. CYCLE   11 ......................................
................................................................................
   1    -50.6811644 -0.506812E+02  0.493E-01    9.19       0.0  T
   2    -50.6814819 -0.317532E-03  0.370E-01    9.16       1.0  T
   3    -50.6816765 -0.194629E-03  0.976E-02    9.08       1.0  T
   4    -50.6817160 -0.394336E-04  0.281E-02    9.09       1.0  T
   5    -50.6817171 -0.111497E-05  0.101E-02    9.09       1.9  T
   6    -50.6817172 -0.138232E-06  0.559E-03    9.09       3.5  T
   7    -50.6817173 -0.361659E-07  0.141E-03    9.09      13.9  T
speedup  1.06
cpu  time for SCC    0.01 s
wall time for SCC    0.01 s
speedup  1.01
cpu  time for grad    0.01 s
wall time for grad    0.01 s
 E :    -50.41538483  G :  0.045630    pred/act E change: -0.369D-02 -0.318D-02
Maxdispl :   0.1614   ||displ|| :   0.3021   Lambda : -0.337D-02
Largest |displ|/coords:  0.1614 (   4)  0.1157 (  29)  0.1032 (   9)
................................................................................
.............................. CYCLE   12 ......................................
................................................................................
   1    -50.6852947 -0.506853E+02  0.233E-01    9.11       0.0  T
   2    -50.6853345 -0.397633E-04  0.173E-01    9.09       1.0  T
   3    -50.6853568 -0.223327E-04  0.356E-02    9.04       1.0  T
   4    -50.6853620 -0.522431E-05  0.105E-02    9.04       1.9  T
   5    -50.6853622 -0.177212E-06  0.376E-03    9.04       5.2  T
   6    -50.6853622 -0.191203E-07  0.196E-03    9.04      10.0  T
speedup  0.89
cpu  time for SCC    0.00 s
wall time for SCC    0.01 s
speedup  1.01
cpu  time for grad    0.01 s
wall time for grad    0.01 s
 E :    -50.41737718  G :  0.048426    pred/act E change: -0.344D-02 -0.199D-02
Maxdispl :   0.1637   ||displ|| :   0.4191   Lambda : -0.569D-02
Largest |displ|/coords:  0.1637 (   4)  0.1533 (  29)  0.1057 (  10)
................................................................................
.............................. CYCLE   13 ......................................
................................................................................
   1    -50.6933002 -0.506933E+02  0.344E-01    9.09       0.0  T
   2    -50.6934299 -0.129666E-03  0.256E-01    9.07       1.0  T
   3    -50.6935060 -0.760911E-04  0.626E-02    9.00       1.0  T
   4    -50.6935215 -0.155000E-04  0.147E-02    9.00       1.3  T
   5    -50.6935218 -0.304812E-06  0.608E-03    9.00       3.2  T
   6    -50.6935218 -0.301690E-07  0.289E-03    9.00       6.8  T
   7    -50.6935218 -0.150660E-07  0.624E-04    9.00      31.4  T
speedup  0.91
cpu  time for SCC    0.01 s
wall time for SCC    0.01 s
speedup  0.94
cpu  time for grad    0.01 s
wall time for grad    0.01 s
 E :    -50.41823262  G :  0.067308    pred/act E change: -0.184D-02 -0.855D-03
Maxdispl :   0.1328   ||displ|| :   0.3915   Lambda : -0.990D-02
Largest |displ|/coords:  0.1328 (  19)  0.1323 (  20)  0.1193 (   1)
................................................................................
.............................. CYCLE   14 ......................................
................................................................................
   1    -50.6823772 -0.506824E+02  0.476E-01    8.85       0.0  T
   2    -50.6826104 -0.233266E-03  0.357E-01    8.84       1.0  T
   3    -50.6827476 -0.137141E-03  0.871E-02    8.81       1.0  T
   4    -50.6827778 -0.302613E-04  0.254E-02    8.81       1.0  T
   5    -50.6827791 -0.121388E-05  0.874E-03    8.81       2.2  T
   6    -50.6827792 -0.144814E-06  0.485E-03    8.81       4.0  T
   7    -50.6827792 -0.303097E-07  0.114E-03    8.81      17.1  T
speedup  1.03
cpu  time for SCC    0.01 s
wall time for SCC    0.01 s
speedup  0.99
cpu  time for grad    0.01 s
wall time for grad    0.01 s
 E :    -50.41785965  G :  0.064774    pred/act E change: -0.335D-02  0.373D-03
Maxdispl :   0.1381   ||displ|| :   0.3946   Lambda : -0.108D-01
Largest |displ|/coords:  0.1381 (  23)  0.1110 (  20)  0.1047 (   6)
................................................................................
.............................. CYCLE   15 ......................................
................................................................................
   1    -50.6908246 -0.506908E+02  0.387E-01    8.95       0.0  T
   2    -50.6910990 -0.274392E-03  0.286E-01    8.96       1.0  T
   3    -50.6912507 -0.151694E-03  0.908E-02    8.99       1.0  T
   4    -50.6912762 -0.255239E-04  0.273E-02    9.01       1.0  T
   5    -50.6912779 -0.171152E-05  0.951E-03    9.00       2.1  T
   6    -50.6912780 -0.626015E-07  0.429E-03    9.00       4.6  T
   7    -50.6912780 -0.457311E-07  0.112E-03    9.00      17.5  T
speedup  1.08
cpu  time for SCC    0.01 s
wall time for SCC    0.01 s
speedup  1.02
cpu  time for grad    0.01 s
wall time for grad    0.01 s
 E :    -50.41977305  G :  0.045455    pred/act E change: -0.571D-02 -0.191D-02
Maxdispl :   0.0993   ||displ|| :   0.2160   Lambda : -0.409D-02
Largest |displ|/coords:  0.0993 (   4)  0.0708 (  23)  0.0560 (  21)
................................................................................
.............................. CYCLE   16 ......................................
................................................................................
   1    -50.6966847 -0.506967E+02  0.193E-01    9.07       0.0  T
   2    -50.6967471 -0.623960E-04  0.144E-01    9.05       1.0  T
   3    -50.6967875 -0.404490E-04  0.428E-02    8.99       1.0  T
   4    -50.6967940 -0.646572E-05  0.147E-02    8.98       1.3  T
   5    -50.6967944 -0.407081E-06  0.508E-03    8.99       3.9  T
   6    -50.6967944 -0.328077E-07  0.243E-03    8.99       8.1  T
speedup  1.03
cpu  time for SCC    0.01 s
wall time for SCC    0.01 s
speedup  0.99
cpu  time for grad    0.01 s
wall time for grad    0.01 s
 E :    -50.42193935  G :  0.026414    pred/act E change: -0.625D-02 -0.217D-02
Maxdispl :   0.0878   ||displ|| :   0.2039   Lambda : -0.164D-02
Largest |displ|/coords:  0.0878 (   9)  0.0871 (   1)  0.0656 (   2)
................................................................................
.............................. CYCLE   17 ......................................
................................................................................
   1    -50.6891847 -0.506892E+02  0.141E-01    8.94       0.0  T
   2    -50.6891964 -0.116282E-04  0.106E-01    8.94       1.0  T
   3    -50.6892060 -0.968598E-05  0.172E-02    8.94       1.1  T
   4    -50.6892073 -0.125037E-05  0.730E-03    8.94       2.7  T
   5    -50.6892074 -0.694517E-07  0.238E-03    8.94       8.2  T
   6    -50.6892074 -0.897597E-08  0.114E-03    8.94      17.2  T
speedup  1.05
cpu  time for SCC    0.01 s
wall time for SCC    0.01 s
speedup  1.00
cpu  time for grad    0.01 s
wall time for grad    0.01 s
 E :    -50.42254770  G :  0.026798    pred/act E change: -0.214D-02 -0.608D-03
Maxdispl :   0.0869   ||displ|| :   0.2020   Lambda : -0.117D-02
Largest |displ|/coords:  0.0869 (   4)  0.0586 (   9)  0.0569 (  12)
................................................................................
.............................. CYCLE   18 ......................................
................................................................................
   1    -50.6931729 -0.506932E+02  0.132E-01    9.00       0.0  T
   2    -50.6931839 -0.109791E-04  0.978E-02    8.99       1.0  T
   3    -50.6931914 -0.747712E-05  0.181E-02    8.97       1.1  T
   4    -50.6931928 -0.142041E-05  0.478E-03    8.97       4.1  T
   5    -50.6931928 -0.311357E-07  0.235E-03    8.97       8.4  T
speedup  0.83
cpu  time for SCC    0.00 s
wall time for SCC    0.00 s
speedup  0.98
cpu  time for grad    0.01 s
wall time for grad    0.01 s
 E :    -50.42350227  G :  0.020069    pred/act E change: -0.853D-03 -0.955D-03
Maxdispl :   0.2120   ||displ|| :   0.4696   Lambda : -0.228D-02
Largest |displ|/coords:  0.2120 (   4)  0.1595 (  26)  0.1585 (  11)
................................................................................
.............................. CYCLE   19 ......................................
................................................................................
   1    -50.6973519 -0.506974E+02  0.286E-01    9.02       0.0  T
   2    -50.6974306 -0.787136E-04  0.212E-01    9.01       1.0  T
   3    -50.6974765 -0.458370E-04  0.492E-02    8.97       1.0  T
   4    -50.6974859 -0.945646E-05  0.116E-02    8.97       1.7  T
   5    -50.6974862 -0.276335E-06  0.534E-03    8.97       3.7  T
   6    -50.6974862 -0.212559E-07  0.240E-03    8.97       8.2  T
speedup  0.88
cpu  time for SCC    0.00 s
wall time for SCC    0.01 s
speedup  1.00
cpu  time for grad    0.01 s
wall time for grad    0.01 s
 E :    -50.42447114  G :  0.024838    pred/act E change: -0.608D-03 -0.969D-03
Maxdispl :   0.0991   ||displ|| :   0.2488   Lambda : -0.119D-02
Largest |displ|/coords:  0.0991 (  11)  0.0961 (   1)  0.0783 (  10)
................................................................................
.............................. CYCLE   20 ......................................
................................................................................
   1    -50.7026280 -0.507026E+02  0.168E-01    9.00       0.0  T
   2    -50.7026406 -0.126572E-04  0.125E-01    9.00       1.0  T
   3    -50.7026513 -0.106362E-04  0.196E-02    9.00       1.0  T
   4    -50.7026526 -0.127905E-05  0.748E-03    9.00       2.6  T
   5    -50.7026526 -0.684656E-07  0.260E-03    9.00       7.5  T
   6    -50.7026526 -0.815233E-08  0.128E-03    9.00      15.3  T
speedup  0.85
cpu  time for SCC    0.01 s
wall time for SCC    0.01 s
speedup  0.98
cpu  time for grad    0.01 s
wall time for grad    0.01 s
 E :    -50.42499645  G :  0.016547    pred/act E change: -0.139D-02 -0.525D-03
Maxdispl :   0.0663   ||displ|| :   0.1600   Lambda : -0.621D-03
Largest |displ|/coords:  0.0663 (   1)  0.0560 (  11)  0.0541 (  13)
................................................................................
.............................. CYCLE   21 ......................................
................................................................................
   1    -50.7025040 -0.507025E+02  0.984E-02    9.00       0.0  T
   2    -50.7025116 -0.763665E-05  0.731E-02    8.99       1.0  T
   3    -50.7025160 -0.443817E-05  0.160E-02    8.98       1.2  T
   4    -50.7025170 -0.963259E-06  0.474E-03    8.98       4.1  T
   5    -50.7025170 -0.473954E-07  0.164E-03    8.99      11.9  T
   6    -50.7025170 -0.312070E-08  0.826E-04    8.99      23.8  T
speedup  1.03
cpu  time for SCC    0.01 s
wall time for SCC    0.01 s
speedup  0.98
cpu  time for grad    0.01 s
wall time for grad    0.01 s
 E :    -50.42541659  G :  0.012496    pred/act E change: -0.632D-03 -0.420D-03
Maxdispl :   0.1650   ||displ|| :   0.3403   Lambda : -0.102D-02
Largest |displ|/coords:  0.1650 (   1)  0.1434 (   4)  0.1367 (  11)
................................................................................
.............................. CYCLE   22 ......................................
................................................................................
   1    -50.7002415 -0.507002E+02  0.144E-01    8.98       0.0  T
   2    -50.7002522 -0.107400E-04  0.107E-01    8.97       1.0  T
   3    -50.7002576 -0.535969E-05  0.216E-02    8.95       1.0  T
   4    -50.7002592 -0.166687E-05  0.741E-03    8.96       2.6  T
   5    -50.7002593 -0.545853E-07  0.188E-03    8.96      10.4  T
   6    -50.7002593 -0.575410E-08  0.999E-04    8.96      19.6  T
speedup  1.03
cpu  time for SCC    0.01 s
wall time for SCC    0.01 s
speedup  0.98
cpu  time for grad    0.01 s
wall time for grad    0.01 s
 E :    -50.42604295  G :  0.016477    pred/act E change: -0.318D-03 -0.626D-03
Maxdispl :   0.1903   ||displ|| :   0.4428   Lambda : -0.122D-02
Largest |displ|/coords:  0.1903 (  11)  0.1640 (   1)  0.1245 (   3)
................................................................................
.............................. CYCLE   23 ......................................
................................................................................
   1    -50.7010561 -0.507011E+02  0.184E-01    8.99       0.0  T
   2    -50.7010770 -0.209315E-04  0.136E-01    8.98       1.0  T
   3    -50.7010898 -0.127665E-04  0.306E-02    8.97       1.0  T
   4    -50.7010927 -0.286776E-05  0.108E-02    8.97       1.8  T
   5    -50.7010928 -0.126740E-06  0.288E-03    8.97       6.8  T
   6    -50.7010928 -0.149503E-07  0.156E-03    8.97      12.6  T
speedup  1.05
cpu  time for SCC    0.01 s
wall time for SCC    0.01 s
speedup  0.98
cpu  time for grad    0.01 s
wall time for grad    0.01 s
 E :    -50.42668291  G :  0.016541    pred/act E change: -0.570D-03 -0.640D-03
Maxdispl :   0.2002   ||displ|| :   0.4320   Lambda : -0.954D-03
Largest |displ|/coords:  0.2002 (  11)  0.1785 (   1)  0.1650 (   9)
................................................................................
.............................. CYCLE   24 ......................................
................................................................................
   1    -50.7024924 -0.507025E+02  0.190E-01    8.98       0.0  T
   2    -50.7025024 -0.100397E-04  0.142E-01    8.98       1.0  T
   3    -50.7025119 -0.953165E-05  0.194E-02    8.96       1.0  T
   4    -50.7025129 -0.997742E-06  0.796E-03    8.96       2.5  T
   5    -50.7025130 -0.839218E-07  0.247E-03    8.96       7.9  T
   6    -50.7025130 -0.792396E-08  0.135E-03    8.96      14.6  T
speedup  1.03
cpu  time for SCC    0.01 s
wall time for SCC    0.01 s
speedup  0.98
cpu  time for grad    0.01 s
wall time for grad    0.01 s
 E :    -50.42726710  G :  0.014999    pred/act E change: -0.732D-03 -0.584D-03
Maxdispl :   0.1754   ||displ|| :   0.3001   Lambda : -0.727D-03
Largest |displ|/coords:  0.1754 (   1)  0.1009 (   3)  0.0815 (   4)
................................................................................
.............................. CYCLE   25 ......................................
................................................................................
   1    -50.7061273 -0.507061E+02  0.142E-01    8.99       0.0  T
   2    -50.7061356 -0.824215E-05  0.106E-01    8.99       1.0  T
   3    -50.7061410 -0.547439E-05  0.169E-02    9.00       1.2  T
   4    -50.7061420 -0.997071E-06  0.553E-03    9.00       3.5  T
   5    -50.7061421 -0.423718E-07  0.190E-03    9.00      10.3  T
   6    -50.7061421 -0.468552E-08  0.106E-03    9.00      18.5  T
speedup  1.05
cpu  time for SCC    0.01 s
wall time for SCC    0.01 s
speedup  1.05
cpu  time for grad    0.01 s
wall time for grad    0.01 s
 E :    -50.42757977  G :  0.010677    pred/act E change: -0.566D-03 -0.313D-03
Maxdispl :   0.1612   ||displ|| :   0.3246   Lambda : -0.491D-03
Largest |displ|/coords:  0.1612 (   1)  0.1152 (   9)  0.1144 (  11)

generating ANC from model Hessian ...
 Shifting diagonal of input Hessian by   5.060953271512271E-003
 Lowest  eigenvalues of input Hessian
    0.005000   -0.000000   -0.000000   -0.000000   -0.000000    0.000000
    0.000000    0.005096    0.005258    0.005335    0.005651    0.006113
    0.006378    0.006602    0.007080    0.007577    0.008120    0.009392
 Highest eigenvalues
    1.390534    1.395784    1.410120    2.510701    3.446814    3.597147
 
cpu  time for ANC gen    0.01 s
wall time for ANC gen    0.01 s
................................................................................
.............................. CYCLE   26 ......................................
................................................................................
   1    -50.7032389 -0.507032E+02  0.150E-01    9.03       0.0  T
   2    -50.7032513 -0.124610E-04  0.113E-01    9.02       1.0  T
   3    -50.7032599 -0.857661E-05  0.195E-02    9.01       1.0  T
   4    -50.7032618 -0.192595E-05  0.644E-03    9.01       3.0  T
   5    -50.7032619 -0.627999E-07  0.252E-03    9.01       7.8  T
   6    -50.7032619 -0.811620E-08  0.119E-03    9.01      16.5  T
   7    -50.7032619 -0.358094E-08  0.373E-04    9.01      52.6  T
   8    -50.7032619 -0.382187E-09  0.137E-04    9.01     142.9  T
speedup  0.91
cpu  time for SCC    0.01 s
wall time for SCC    0.01 s
speedup  0.96
cpu  time for grad    0.01 s
wall time for grad    0.02 s
 E :    -50.42783198  G :  0.014997    pred/act E change:  0.000D+00 -0.252D-03
Maxdispl :   0.1591   ||displ|| :   0.2692   Lambda : -0.858D-03
Largest |displ|/coords:  0.1591 (   4)  0.1088 (   2)  0.0704 (  14)
................................................................................
.............................. CYCLE   27 ......................................
................................................................................
   1    -50.7050837 -0.507051E+02  0.209E-01    9.04       0.0  T
   2    -50.7050941 -0.103354E-04  0.159E-01    9.04       1.0  T
   3    -50.7051029 -0.887323E-05  0.162E-02    9.05       1.2  T
   4    -50.7051043 -0.138659E-05  0.412E-03    9.05       4.8  T
   5    -50.7051043 -0.176971E-07  0.213E-03    9.05       9.2  T
   6    -50.7051044 -0.342080E-08  0.866E-04    9.05      22.6  T
speedup  1.05
cpu  time for SCC    0.01 s
wall time for SCC    0.01 s
speedup  1.05
cpu  time for grad    0.01 s
wall time for grad    0.01 s
 E :    -50.42841937  G :  0.010120    pred/act E change:  0.000D+00 -0.587D-03
Maxdispl :   0.1909   ||displ|| :   0.3889   Lambda : -0.799D-03
Largest |displ|/coords:  0.1909 (   4)  0.1713 (   2)  0.1317 (   1)
................................................................................
.............................. CYCLE   28 ......................................
................................................................................
   1    -50.7061134 -0.507061E+02  0.218E-01    9.10       0.0  T
   2    -50.7061207 -0.724022E-05  0.164E-01    9.10       1.0  T
   3    -50.7061267 -0.606677E-05  0.151E-02    9.11       1.3  T
   4    -50.7061277 -0.974581E-06  0.576E-03    9.11       3.4  T
   5    -50.7061278 -0.519162E-07  0.213E-03    9.10       9.2  T
   6    -50.7061278 -0.428072E-08  0.113E-03    9.10      17.3  T
speedup  0.86
cpu  time for SCC    0.01 s
wall time for SCC    0.01 s
speedup  0.96
cpu  time for grad    0.01 s
wall time for grad    0.01 s
 E :    -50.42898253  G :  0.012325    pred/act E change: -0.460D-03 -0.563D-03
Maxdispl :   0.2881   ||displ|| :   0.5257   Lambda : -0.844D-03
Largest |displ|/coords:  0.2881 (   2)  0.2519 (   4)  0.2087 (   1)
................................................................................
.............................. CYCLE   29 ......................................
................................................................................
   1    -50.7065540 -0.507066E+02  0.234E-01    9.14       0.0  T
   2    -50.7065632 -0.919350E-05  0.176E-01    9.14       1.0  T
   3    -50.7065725 -0.928229E-05  0.163E-02    9.15       1.2  T
   4    -50.7065735 -0.984019E-06  0.643E-03    9.15       3.1  T
   5    -50.7065735 -0.493622E-07  0.235E-03    9.15       8.3  T
   6    -50.7065735 -0.662636E-08  0.117E-03    9.15      16.8  T
speedup  1.05
cpu  time for SCC    0.01 s
wall time for SCC    0.01 s
speedup  0.98
cpu  time for grad    0.01 s
wall time for grad    0.01 s
 E :    -50.42956813  G :  0.013842    pred/act E change: -0.460D-03 -0.586D-03
Maxdispl :   0.3343   ||displ|| :   0.6632   Lambda : -0.100D-02
Largest |displ|/coords:  0.3343 (   2)  0.3135 (   4)  0.2263 (   1)
................................................................................
.............................. CYCLE   30 ......................................
................................................................................
   1    -50.6998238 -0.506998E+02  0.363E-01    9.16       0.0  T
   2    -50.6998580 -0.342103E-04  0.274E-01    9.15       1.0  T
   3    -50.6998858 -0.277822E-04  0.323E-02    9.15       1.0  T
   4    -50.6998905 -0.465681E-05  0.938E-03    9.15       2.1  T
   5    -50.6998906 -0.109401E-06  0.426E-03    9.15       4.6  T
   6    -50.6998906 -0.190510E-07  0.187E-03    9.15      10.5  T
   7    -50.6998906 -0.904593E-08  0.474E-04    9.15      41.4  T
speedup  1.01
cpu  time for SCC    0.01 s
wall time for SCC    0.01 s
speedup  1.03
cpu  time for grad    0.01 s
wall time for grad    0.01 s
 E :    -50.42995294  G :  0.028794    pred/act E change: -0.539D-03 -0.385D-03
Maxdispl :   0.1230   ||displ|| :   0.2826   Lambda : -0.131D-02
Largest |displ|/coords:  0.1230 (   2)  0.1086 (   1)  0.1029 (   4)
................................................................................
.............................. CYCLE   31 ......................................
................................................................................
   1    -50.7073775 -0.507074E+02  0.123E-01    9.21       0.0  T
   2    -50.7073888 -0.112321E-04  0.906E-02    9.21       1.0  T
   3    -50.7073960 -0.720005E-05  0.186E-02    9.21       1.1  T
   4    -50.7073971 -0.117867E-05  0.457E-03    9.21       4.3  T
   5    -50.7073972 -0.368068E-07  0.195E-03    9.21      10.1  T
speedup  1.02
cpu  time for SCC    0.00 s
wall time for SCC    0.00 s
speedup  0.97
cpu  time for grad    0.01 s
wall time for grad    0.01 s
 E :    -50.43063641  G :  0.013392    pred/act E change: -0.723D-03 -0.683D-03
Maxdispl :   0.2710   ||displ|| :   0.5172   Lambda : -0.916D-03
Largest |displ|/coords:  0.2710 (   4)  0.2442 (   2)  0.1881 (   5)
................................................................................
.............................. CYCLE   32 ......................................
................................................................................
   1    -50.7073716 -0.507074E+02  0.208E-01    9.23       0.0  T
   2    -50.7073832 -0.115879E-04  0.157E-01    9.23       1.0  T
   3    -50.7073950 -0.118170E-04  0.187E-02    9.23       1.1  T
   4    -50.7073962 -0.123950E-05  0.614E-03    9.23       3.2  T
   5    -50.7073963 -0.581429E-07  0.265E-03    9.23       7.4  T
   6    -50.7073963 -0.117578E-07  0.107E-03    9.23      18.3  T
speedup  1.02
cpu  time for SCC    0.01 s
wall time for SCC    0.01 s
speedup  1.04
cpu  time for grad    0.01 s
wall time for grad    0.01 s
 E :    -50.43116380  G :  0.016683    pred/act E change: -0.708D-03 -0.527D-03
Maxdispl :   0.2740   ||displ|| :   0.5512   Lambda : -0.970D-03
Largest |displ|/coords:  0.2740 (   2)  0.2688 (   4)  0.1760 (   1)
................................................................................
.............................. CYCLE   33 ......................................
................................................................................
   1    -50.7078485 -0.507078E+02  0.217E-01    9.27       0.0  T
   2    -50.7078605 -0.119624E-04  0.164E-01    9.27       1.0  T
   3    -50.7078708 -0.102891E-04  0.200E-02    9.26       1.0  T
   4    -50.7078723 -0.151663E-05  0.728E-03    9.26       2.7  T
   5    -50.7078723 -0.605728E-07  0.256E-03    9.26       7.7  T
   6    -50.7078724 -0.811104E-08  0.114E-03    9.26      17.2  T
speedup  1.05
cpu  time for SCC    0.01 s
wall time for SCC    0.01 s
speedup  0.97
cpu  time for grad    0.01 s
wall time for grad    0.01 s
 E :    -50.43198692  G :  0.013803    pred/act E change: -0.580D-03 -0.823D-03
Maxdispl :   0.2814   ||displ|| :   0.6133   Lambda : -0.131D-02
Largest |displ|/coords:  0.2814 (   2)  0.2619 (   4)  0.2346 (   5)
................................................................................
.............................. CYCLE   34 ......................................
................................................................................
   1    -50.7125119 -0.507125E+02  0.236E-01    9.31       0.0  T
   2    -50.7125289 -0.169941E-04  0.176E-01    9.31       1.0  T
   3    -50.7125407 -0.118136E-04  0.256E-02    9.30       1.0  T
   4    -50.7125432 -0.252602E-05  0.896E-03    9.30       2.2  T
   5    -50.7125433 -0.938991E-07  0.304E-03    9.30       6.4  T
   6    -50.7125433 -0.133567E-07  0.152E-03    9.31      12.9  T
   7    -50.7125433 -0.541128E-08  0.473E-04    9.31      41.4  T
speedup  1.04
cpu  time for SCC    0.01 s
wall time for SCC    0.01 s
speedup  1.05
cpu  time for grad    0.01 s
wall time for grad    0.01 s
 E :    -50.43284317  G :  0.014208    pred/act E change: -0.632D-03 -0.856D-03
Maxdispl :   0.3114   ||displ|| :   0.6626   Lambda : -0.100D-02
Largest |displ|/coords:  0.3114 (   2)  0.3059 (   4)  0.2560 (   5)
................................................................................
.............................. CYCLE   35 ......................................
................................................................................
   1    -50.7117922 -0.507118E+02  0.229E-01    9.31       0.0  T
   2    -50.7118054 -0.132206E-04  0.173E-01    9.31       1.0  T
   3    -50.7118189 -0.134716E-04  0.195E-02    9.31       1.0  T
   4    -50.7118203 -0.138259E-05  0.670E-03    9.31       2.9  T
   5    -50.7118203 -0.637400E-07  0.288E-03    9.31       6.8  T
   6    -50.7118204 -0.157276E-07  0.104E-03    9.31      18.8  T
speedup  0.88
cpu  time for SCC    0.00 s
wall time for SCC    0.01 s
speedup  0.97
cpu  time for grad    0.01 s
wall time for grad    0.01 s
 E :    -50.43357051  G :  0.016865    pred/act E change: -0.903D-03 -0.727D-03
Maxdispl :   0.2246   ||displ|| :   0.5041   Lambda : -0.103D-02
Largest |displ|/coords:  0.2246 (   4)  0.2191 (   2)  0.1774 (   5)
................................................................................
.............................. CYCLE   36 ......................................
................................................................................
   1    -50.7148138 -0.507148E+02  0.183E-01    9.33       0.0  T
   2    -50.7148253 -0.115381E-04  0.137E-01    9.33       1.0  T
   3    -50.7148353 -0.999948E-05  0.215E-02    9.33       1.0  T
   4    -50.7148368 -0.144353E-05  0.716E-03    9.33       2.7  T
   5    -50.7148369 -0.743853E-07  0.257E-03    9.33       7.6  T
   6    -50.7148369 -0.874366E-08  0.143E-03    9.33      13.7  T
speedup  1.03
cpu  time for SCC    0.01 s
wall time for SCC    0.01 s
speedup  1.03
cpu  time for grad    0.01 s
wall time for grad    0.01 s
 E :    -50.43430901  G :  0.013617    pred/act E change: -0.721D-03 -0.739D-03
Maxdispl :   0.3279   ||displ|| :   0.6842   Lambda : -0.120D-02
Largest |displ|/coords:  0.3279 (   2)  0.2838 (   4)  0.2535 (   1)
................................................................................
.............................. CYCLE   37 ......................................
................................................................................
   1    -50.7110953 -0.507111E+02  0.257E-01    9.30       0.0  T
   2    -50.7111184 -0.231132E-04  0.194E-01    9.30       1.0  T
   3    -50.7111386 -0.202594E-04  0.265E-02    9.31       1.0  T
   4    -50.7111416 -0.300128E-05  0.121E-02    9.31       1.6  T
   5    -50.7111418 -0.203666E-06  0.356E-03    9.31       5.5  T
   6    -50.7111419 -0.188551E-07  0.199E-03    9.31       9.9  T
   7    -50.7111419 -0.908442E-08  0.486E-04    9.31      40.3  T
speedup  1.06
cpu  time for SCC    0.01 s
wall time for SCC    0.01 s
speedup  0.97
cpu  time for grad    0.01 s
wall time for grad    0.01 s
 E :    -50.43458389  G :  0.025859    pred/act E change: -0.646D-03 -0.275D-03
Maxdispl :   0.1095   ||displ|| :   0.2307   Lambda : -0.150D-02
Largest |displ|/coords:  0.1095 (  11)  0.0741 (  18)  0.0590 (  24)
................................................................................
.............................. CYCLE   38 ......................................
................................................................................
   1    -50.7254257 -0.507254E+02  0.161E-01    9.35       0.0  T
   2    -50.7254377 -0.120077E-04  0.119E-01    9.35       1.0  T
   3    -50.7254478 -0.100563E-04  0.246E-02    9.35       1.0  T
   4    -50.7254488 -0.105618E-05  0.680E-03    9.34       2.9  T
   5    -50.7254489 -0.679094E-07  0.228E-03    9.35       8.6  T
   6    -50.7254489 -0.581963E-08  0.128E-03    9.35      15.4  T
speedup  0.86
cpu  time for SCC    0.00 s
wall time for SCC    0.01 s
speedup  0.96
cpu  time for grad    0.01 s
wall time for grad    0.01 s
 E :    -50.43457028  G :  0.030329    pred/act E change: -0.878D-03  0.136D-04
Maxdispl :   0.1949   ||displ|| :   0.4134   Lambda : -0.304D-02
Largest |displ|/coords:  0.1949 (  12)  0.1911 (   4)  0.1599 (  10)
................................................................................
.............................. CYCLE   39 ......................................
................................................................................
   1    -50.7084818 -0.507085E+02  0.288E-01    9.36       0.0  T
   2    -50.7085341 -0.522789E-04  0.216E-01    9.36       1.0  T
   3    -50.7085720 -0.378833E-04  0.425E-02    9.35       1.0  T
   4    -50.7085786 -0.659514E-05  0.156E-02    9.36       1.3  T
   5    -50.7085790 -0.432190E-06  0.490E-03    9.36       4.0  T
   6    -50.7085790 -0.310057E-07  0.273E-03    9.36       7.2  T
speedup  1.05
cpu  time for SCC    0.01 s
wall time for SCC    0.01 s
speedup  1.03
cpu  time for grad    0.01 s
wall time for grad    0.01 s
 E :    -50.43327943  G :  0.053987    pred/act E change: -0.790D-03  0.129D-02
Maxdispl :   0.1643   ||displ|| :   0.4130   Lambda : -0.961D-02
Largest |displ|/coords:  0.1643 (  10)  0.1411 (  12)  0.1222 (  21)
................................................................................
.............................. CYCLE   40 ......................................
................................................................................
   1    -50.7222087 -0.507222E+02  0.353E-01    9.34       0.0  T
   2    -50.7222981 -0.893933E-04  0.265E-01    9.35       1.0  T
   3    -50.7223677 -0.696056E-04  0.567E-02    9.36       1.0  T
   4    -50.7223773 -0.965861E-05  0.216E-02    9.36       1.0  T
   5    -50.7223780 -0.708248E-06  0.638E-03    9.36       3.1  T
   6    -50.7223781 -0.337555E-07  0.335E-03    9.36       5.9  T
   7    -50.7223781 -0.214697E-07  0.642E-04    9.36      30.5  T
speedup  1.06
cpu  time for SCC    0.01 s
wall time for SCC    0.01 s
speedup  0.97
cpu  time for grad    0.01 s
wall time for grad    0.01 s
 E :    -50.43294486  G :  0.056570    pred/act E change: -0.178D-02  0.335D-03
Maxdispl :   0.1161   ||displ|| :   0.3534   Lambda : -0.867D-02
Largest |displ|/coords:  0.1161 (  27)  0.1114 (  12)  0.0980 (   8)
................................................................................
.............................. CYCLE   41 ......................................
................................................................................
   1    -50.7115712 -0.507116E+02  0.300E-01    9.38       0.0  T
   2    -50.7116549 -0.837345E-04  0.224E-01    9.37       1.0  T
   3    -50.7117130 -0.581016E-04  0.527E-02    9.37       1.0  T
   4    -50.7117227 -0.961978E-05  0.175E-02    9.37       1.1  T
   5    -50.7117231 -0.488514E-06  0.585E-03    9.37       3.4  T
   6    -50.7117232 -0.489858E-07  0.318E-03    9.37       6.2  T
speedup  1.05
cpu  time for SCC    0.01 s
wall time for SCC    0.01 s
speedup  1.04
cpu  time for grad    0.01 s
wall time for grad    0.01 s
 E :    -50.43436847  G :  0.042584    pred/act E change: -0.562D-02 -0.142D-02
Maxdispl :   0.1213   ||displ|| :   0.2130   Lambda : -0.310D-02
Largest |displ|/coords:  0.1213 (   8)  0.0890 (   3)  0.0666 (  16)
................................................................................
.............................. CYCLE   42 ......................................
................................................................................
   1    -50.7175607 -0.507176E+02  0.193E-01    9.35       0.0  T
   2    -50.7176018 -0.411095E-04  0.143E-01    9.35       1.0  T
   3    -50.7176288 -0.269707E-04  0.356E-02    9.35       1.0  T
   4    -50.7176333 -0.446762E-05  0.762E-03    9.35       2.6  T
   5    -50.7176333 -0.538765E-07  0.396E-03    9.35       5.0  T
   6    -50.7176333 -0.857308E-08  0.127E-03    9.35      15.5  T
speedup  1.03
cpu  time for SCC    0.01 s
wall time for SCC    0.01 s
speedup  1.01
cpu  time for grad    0.01 s
wall time for grad    0.01 s
 E :    -50.43515790  G :  0.028858    pred/act E change: -0.488D-02 -0.789D-03
Maxdispl :   0.1303   ||displ|| :   0.2366   Lambda : -0.219D-02
Largest |displ|/coords:  0.1303 (   5)  0.0897 (   8)  0.0726 (   3)
................................................................................
.............................. CYCLE   43 ......................................
................................................................................
   1    -50.7177863 -0.507178E+02  0.175E-01    9.35       0.0  T
   2    -50.7178083 -0.220188E-04  0.131E-01    9.36       1.0  T
   3    -50.7178243 -0.160124E-04  0.271E-02    9.36       1.0  T
   4    -50.7178268 -0.249586E-05  0.909E-03    9.36       2.2  T
   5    -50.7178269 -0.122905E-06  0.321E-03    9.36       6.1  T
   6    -50.7178270 -0.100199E-07  0.164E-03    9.36      12.0  T
speedup  1.05
cpu  time for SCC    0.01 s
wall time for SCC    0.01 s
speedup  1.04
cpu  time for grad    0.01 s
wall time for grad    0.01 s
 E :    -50.43500037  G :  0.030330    pred/act E change: -0.162D-02  0.158D-03
Maxdispl :   0.0475   ||displ|| :   0.1372   Lambda : -0.173D-02
Largest |displ|/coords:  0.0475 (   8)  0.0466 (  12)  0.0406 (  27)
................................................................................
.............................. CYCLE   44 ......................................
................................................................................
   1    -50.7170263 -0.507170E+02  0.104E-01    9.38       0.0  T
   2    -50.7170324 -0.607407E-05  0.786E-02    9.38       1.0  T
   3    -50.7170374 -0.509567E-05  0.140E-02    9.38       1.4  T
   4    -50.7170381 -0.649077E-06  0.520E-03    9.38       3.8  T
   5    -50.7170381 -0.304555E-07  0.159E-03    9.38      12.3  T
speedup  1.02
cpu  time for SCC    0.00 s
wall time for SCC    0.00 s
speedup  0.94
cpu  time for grad    0.01 s
wall time for grad    0.01 s
 E :    -50.43586975  G :  0.007573    pred/act E change: -0.116D-02 -0.869D-03
Maxdispl :   0.0792   ||displ|| :   0.1550   Lambda : -0.253D-03
Largest |displ|/coords:  0.0792 (   4)  0.0638 (   6)  0.0486 (   1)
................................................................................
.............................. CYCLE   45 ......................................
................................................................................
   1    -50.7163359 -0.507163E+02  0.911E-02    9.35       0.0  T
   2    -50.7163384 -0.245143E-05  0.678E-02    9.34       1.0  T
   3    -50.7163405 -0.213700E-05  0.115E-02    9.34       1.7  T
   4    -50.7163407 -0.236877E-06  0.285E-03    9.35       6.9  T
   5    -50.7163408 -0.131283E-07  0.965E-04    9.34      20.3  T
speedup  0.82
cpu  time for SCC    0.00 s
wall time for SCC    0.00 s
speedup  0.94
cpu  time for grad    0.01 s
wall time for grad    0.01 s
 E :    -50.43594284  G :  0.010951    pred/act E change: -0.880D-03 -0.731D-04
Maxdispl :   0.0780   ||displ|| :   0.1921   Lambda : -0.284D-03
Largest |displ|/coords:  0.0780 (   1)  0.0762 (   4)  0.0600 (   6)
................................................................................
.............................. CYCLE   46 ......................................
................................................................................
   1    -50.7162693 -0.507163E+02  0.827E-02    9.36       0.0  T
   2    -50.7162712 -0.185516E-05  0.623E-02    9.36       1.0  T
   3    -50.7162728 -0.159557E-05  0.735E-03    9.37       2.7  T
   4    -50.7162730 -0.233257E-06  0.296E-03    9.36       6.6  T
   5    -50.7162730 -0.128526E-07  0.102E-03    9.36      19.2  T
speedup  1.02
cpu  time for SCC    0.01 s
wall time for SCC    0.00 s
speedup  1.02
cpu  time for grad    0.01 s
wall time for grad    0.01 s
 E :    -50.43615660  G :  0.010143    pred/act E change: -0.129D-03 -0.214D-03
Maxdispl :   0.1810   ||displ|| :   0.4214   Lambda : -0.633D-03
Largest |displ|/coords:  0.1810 (   4)  0.1622 (   6)  0.1599 (   1)
................................................................................
.............................. CYCLE   47 ......................................
................................................................................
   1    -50.7177298 -0.507177E+02  0.186E-01    9.40       0.0  T
   2    -50.7177412 -0.113813E-04  0.140E-01    9.40       1.0  T
   3    -50.7177484 -0.721770E-05  0.193E-02    9.41       1.0  T
   4    -50.7177503 -0.189320E-05  0.693E-03    9.41       2.8  T
   5    -50.7177504 -0.846510E-07  0.249E-03    9.41       7.9  T
   6    -50.7177504 -0.737332E-08  0.137E-03    9.41      14.3  T
speedup  1.05
cpu  time for SCC    0.01 s
wall time for SCC    0.01 s
speedup  1.03
cpu  time for grad    0.01 s
wall time for grad    0.01 s
 E :    -50.43649573  G :  0.009122    pred/act E change: -0.147D-03 -0.339D-03
Maxdispl :   0.1621   ||displ|| :   0.4028   Lambda : -0.562D-03
Largest |displ|/coords:  0.1621 (  12)  0.1577 (   4)  0.1530 (   6)
................................................................................
.............................. CYCLE   48 ......................................
................................................................................
   1    -50.7166930 -0.507167E+02  0.192E-01    9.38       0.0  T
   2    -50.7167052 -0.121595E-04  0.145E-01    9.38       1.0  T
   3    -50.7167128 -0.757192E-05  0.206E-02    9.38       1.0  T
   4    -50.7167147 -0.197742E-05  0.877E-03    9.38       2.2  T
   5    -50.7167148 -0.875575E-07  0.234E-03    9.38       8.4  T
   6    -50.7167148 -0.881257E-08  0.134E-03    9.38      14.6  T
speedup  1.03
cpu  time for SCC    0.01 s
wall time for SCC    0.01 s
speedup  1.01
cpu  time for grad    0.01 s
wall time for grad    0.01 s
 E :    -50.43688840  G :  0.013199    pred/act E change: -0.373D-03 -0.393D-03
Maxdispl :   0.2300   ||displ|| :   0.4599   Lambda : -0.702D-03
Largest |displ|/coords:  0.2300 (   6)  0.1774 (   4)  0.1753 (   2)
................................................................................
.............................. CYCLE   49 ......................................
................................................................................
   1    -50.7195333 -0.507195E+02  0.192E-01    9.35       0.0  T
   2    -50.7195498 -0.164984E-04  0.144E-01    9.35       1.0  T
   3    -50.7195583 -0.845015E-05  0.233E-02    9.36       1.0  T
   4    -50.7195611 -0.287111E-05  0.808E-03    9.35       2.4  T
   5    -50.7195612 -0.694941E-07  0.259E-03    9.35       7.6  T
   6    -50.7195612 -0.889050E-08  0.132E-03    9.35      14.9  T
speedup  1.03
cpu  time for SCC    0.01 s
wall time for SCC    0.01 s
speedup  1.02
cpu  time for grad    0.01 s
wall time for grad    0.01 s
 E :    -50.43735900  G :  0.014310    pred/act E change: -0.326D-03 -0.471D-03
Maxdispl :   0.2571   ||displ|| :   0.5736   Lambda : -0.642D-03
Largest |displ|/coords:  0.2571 (   4)  0.2181 (   1)  0.2148 (   6)
................................................................................
.............................. CYCLE   50 ......................................
................................................................................
   1    -50.7130030 -0.507130E+02  0.267E-01    9.24       0.0  T
   2    -50.7130301 -0.271182E-04  0.200E-01    9.24       1.0  T
   3    -50.7130446 -0.144793E-04  0.313E-02    9.24       1.0  T
   4    -50.7130494 -0.478733E-05  0.110E-02    9.24       1.8  T
   5    -50.7130495 -0.119083E-06  0.322E-03    9.24       6.1  T
   6    -50.7130495 -0.175616E-07  0.173E-03    9.24      11.3  T
   7    -50.7130495 -0.386051E-08  0.552E-04    9.24      35.5  T
speedup  1.06
cpu  time for SCC    0.01 s
wall time for SCC    0.01 s
speedup  0.97
cpu  time for grad    0.01 s
wall time for grad    0.01 s
 E :    -50.43769571  G :  0.018794    pred/act E change: -0.425D-03 -0.337D-03
Maxdispl :   0.2350   ||displ|| :   0.3501   Lambda : -0.692D-03
Largest |displ|/coords:  0.2350 (   2)  0.1235 (   6)  0.1062 (   4)
................................................................................
.............................. CYCLE   51 ......................................
................................................................................
   1    -50.7183957 -0.507184E+02  0.142E-01    9.23       0.0  T
   2    -50.7184104 -0.147321E-04  0.104E-01    9.24       1.0  T
   3    -50.7184176 -0.721874E-05  0.225E-02    9.24       1.0  T
   4    -50.7184196 -0.199186E-05  0.672E-03    9.24       2.9  T
   5    -50.7184197 -0.674752E-07  0.203E-03    9.24       9.7  T
   6    -50.7184197 -0.430121E-08  0.114E-03    9.24      17.2  T
speedup  0.88
cpu  time for SCC    0.00 s
wall time for SCC    0.01 s
speedup  0.96
cpu  time for grad    0.01 s
wall time for grad    0.01 s
 E :    -50.43816848  G :  0.011128    pred/act E change: -0.427D-03 -0.473D-03
Maxdispl :   0.2712   ||displ|| :   0.5745   Lambda : -0.101D-02
Largest |displ|/coords:  0.2712 (   6)  0.2531 (   4)  0.1703 (   2)
................................................................................
.............................. CYCLE   52 ......................................
................................................................................
   1    -50.7201299 -0.507201E+02  0.248E-01    9.29       0.0  T
   2    -50.7201604 -0.305236E-04  0.185E-01    9.29       1.0  T
   3    -50.7201760 -0.156030E-04  0.311E-02    9.29       1.0  T
   4    -50.7201811 -0.509320E-05  0.878E-03    9.29       2.2  T
   5    -50.7201812 -0.141692E-06  0.327E-03    9.29       6.0  T
   6    -50.7201813 -0.130365E-07  0.171E-03    9.29      11.4  T
   7    -50.7201813 -0.640997E-08  0.428E-04    9.29      45.8  T
speedup  1.04
cpu  time for SCC    0.01 s
wall time for SCC    0.01 s
speedup  1.02
cpu  time for grad    0.01 s
wall time for grad    0.01 s
 E :    -50.43882965  G :  0.014769    pred/act E change: -0.388D-03 -0.661D-03
Maxdispl :   0.2828   ||displ|| :   0.5671   Lambda : -0.953D-03
Largest |displ|/coords:  0.2828 (   4)  0.2414 (   2)  0.2064 (   6)

generating ANC from model Hessian ...
 Shifting diagonal of input Hessian by   9.507722044497223E-003
 Lowest  eigenvalues of input Hessian
    0.005000    0.009414   -0.000000   -0.000000   -0.000000    0.000000
    0.000000    0.000000    0.009603    0.009897    0.010135    0.010568
    0.010791    0.010974    0.011162    0.011537    0.012144    0.013011
 Highest eigenvalues
    1.387135    1.390966    1.421896    2.494371    3.441423    3.598900
 
cpu  time for ANC gen    0.02 s
wall time for ANC gen    0.02 s
................................................................................
.............................. CYCLE   53 ......................................
................................................................................
   1    -50.7177127 -0.507177E+02  0.258E-01    9.28       0.0  T
   2    -50.7177511 -0.384191E-04  0.191E-01    9.28       1.0  T
   3    -50.7177654 -0.142626E-04  0.388E-02    9.27       1.0  T
   4    -50.7177718 -0.645858E-05  0.865E-03    9.28       2.3  T
   5    -50.7177719 -0.116238E-06  0.323E-03    9.27       6.1  T
   6    -50.7177720 -0.115545E-07  0.164E-03    9.27      11.9  T
   7    -50.7177720 -0.420717E-08  0.476E-04    9.27      41.2  T
   8    -50.7177720 -0.531905E-09  0.147E-04    9.27     133.1  T
speedup  1.03
cpu  time for SCC    0.01 s
wall time for SCC    0.01 s
speedup  0.98
cpu  time for grad    0.02 s
wall time for grad    0.02 s
 E :    -50.43937596  G :  0.021838    pred/act E change:  0.000D+00 -0.546D-03
Maxdispl :   0.1908   ||displ|| :   0.3070   Lambda : -0.173D-02
Largest |displ|/coords:  0.1908 (   1)  0.1060 (   6)  0.1027 (   9)
................................................................................
.............................. CYCLE   54 ......................................
................................................................................
   1    -50.7196640 -0.507197E+02  0.263E-01    9.32       0.0  T
   2    -50.7196737 -0.966803E-05  0.197E-01    9.31       1.0  T
   3    -50.7196841 -0.104440E-04  0.240E-02    9.31       1.0  T
   4    -50.7196850 -0.910880E-06  0.570E-03    9.31       3.4  T
   5    -50.7196851 -0.490894E-07  0.321E-03    9.31       6.1  T
speedup  1.02
cpu  time for SCC    0.00 s
wall time for SCC    0.00 s
speedup  1.02
cpu  time for grad    0.01 s
wall time for grad    0.01 s
 E :    -50.44049695  G :  0.011679    pred/act E change:  0.000D+00 -0.112D-02
Maxdispl :   0.1854   ||displ|| :   0.3702   Lambda : -0.141D-02
Largest |displ|/coords:  0.1854 (   9)  0.1376 (   6)  0.1146 (  15)
................................................................................
.............................. CYCLE   55 ......................................
................................................................................
   1    -50.7212141 -0.507212E+02  0.294E-01    9.34       0.0  T
   2    -50.7212316 -0.175120E-04  0.221E-01    9.34       1.0  T
   3    -50.7212495 -0.178954E-04  0.316E-02    9.34       1.0  T
   4    -50.7212511 -0.162854E-05  0.973E-03    9.34       2.0  T
   5    -50.7212512 -0.123150E-06  0.313E-03    9.34       6.3  T
   6    -50.7212512 -0.119805E-07  0.192E-03    9.34      10.2  T
   7    -50.7212512 -0.708381E-08  0.508E-04    9.34      38.6  T
speedup  1.03
cpu  time for SCC    0.01 s
wall time for SCC    0.01 s
speedup  1.02
cpu  time for grad    0.01 s
wall time for grad    0.01 s
 E :    -50.44107370  G :  0.018529    pred/act E change: -0.944D-03 -0.577D-03
Maxdispl :   0.0971   ||displ|| :   0.2323   Lambda : -0.834D-03
Largest |displ|/coords:  0.0971 (   1)  0.0954 (   9)  0.0934 (   3)
................................................................................
.............................. CYCLE   56 ......................................
................................................................................
   1    -50.7212547 -0.507213E+02  0.172E-01    9.34       0.0  T
   2    -50.7212598 -0.503858E-05  0.129E-01    9.34       1.0  T
   3    -50.7212648 -0.501235E-05  0.153E-02    9.34       1.3  T
   4    -50.7212653 -0.492877E-06  0.442E-03    9.34       4.4  T
   5    -50.7212653 -0.321239E-07  0.184E-03    9.34      10.6  T
   6    -50.7212653 -0.502042E-08  0.104E-03    9.34      18.9  T
speedup  1.03
cpu  time for SCC    0.01 s
wall time for SCC    0.01 s
speedup  1.02
cpu  time for grad    0.01 s
wall time for grad    0.01 s
 E :    -50.44168830  G :  0.014034    pred/act E change: -0.804D-03 -0.615D-03
Maxdispl :   0.1990   ||displ|| :   0.3743   Lambda : -0.958D-03
Largest |displ|/coords:  0.1990 (   3)  0.1727 (   9)  0.1241 (   6)
................................................................................
.............................. CYCLE   57 ......................................
................................................................................
   1    -50.7213118 -0.507213E+02  0.232E-01    9.31       0.0  T
   2    -50.7213206 -0.879504E-05  0.173E-01    9.31       1.0  T
   3    -50.7213289 -0.831101E-05  0.244E-02    9.31       1.0  T
   4    -50.7213297 -0.833912E-06  0.536E-03    9.31       3.7  T
   5    -50.7213298 -0.479603E-07  0.257E-03    9.31       7.6  T
   6    -50.7213298 -0.986031E-08  0.133E-03    9.31      14.8  T
speedup  1.03
cpu  time for SCC    0.01 s
wall time for SCC    0.01 s
speedup  1.02
cpu  time for grad    0.01 s
wall time for grad    0.01 s
 E :    -50.44236229  G :  0.010680    pred/act E change: -0.440D-03 -0.674D-03
Maxdispl :   0.2372   ||displ|| :   0.4501   Lambda : -0.739D-03
Largest |displ|/coords:  0.2372 (   9)  0.2369 (   3)  0.1390 (   6)
................................................................................
.............................. CYCLE   58 ......................................
................................................................................
   1    -50.7163883 -0.507164E+02  0.291E-01    9.24       0.0  T
   2    -50.7164061 -0.177532E-04  0.218E-01    9.24       1.0  T
   3    -50.7164253 -0.192171E-04  0.314E-02    9.24       1.0  T
   4    -50.7164269 -0.165669E-05  0.943E-03    9.24       2.1  T
   5    -50.7164271 -0.129593E-06  0.367E-03    9.24       5.3  T
   6    -50.7164271 -0.170171E-07  0.193E-03    9.24      10.2  T
   7    -50.7164271 -0.476057E-08  0.447E-04    9.24      43.9  T
speedup  1.03
cpu  time for SCC    0.01 s
wall time for SCC    0.01 s
speedup  1.01
cpu  time for grad    0.01 s
wall time for grad    0.01 s
 E :    -50.44261893  G :  0.022287    pred/act E change: -0.546D-03 -0.257D-03
Maxdispl :   0.1935   ||displ|| :   0.3299   Lambda : -0.129D-02
Largest |displ|/coords:  0.1935 (   3)  0.1263 (   9)  0.0934 (  10)
................................................................................
.............................. CYCLE   59 ......................................
................................................................................
   1    -50.7225318 -0.507225E+02  0.185E-01    9.22       0.0  T
   2    -50.7225517 -0.199733E-04  0.136E-01    9.23       1.0  T
   3    -50.7225637 -0.119571E-04  0.286E-02    9.23       1.0  T
   4    -50.7225661 -0.243507E-05  0.819E-03    9.23       2.4  T
   5    -50.7225662 -0.113841E-06  0.284E-03    9.23       6.9  T
   6    -50.7225662 -0.859996E-08  0.152E-03    9.23      12.9  T
speedup  1.03
cpu  time for SCC    0.01 s
wall time for SCC    0.01 s
speedup  1.02
cpu  time for grad    0.01 s
wall time for grad    0.01 s
 E :    -50.44291589  G :  0.022696    pred/act E change: -0.445D-03 -0.297D-03
Maxdispl :   0.0555   ||displ|| :   0.1352   Lambda : -0.773D-03
Largest |displ|/coords:  0.0555 (   1)  0.0538 (  10)  0.0466 (  14)
................................................................................
.............................. CYCLE   60 ......................................
................................................................................
   1    -50.7229372 -0.507229E+02  0.946E-02    9.32       0.0  T
   2    -50.7229419 -0.468861E-05  0.708E-02    9.32       1.0  T
   3    -50.7229448 -0.285189E-05  0.122E-02    9.31       1.6  T
   4    -50.7229454 -0.640845E-06  0.279E-03    9.31       7.0  T
   5    -50.7229454 -0.155263E-07  0.119E-03    9.31      16.4  T
speedup  0.61
cpu  time for SCC    0.00 s
wall time for SCC    0.00 s
speedup  0.86
cpu  time for grad    0.01 s
wall time for grad    0.01 s
 E :    -50.44337118  G :  0.013596    pred/act E change: -0.717D-03 -0.455D-03
Maxdispl :   0.1446   ||displ|| :   0.2369   Lambda : -0.573D-03
Largest |displ|/coords:  0.1446 (   3)  0.1258 (   9)  0.0622 (   4)
................................................................................
.............................. CYCLE   61 ......................................
................................................................................
   1    -50.7211243 -0.507211E+02  0.166E-01    9.35       0.0  T
   2    -50.7211384 -0.140851E-04  0.124E-01    9.35       1.0  T
   3    -50.7211479 -0.946772E-05  0.228E-02    9.35       1.0  T
   4    -50.7211501 -0.223551E-05  0.651E-03    9.35       3.0  T
   5    -50.7211502 -0.803298E-07  0.239E-03    9.35       8.2  T
   6    -50.7211502 -0.609858E-08  0.125E-03    9.35      15.7  T
speedup  1.03
cpu  time for SCC    0.01 s
wall time for SCC    0.01 s
speedup  1.02
cpu  time for grad    0.01 s
wall time for grad    0.01 s
 E :    -50.44361661  G :  0.014871    pred/act E change: -0.394D-03 -0.245D-03
Maxdispl :   0.1928   ||displ|| :   0.2597   Lambda : -0.538D-03
Largest |displ|/coords:  0.1928 (   3)  0.0913 (   4)  0.0802 (   9)
................................................................................
.............................. CYCLE   62 ......................................
................................................................................
   1    -50.7238736 -0.507239E+02  0.141E-01    9.36       0.0  T
   2    -50.7238911 -0.175289E-04  0.103E-01    9.36       1.0  T
   3    -50.7238987 -0.757129E-05  0.264E-02    9.36       1.0  T
   4    -50.7239008 -0.213984E-05  0.576E-03    9.36       3.4  T
   5    -50.7239009 -0.719759E-07  0.202E-03    9.36       9.7  T
   6    -50.7239009 -0.524818E-08  0.108E-03    9.36      18.2  T
speedup  1.00
cpu  time for SCC    0.01 s
wall time for SCC    0.01 s
speedup  1.01
cpu  time for grad    0.01 s
wall time for grad    0.01 s
 E :    -50.44389174  G :  0.016510    pred/act E change: -0.303D-03 -0.275D-03
Maxdispl :   0.2975   ||displ|| :   0.4143   Lambda : -0.860D-03
Largest |displ|/coords:  0.2975 (   3)  0.1591 (   9)  0.1162 (   4)
................................................................................
.............................. CYCLE   63 ......................................
................................................................................
   1    -50.7237209 -0.507237E+02  0.254E-01    9.33       0.0  T
   2    -50.7237592 -0.382835E-04  0.188E-01    9.33       1.0  T
   3    -50.7237745 -0.153537E-04  0.380E-02    9.33       1.0  T
   4    -50.7237808 -0.630024E-05  0.827E-03    9.33       2.4  T
   5    -50.7237809 -0.126759E-06  0.294E-03    9.33       6.7  T
   6    -50.7237810 -0.141752E-07  0.146E-03    9.33      13.4  T
speedup  0.86
cpu  time for SCC    0.00 s
wall time for SCC    0.01 s
speedup  0.95
cpu  time for grad    0.01 s
wall time for grad    0.01 s
 E :    -50.44439043  G :  0.019367    pred/act E change: -0.287D-03 -0.499D-03
Maxdispl :   0.2492   ||displ|| :   0.3495   Lambda : -0.669D-03
Largest |displ|/coords:  0.2492 (   3)  0.1190 (   9)  0.0893 (   4)
................................................................................
.............................. CYCLE   64 ......................................
................................................................................
   1    -50.7260134 -0.507260E+02  0.190E-01    9.34       0.0  T
   2    -50.7260485 -0.351550E-04  0.140E-01    9.34       1.0  T
   3    -50.7260617 -0.132130E-04  0.349E-02    9.33       1.0  T
   4    -50.7260669 -0.513529E-05  0.783E-03    9.33       2.5  T
   5    -50.7260670 -0.113594E-06  0.271E-03    9.33       7.2  T
   6    -50.7260670 -0.993667E-08  0.143E-03    9.33      13.7  T
speedup  1.05
cpu  time for SCC    0.01 s
wall time for SCC    0.01 s
speedup  1.03
cpu  time for grad    0.01 s
wall time for grad    0.01 s
 E :    -50.44480251  G :  0.014377    pred/act E change: -0.504D-03 -0.412D-03
Maxdispl :   0.4514   ||displ|| :   0.6089   Lambda : -0.856D-03
Largest |displ|/coords:  0.4514 (   3)  0.2344 (   9)  0.1769 (   4)
[...]
Largest |displ|/coords:  0.0485 (   1)  0.0460 (  37)  0.0309 (   7)
................................................................................
.............................. CYCLE  142 ......................................
................................................................................
   1    -50.7617709 -0.507618E+02  0.776E-02    9.25       0.0  T
   2    -50.7617723 -0.146075E-05  0.580E-02    9.25       1.0  T
   3    -50.7617731 -0.743398E-06  0.955E-03    9.25       2.1  T
   4    -50.7617733 -0.241187E-06  0.323E-03    9.25       6.1  T
   5    -50.7617733 -0.664973E-08  0.467E-04    9.25      42.0  T
   6    -50.7617733 -0.160377E-09  0.314E-04    9.25      62.5  T
speedup  1.03
cpu  time for SCC    0.01 s
wall time for SCC    0.01 s
speedup  1.03
cpu  time for grad    0.01 s
wall time for grad    0.01 s
 E :    -50.46724425  G :  0.003073    pred/act E change: -0.107D-05  0.250D-05
Maxdispl :   0.0256   ||displ|| :   0.0444   Lambda : -0.130D-04
Largest |displ|/coords:  0.0256 (  37)  0.0144 (   8)  0.0109 (   6)
................................................................................
.............................. CYCLE  143 ......................................
................................................................................
   1    -50.7622200 -0.507622E+02  0.389E-02    9.25       0.0  T
   2    -50.7622206 -0.524482E-06  0.291E-02    9.25       1.0  T
   3    -50.7622208 -0.213098E-06  0.570E-03    9.25       3.4  T
   4    -50.7622209 -0.895948E-07  0.186E-03    9.25      10.6  T
   5    -50.7622209 -0.315857E-08  0.342E-04    9.25      57.3  T
   6    -50.7622209 -0.109189E-09  0.235E-04    9.25      83.6  T
speedup  0.98
cpu  time for SCC    0.01 s
wall time for SCC    0.01 s
speedup  1.01
cpu  time for grad    0.01 s
wall time for grad    0.01 s
 E :    -50.46724957  G :  0.000967    pred/act E change: -0.171D-05 -0.532D-05
Maxdispl :   0.0106   ||displ|| :   0.0248   Lambda : -0.141D-05
Largest |displ|/coords:  0.0106 (   1)  0.0098 (   8)  0.0089 (   5)
................................................................................
.............................. CYCLE  144 ......................................
................................................................................
   1    -50.7621726 -0.507622E+02  0.164E-02    9.25       0.0  T
   2    -50.7621726 -0.531643E-07  0.122E-02    9.25       1.6  T
   3    -50.7621727 -0.484644E-07  0.186E-03    9.25      10.5  T
   4    -50.7621727 -0.505968E-08  0.629E-04    9.25      31.2  T
   5    -50.7621727 -0.459906E-09  0.116E-04    9.25     169.3  T
speedup  1.00
cpu  time for SCC    0.00 s
wall time for SCC    0.01 s
speedup  0.94
cpu  time for grad    0.01 s
wall time for grad    0.01 s
 E :    -50.46725086  G :  0.000764    pred/act E change: -0.653D-05 -0.129D-05
Maxdispl :   0.0740   ||displ|| :   0.1453   Lambda : -0.598D-05
Largest |displ|/coords:  0.0740 (   1)  0.0521 (   8)  0.0448 (   5)
................................................................................
.............................. CYCLE  145 ......................................
................................................................................
   1    -50.7616531 -0.507617E+02  0.921E-02    9.24       0.0  T
   2    -50.7616547 -0.158012E-05  0.687E-02    9.24       1.0  T
   3    -50.7616561 -0.141860E-05  0.999E-03    9.24       2.0  T
   4    -50.7616563 -0.158488E-06  0.351E-03    9.24       5.6  T
   5    -50.7616563 -0.128142E-07  0.678E-04    9.24      28.9  T
   6    -50.7616563 -0.444160E-09  0.469E-04    9.24      41.8  T
speedup  1.02
cpu  time for SCC    0.01 s
wall time for SCC    0.01 s
speedup  1.02
cpu  time for grad    0.01 s
wall time for grad    0.01 s
 E :    -50.46725273  G :  0.001782    pred/act E change: -0.706D-06 -0.186D-05
Maxdispl :   0.0322   ||displ|| :   0.0593   Lambda : -0.346D-05
Largest |displ|/coords:  0.0322 (   1)  0.0192 (  37)  0.0183 (   7)
................................................................................
.............................. CYCLE  146 ......................................
................................................................................
   1    -50.7621029 -0.507621E+02  0.390E-02    9.25       0.0  T
   2    -50.7621032 -0.312261E-06  0.292E-02    9.25       1.0  T
   3    -50.7621035 -0.218662E-06  0.420E-03    9.25       4.7  T
   4    -50.7621035 -0.423509E-07  0.167E-03    9.25      11.7  T
   5    -50.7621035 -0.199118E-08  0.250E-04    9.25      78.5  T
   6    -50.7621035 -0.525091E-10  0.171E-04    9.25     114.6  T
speedup  0.86
cpu  time for SCC    0.00 s
wall time for SCC    0.01 s
speedup  0.96
cpu  time for grad    0.01 s
wall time for grad    0.01 s
 E :    -50.46725387  G :  0.000316    pred/act E change: -0.305D-05 -0.115D-05
Maxdispl :   0.0188   ||displ|| :   0.0312   Lambda : -0.562D-06
Largest |displ|/coords:  0.0188 (   1)  0.0099 (   8)  0.0097 (   3)

generating ANC from model Hessian ...
 Shifting diagonal of input Hessian by   4.933960577513744E-003
 Lowest  eigenvalues of input Hessian
   -0.000000   -0.000000   -0.000000    0.000000    0.000000    0.000000
    0.005000    0.005239    0.005601    0.006044    0.006840    0.007106
    0.007578    0.008026    0.008521    0.008906    0.009227    0.010648
 Highest eigenvalues
    1.405904    1.406997    1.447692    2.554264    3.468182    3.681073
 
cpu  time for ANC gen    0.02 s
wall time for ANC gen    0.02 s
................................................................................
.............................. CYCLE  147 ......................................
................................................................................
   1    -50.7620194 -0.507620E+02  0.177E-02    9.25       0.0  T
   2    -50.7620194 -0.533674E-07  0.132E-02    9.25       1.5  T
   3    -50.7620195 -0.505144E-07  0.174E-03    9.25      11.3  T
   4    -50.7620195 -0.522621E-08  0.643E-04    9.25      30.5  T
   5    -50.7620195 -0.431896E-09  0.130E-04    9.25     151.0  T
speedup  1.02
cpu  time for SCC    0.00 s
wall time for SCC    0.00 s
speedup  1.01
cpu  time for grad    0.01 s
wall time for grad    0.01 s
 E :    -50.46725434  G :  0.000321    pred/act E change:  0.000D+00 -0.469D-06
Maxdispl :   0.0018   ||displ|| :   0.0024   Lambda : -0.197D-06
Largest |displ|/coords:  0.0018 (   5)  0.0007 (   6)  0.0006 (  14)
................................................................................
.............................. CYCLE  148 ......................................
................................................................................
   1    -50.7620537 -0.507621E+02  0.172E-03    9.25       0.0  T
   2    -50.7620537 -0.110259E-08  0.128E-03    9.25      15.3  T
   3    -50.7620537 -0.654119E-09  0.207E-04    9.25      94.7  T
   4    -50.7620537 -0.153371E-09  0.710E-05    9.25     276.2  T
speedup  1.03
cpu  time for SCC    0.00 s
wall time for SCC    0.00 s
speedup  1.03
cpu  time for grad    0.01 s
wall time for grad    0.01 s
 E :    -50.46725449  G :  0.000183    pred/act E change:  0.000D+00 -0.148D-06
Maxdispl :   0.0026   ||displ|| :   0.0045   Lambda : -0.241D-06
Largest |displ|/coords:  0.0026 (   5)  0.0014 (  24)  0.0013 (  26)
................................................................................
.............................. CYCLE  149 ......................................
................................................................................
   1    -50.7620935 -0.507621E+02  0.307E-03    9.25       0.0  T
   2    -50.7620935 -0.435799E-08  0.227E-03    9.25       8.7  T
   3    -50.7620935 -0.207560E-08  0.432E-04    9.25      45.4  T
   4    -50.7620935 -0.581132E-09  0.137E-04    9.25     143.3  T
speedup  1.00
cpu  time for SCC    0.00 s
wall time for SCC    0.00 s
speedup  1.02
cpu  time for grad    0.01 s
wall time for grad    0.01 s
 E :    -50.46725463  G :  0.000153    pred/act E change: -0.986D-07 -0.138D-06
Maxdispl :   0.0015   ||displ|| :   0.0025   Lambda : -0.586D-07
Largest |displ|/coords:  0.0015 (   5)  0.0009 (   2)  0.0008 (   3)
................................................................................
.............................. CYCLE  150 ......................................
................................................................................
   1    -50.7620851 -0.507621E+02  0.144E-03    9.25       0.0  T
   2    -50.7620851 -0.949527E-09  0.106E-03    9.25      18.5  T
   3    -50.7620851 -0.457732E-09  0.215E-04    9.25      91.2  T
   4    -50.7620851 -0.139146E-09  0.699E-05    9.25     280.7  T
speedup  0.98
cpu  time for SCC    0.00 s
wall time for SCC    0.00 s
speedup  1.02
cpu  time for grad    0.01 s
wall time for grad    0.01 s
 E :    -50.46725467  G :  0.000115    pred/act E change: -0.121D-06 -0.377D-07
Maxdispl :   0.0021   ||displ|| :   0.0038   Lambda : -0.681D-07
Largest |displ|/coords:  0.0021 (   3)  0.0014 (   5)  0.0011 (   6)

   *** GEOMETRY OPTIMIZATION CONVERGED AFTER 150 ITERATIONS ***

------------------------------------------------------------------------
 total energy gain (kcal):     -0.0002
------------------------------------------------------------------------
================
 final structure:
================
$coord
        3.75355687370974        0.55563546325688        1.55166236515320      S 
        2.67466383362088       -1.21382609663064       -0.28359545744392      O 
        3.73158835383500       -0.40296278944691        4.09138709361182      O 
        2.64105567091427        3.05389881202976        1.28331724566065      O 
        6.64733469305025        0.82111599224319        0.78021247407156      O 
        7.45169650737770        0.89550922617336        2.38709187496182      H 
        1.65343197526455        4.08385068777297       -1.49306211906982      H 
       -2.01957756848891        1.39634916061961        2.54729002618929      O 
       -0.37112032835430        2.19055970606989        2.38816226387620      H 
        0.88128630258042        4.76870009945456       -3.04079876439416      O 
        1.27056970492790        6.53711538409121       -3.03620184327490      H 
       -3.88674168504762       -4.85768913648311       -0.26955178989335      O 
       -2.62996238145096       -4.82080040467859        1.07511861797963      H 
       -5.37131448232438       -4.07103961451023        0.41380178553579      H 
       -3.62281733137856        2.67604386160290       -2.09425941761251      O 
       -2.21691042681103        3.78632656379584       -2.57132838737842      H 
       -2.44212772800556        0.21149468962011       -2.96439686609001      H 
       -3.42495740606711        2.42541486799070       -0.26697777005851      H 
       -0.20350996968054       -3.56525728881954        3.04341694474167      O 
       -1.68386583102188       -0.35017749003440        2.98626040936272      H 
        1.01001737211556       -2.93425104621814        1.79363046872004      H 
        0.69888802774869       -3.44085222133892        4.61651473438586      H 
       -1.39321016765249       -1.53211671107625       -3.23057100739992      N 
       -1.07539621322801       -1.89685890884264       -5.08353917836871      H 
       -2.39695619820162       -2.99573594944253       -2.35546529505809      H 
        0.32437840214892       -1.32044687611862       -2.26811840826137      H 
$end
 
 Bond Distances (Angstroems)
 ---------------------------
S1-O2=1.4649         S1-O3=1.4366         S1-O4=1.4541         S1-O5=1.5910         O2-S1=1.4649         O3-S1=1.4366         
O4-S1=1.4541         O5-S1=1.5910         O5-H6=0.9517         H6-O5=0.9517         H7-O10=0.9844        O8-H9=0.9719         
O8-H20=0.9694        H9-O8=0.9719         O10-H7=0.9844        O10-H11=0.9582       H11-O10=0.9582       O12-H13=0.9742       
O12-H14=0.9598       H13-O12=0.9742       H14-O12=0.9598       O15-H16=0.9810       O15-H18=0.9816       H16-O15=0.9810       
H17-N23=1.0859       H18-O15=0.9816       O19-H21=0.9804       O19-H22=0.9619       H20-O8=0.9694        H21-O19=0.9804       
H22-O19=0.9619       N23-H17=1.0859       N23-H24=1.0134       N23-H25=1.0471       N23-H26=1.0479       H24-N23=1.0134       
H25-N23=1.0471       H26-N23=1.0479       
 N  H  Rav=1.0486 sigma=0.0257  Rmin=1.0134  Rmax=1.0859     4
 O  H  Rav=0.9704 sigma=0.0106  Rmin=0.9517  Rmax=0.9844    11
 S  O  Rav=1.4866 sigma=0.0611  Rmin=1.4366  Rmax=1.5910     4
 
 selected bond angles (degree)
 --------------------
O3-S1-O2=113.04                O4-S1-O2=111.01                O4-S1-O3=114.15                O5-S1-O2=105.16                
O5-S1-O3=106.20                O5-S1-O4=106.52                H6-O5-S1=101.82                H20-O8-H9=105.58               
H11-O10-H7=105.56              
 
 selected dihedral angles (degree)
 ---------------------------------
H6-O5-S1-O2=218.49            H6-O5-S1-O3=338.55            H6-O5-S1-O4=100.59            
 
 CMA Distance (Angstroems)
 ---------------------------
R(CMA):  3.1401

========================================================================
 FINAL SINGLEPOINT CALCULATION ON OPTIMIZED GEOMETRY
========================================================================

 Ncao       : 65
 Nao        : 64
 Nshell     : 38
 Nel        : 80
 T(el)      :   300.0
 intcut     :    25.0
 scfconv/Eh :  0.100E-05
   qconv/e  :  0.100E-03
 intneglect :  0.100E-07
 broydamp   :      0.250
 iter      E             dE          RMSdq      gap      omega  full diag
   1    -50.7620851 -0.507621E+02  0.272E-05    9.25       0.0  T
   2    -50.7620851 -0.554223E-12  0.172E-05    9.25    1142.4  T
   3    -50.7620851 -0.312639E-12  0.374E-06    9.25    5243.2  T
speedup  1.00
cpu  time for SCC    0.00 s
wall time for SCC    0.00 s

   *** convergence criteria satisfied after 3 iterations ***

          eigenvalues
 #    :          28         29         30         31         32         33         34         35
 occ. :        2.000      2.000      2.000      2.000      2.000      2.000      2.000      2.000
 eps  :       -13.558    -13.217    -12.604    -12.497    -12.298    -12.211    -12.155    -12.049
 #    :          36         37         38         39         40         41         42         43
 occ. :        2.000      2.000      2.000      2.000      2.000      0.000      0.000      0.000
 eps  :       -12.013    -11.927    -11.902    -11.729    -11.669     -2.417     -0.807     -0.373
 #    :          44         45         46         47         48         49         50         51
 occ. :        0.000      0.000      0.000      0.000      0.000      0.000      0.000      0.000
 eps  :         0.908      1.047      1.337      2.030      3.177      3.825      4.663      4.895


   #   Z            q   n(s)   n(p)   n(d)      C6AA      α(0)
   1  16 S      1.687  1.585  1.777  0.951    89.054    15.883
   2   8 O     -0.752  1.762  4.989  0.000    30.158     7.363
   3   8 O     -0.739  1.769  4.970  0.000    29.786     7.317
   4   8 O     -0.747  1.774  4.974  0.000    30.035     7.348
   5   8 O     -0.598  1.753  4.845  0.000    25.096     6.763
   6   1 H      0.345  0.655  0.000  0.000     0.590     1.202
   7   1 H      0.327  0.673  0.000  0.000     0.647     1.263
   8   8 O     -0.635  1.745  4.890  0.000    26.042     6.887
   9   1 H      0.304  0.696  0.000  0.000     0.708     1.322
  10   8 O     -0.618  1.745  4.873  0.000    25.615     6.831
  11   1 H      0.283  0.717  0.000  0.000     0.773     1.381
  12   8 O     -0.592  1.741  4.850  0.000    24.988     6.747
  13   1 H      0.337  0.663  0.000  0.000     0.621     1.238
  14   1 H      0.296  0.704  0.000  0.000     0.732     1.344
  15   8 O     -0.614  1.760  4.854  0.000    25.529     6.820
  16   1 H      0.329  0.671  0.000  0.000     0.639     1.256
  17   1 H      0.302  0.698  0.000  0.000     0.705     1.315
  18   1 H      0.333  0.667  0.000  0.000     0.631     1.248
  19   8 O     -0.632  1.739  4.893  0.000    25.956     6.876
  20   1 H      0.307  0.693  0.000  0.000     0.701     1.315
  21   1 H      0.320  0.680  0.000  0.000     0.664     1.280
  22   1 H      0.309  0.691  0.000  0.000     0.695     1.310
  23   7 N     -0.349  1.277  4.072  0.000    28.962     7.993
  24   1 H      0.225  0.775  0.000  0.000     0.986     1.555
  25   1 H      0.282  0.718  0.000  0.000     0.769     1.374
  26   1 H      0.288  0.712  0.000  0.000     0.751     1.358

 Mol. C6AA /au·bohr⁶  :       5449.572299
 Mol. C8AA /au·bohr⁸  :     117908.707170
 Mol. α(0) /au        :        106.589897

 
 Wiberg/Mayer (AO) data. WBOs > 0.1 written file <wbo>
 largest (>0.05) Wiberg bond orders for each atom
           total WBO             WBO to atom ...
     1  S   4.846    O    3 1.386    O    4 1.283    O    2 1.258    O    5 0.880
     2  O   1.735    S    1 1.258    O    4 0.108    O    3 0.107    H   26 0.078    O    5 0.061    H   21 0.060
     3  O   1.710    S    1 1.386    O    4 0.110    O    2 0.107    O    5 0.081
     4  O   1.730    S    1 1.283    O    3 0.110    O    2 0.108    O    5 0.072    H    7 0.065
     5  O   1.962    S    1 0.880    H    6 0.864    O    3 0.081    O    4 0.072    O    2 0.061
     6  H   0.880    O    5 0.864
     7  H   0.893    O   10 0.825    O    4 0.065
     8  O   1.847    H   20 0.862    H    9 0.859    H   18 0.053
     9  H   0.907    O    8 0.859
    10  O   1.858    H   11 0.916    H    7 0.825    H   16 0.057
    11  H   0.920    O   10 0.916
    12  O   1.910    H   14 0.910    H   13 0.848    H   25 0.085
    13  H   0.887    O   12 0.848
    14  H   0.912    O   12 0.910
    15  O   1.965    H   18 0.834    H   16 0.833    H   17 0.163    N   23 0.075
    16  H   0.892    O   15 0.833    O   10 0.057
    17  H   0.909    N   23 0.741    O   15 0.163
    18  H   0.889    O   15 0.834    O    8 0.053
    19  O   1.859    H   22 0.887    H   21 0.830
    20  H   0.906    O    8 0.862
    21  H   0.898    O   19 0.830    O    2 0.060
    22  H   0.905    O   19 0.887
    23  N   3.519    H   24 0.946    H   26 0.832    H   25 0.832    H   17 0.741    O   15 0.075
    24  H   0.949    N   23 0.946
    25  H   0.920    N   23 0.832    O   12 0.085
    26  H   0.917    N   23 0.832    O    2 0.078
 MOs/occ written to file <molden.input>
 
molecular dipole:
                 x           y           z       tot (Debye)
 q only:       -1.027      -0.752      -1.396
   full:        0.090      -0.414      -0.749       2.187
molecular quadrupole (traceless):
                xx          xy          yy          xz          yz          zz
 q only:       -1.232       4.640      -0.210       1.996       0.861       1.442
  q+dip:        0.137       6.118      -0.750       2.619       0.116       0.612
   full:        0.624       6.424      -1.163       2.827      -0.134       0.539

SCC energy    :     -50.7620851
rep           :       0.2945187
ES            :       0.2663329
AES           :      -0.0780837
AXC           :      -0.0080782
disp          :      -0.0193930
XB            :       0.0000000
fix           :       0.0000000
total E       :     -50.4672547
atomizationE  :       4.9975588     3136.02
(atE without considering molecular charge,
 total energy contains solvation terms)
H-L gap (eV)  :          9.2515
optimized geometry written to: xtbopt.xyz


------------------------------------------------------------------------
 * finished run on 2019/09/16 at 12:41:13.793     
------------------------------------------------------------------------
 total:
 * wall-time:     0 d,  0 h,  0 min,  6.721 sec
 *  cpu-time:     0 d,  0 h,  0 min,  5.138 sec
 * ratio c/w:     0.765 speedup
 SCF:
 * wall-time:     0 d,  0 h,  0 min,  1.574 sec
 *  cpu-time:     0 d,  0 h,  0 min,  0.513 sec
 * ratio c/w:     0.326 speedup
 ANC optimizer:
 * wall-time:     0 d,  0 h,  0 min,  5.092 sec
 *  cpu-time:     0 d,  0 h,  0 min,  4.572 sec
 * ratio c/w:     0.898 speedup

