      -----------------------------------------------------------      
     |                   =====================                   |     
     |                           x T B                           |     
     |                   =====================                   |     
     |                         S. Grimme                         |     
     |          Mulliken Center for Theoretical Chemistry        |     
     |                    University of Bonn                     |     
     |                 Version 6.0.1 (SAW181210)                 |     
      -----------------------------------------------------------      

   This program is distributed in the hope that it will be useful,
   but WITHOUT ANY WARRANTY; without even the implied warranty of
   MERCHANTABILITY or FITNESS FOR A PARTICULAR PURPOSE.
   
   FOR NON-COMMERCIAL, ACADEMIA USE ONLY.
   
   Cite this work as:
   S. Grimme, C. Bannwarth, P. Shushkov, J. Comput. Theory Chem., 2017,
   13, 1989-2009.
   C. Bannwarth, S. Ehlert and S. Grimme., ChemRxiv, 2018, preprint.
   http://doi.org/10.26434/chemrxiv.7246238.v1
   
   for sTDA-xTB:
   S. Grimme and C. Bannwarth, J. Chem. Phys., 2016, 145, 054103.
   
   in the mass-spec context:
   V. Asgeirsson, C. Bauer and S. Grimme, Chem. Sci., 2017, 8, 4879.
   
   if GBSA is used:
   P. Shushkov, F. März and S. Grimme, unpublished.
   
   for ANC optimizer:
   S. Grimme, unpublished.
   Rational Function algorithm used in ANCopt:
   F. Eckert, P. Pulay, H.-J. Werner, J. Comput. Chem., 1997, 18, 1473.
   
   with help from (in alphabetical order)
   C. Bannwarth, F. Bohle, G. Brandenburg, E. Caldeweyher, M. Checinski,
   S. Dohm, S. Ehlert, S. Ehrlich, F. März, H. Neugebauer, J. Pisarek,
   P. Pracht, P. Shushkov, and S. Spicher.
   
 * started run on 2019/09/16 at 12:51:06.308     
========================================================================
 # omp threads = 1
========================================================================
number of atoms            : 26
number of electrons        : 80
charge                     : 0
spin                       : .0
first test random number   : .4235

########################################################################
# WARNING! Please study the warnings concerning your input carefully
#  - XTBPATH is not set, using XTBHOME instead
#  - the use of '-opt' is discouraged, please use '--opt' next time
#  - the use of '-chrg' is discouraged, please use '--chrg' next time
#  - the use of '-uhf' is discouraged, please use '--uhf' next time
########################################################################

           ------------------------------------------------- 
          |                 G F N 2 - x T B                 |
          | Geometry, Frequencies, Noncovalent interactions |
          |            JCTC 2018 parametrisation            |
           ------------------------------------------------- 
      method parameters     
 k(s)        :  1.8500
 k(p)        :  2.2300
 k(d)        :  2.2300
 k(f)        :  2.0000
 kEN (H0ij)  : -2.0000
 D4 a1       :  0.5200
 D4 a2       :  5.0000
 D4 s6       :  1.0000
 D4 s8       :  2.7000
 D4 s9       :  5.0000
 alphaj      :  2.0000


            Z     q(EN)     CN     RAES       Cart. coordinates
     1  S   6.0    0.61    4.53    4.60    -1.04628    -2.34235    -1.90501
     2  O   6.0   -0.30    1.20    1.80    -1.64593     0.25733    -2.80512
     3  O   6.0   -0.30    1.19    1.80    -2.17426    -2.73631     0.64461
     4  O   6.0   -0.28    2.12    1.84     1.70887    -2.65831    -1.75725
     5  O   6.0   -0.25    2.10    1.84    -2.09745    -4.20192    -3.67971
     6  H   1.0    0.14    1.29    1.49    -0.75606    -5.21861    -4.35655
     7  H   1.0    0.18    1.36    1.52     2.39638    -1.44390    -0.59810
     8  O   6.0   -0.39    1.66    1.81     2.87630     0.72798     1.28743
     9  H   1.0    0.17    0.95    1.42     4.66752     0.84123     1.79975
    10  O   6.0   -0.36    1.52    1.80    -2.44971     3.91538     5.25416
    11  H   1.0    0.17    0.94    1.42    -3.60455     4.38958     6.64168
    12  O   6.0   -0.30    2.10    1.84    -1.65094     7.28371     2.23953
    13  H   1.0    0.18    1.18    1.46    -2.00492     5.99166     3.47239
    14  H   1.0    0.15    0.97    1.43    -2.31974     8.82158     2.94823
    15  O   6.0   -0.22    2.92    2.58     0.61144     4.14540    -0.72269
    16  H   1.0    0.15    1.03    1.43    -0.62655     3.20963    -1.76267
    17  H   1.0    0.14    1.08    1.44    -0.21628     5.37544     0.41392
    18  H   1.0    0.16    1.17    1.46     1.75544     2.99609     0.20568
    19  O   6.0   -0.23    2.94    2.64    -0.40300     0.00809     4.40052
    20  H   1.0    0.15    1.02    1.43    -1.57072    -1.14998     3.51443
    21  H   1.0    0.16    1.17    1.46     1.14139     0.34297     3.40416
    22  H   1.0    0.17    1.24    1.48    -1.25077     1.58766     4.92753
    23  N   5.0   -0.22    3.01    1.93     1.79287    -7.18522    -5.65360
    24  H   1.0    0.10    0.99    1.43     1.44208    -9.03737    -5.25666
    25  H   1.0    0.10    0.99    1.43     3.60349    -6.86134    -5.08106
    26  H   1.0    0.10    0.99    1.43     1.82138    -7.05843    -7.57562

  Z AO/shell   Hii/eV     exponent
  1     Wed Apr 25 08:07:45 CEST 2018   EN: 2.200 GM2: 0.406  GM3: 0.0800  RAES: 1.40
     1s    -10.707211    1.230000
  7     Wed Apr 25 08:07:45 CEST 2018   EN: 3.040 GM2: 0.461  GM3:-0.0640  RAES: 1.90
     2s    -16.686243    2.339881
     2p    -12.523956    2.014332
  8     Wed Apr 25 08:07:45 CEST 2018   EN: 3.440 GM2: 0.452  GM3:-0.0517  RAES: 1.80
     2s    -20.229985    2.439742
     2p    -15.503117    2.137023
 16     Tue Apr 24 11:44:34 CEST 2018   EN: 2.580 GM2: 0.340  GM3:-0.0502  RAES: 3.10
     3s    -20.029654    1.981333
     3p    -11.377694    2.025643
     3d     -0.420282    1.702555
 no old-style atom pair restraining (fixing) potential

molecular fragmentation (1/2 indicates fragments):
11111112222222222222222222
# atoms in fragment 1/2:     7    19
 fragment masses (1/2) :       98.07      107.11
CMA distance (Bohr)    :   5.118
constraining FC (au)   :  0.0500
           ------------------------------------------------- 
          |        Self-Consistent Charge Iterations        |
           ------------------------------------------------- 

 Ncao       : 65
 Nao        : 64
 Nshell     : 38
 Nel        : 80
 T(el)      :   300.0
 intcut     :    25.0
 scfconv/Eh :  0.100E-05
   qconv/e  :  0.100E-03
 intneglect :  0.100E-07
 broydamp   :      0.250
 iter      E             dE          RMSdq      gap      omega  full diag
   1    -50.5179372 -0.505179E+02  0.709E+00   10.21       0.0  T
   2    -50.5727683 -0.548311E-01  0.512E+00    9.08       1.0  T
   3    -50.6126295 -0.398611E-01  0.140E+00    5.11       1.0  T
   4    -50.6191074 -0.647792E-02  0.597E-01    5.34       1.0  T
   5    -50.6197609 -0.653569E-03  0.361E-01    5.20       1.0  T
   6    -50.6204119 -0.650962E-03  0.159E-01    5.32       1.0  T
   7    -50.6205756 -0.163640E-03  0.557E-02    5.36       1.0  T
   8    -50.6205914 -0.158356E-04  0.348E-02    5.35       1.0  T
   9    -50.6205995 -0.813501E-05  0.128E-02    5.37       1.5  T
  10    -50.6206006 -0.107004E-05  0.224E-03    5.37       8.8  T
  11    -50.6206006 -0.163829E-07  0.125E-03    5.37      15.7  T
  12    -50.6206006 -0.543691E-08  0.363E-04    5.37      54.0  T
  13    -50.6206006 -0.512316E-09  0.160E-04    5.37     122.9  T
speedup  0.96
cpu  time for SCC    0.02 s
wall time for SCC    0.02 s

   *** convergence criteria satisfied after 13 iterations ***

          eigenvalues
 #    :          28         29         30         31         32         33         34         35
 occ. :        2.000      2.000      2.000      2.000      2.000      2.000      2.000      2.000
 eps  :       -12.963    -12.793    -12.567    -12.372    -12.208    -12.066    -11.737    -10.981
 #    :          36         37         38         39         40         41         42         43
 occ. :        2.000      2.000      2.000      2.000      2.000      0.000      0.000      0.000
 eps  :       -10.824    -10.817    -10.702     -8.376     -8.054     -2.683     -1.262     -0.274
 #    :          44         45         46         47         48         49         50         51
 occ. :        0.000      0.000      0.000      0.000      0.000      0.000      0.000      0.000
 eps  :         0.096      0.368      0.512      2.131      3.086      4.082      4.104      4.671


   #   Z            q   n(s)   n(p)   n(d)      C6AA      α(0)
   1  16 S      1.695  1.577  1.784  0.944    88.879    15.867
   2   8 O     -0.723  1.765  4.958  0.000    29.348     7.263
   3   8 O     -0.716  1.768  4.948  0.000    29.158     7.240
   4   8 O     -0.598  1.722  4.875  0.000    25.100     6.763
   5   8 O     -0.547  1.714  4.833  0.000    23.913     6.602
   6   1 H      0.387  0.613  0.000  0.000     0.502     1.108
   7   1 H      0.412  0.588  0.000  0.000     0.456     1.056
   8   8 O     -0.858  1.837  5.021  0.000    33.379     7.747
   9   1 H      0.221  0.779  0.000  0.000     1.016     1.584
  10   8 O     -0.894  1.831  5.063  0.000    34.502     7.878
  11   1 H      0.172  0.828  0.000  0.000     1.277     1.775
  12   8 O     -0.668  1.739  4.929  0.000    26.872     6.997
  13   1 H      0.344  0.656  0.000  0.000     0.598     1.212
  14   1 H      0.272  0.728  0.000  0.000     0.812     1.415
  15   8 O     -0.451  1.655  4.797  0.000    21.812     6.308
  16   1 H      0.395  0.605  0.000  0.000     0.495     1.105
  17   1 H      0.420  0.580  0.000  0.000     0.449     1.053
  18   1 H      0.403  0.597  0.000  0.000     0.475     1.080
  19   8 O     -0.478  1.667  4.811  0.000    22.365     6.387
  20   1 H      0.373  0.627  0.000  0.000     0.538     1.152
  21   1 H      0.385  0.615  0.000  0.000     0.510     1.119
  22   1 H      0.403  0.597  0.000  0.000     0.472     1.074
  23   7 N     -0.448  1.393  4.055  0.000    31.772     8.371
  24   1 H      0.166  0.834  0.000  0.000     1.298     1.785
  25   1 H      0.170  0.830  0.000  0.000     1.271     1.766
  26   1 H      0.166  0.834  0.000  0.000     1.300     1.786

 Mol. C6AA /au·bohr⁶  :       5546.114463
 Mol. C8AA /au·bohr⁸  :     119801.518704
 Mol. α(0) /au        :        107.494664

 
 Wiberg/Mayer (AO) data. WBOs > 0.1 written file <wbo>
 largest (>0.05) Wiberg bond orders for each atom
           total WBO             WBO to atom ...
     1  S   4.824    O    3 1.333    O    2 1.322    O    4 1.062    O    5 1.061
     2  O   1.701    S    1 1.322    O    3 0.133    O    4 0.092    O    5 0.075    H   16 0.054
     3  O   1.705    S    1 1.333    O    2 0.133    O    4 0.093    O    5 0.076
     4  O   2.007    S    1 1.062    H    7 0.660    O    3 0.093    O    2 0.092    O    5 0.051
     5  O   2.059    S    1 1.061    H    6 0.756    O    3 0.076    O    2 0.075    O    4 0.051
     6  H   0.850    O    5 0.756    N   23 0.074
     7  H   0.830    O    4 0.660    O    8 0.151
     8  O   1.622    H    9 0.943    H   18 0.181    H   21 0.165    H    7 0.151    O   15 0.059    O   19 0.057
     9  H   0.951    O    8 0.943
    10  O   1.459    H   11 0.958    H   22 0.218    H   13 0.150    O   19 0.065    O   12 0.058
    11  H   0.970    O   10 0.958
    12  O   1.813    H   14 0.907    H   13 0.729    H   17 0.086    O   10 0.058
    13  H   0.882    O   12 0.729    O   10 0.150
    14  H   0.926    O   12 0.907
    15  O   2.291    H   16 0.784    H   17 0.728    H   18 0.654    O    8 0.059
    16  H   0.844    O   15 0.784    O    2 0.054
    17  H   0.823    O   15 0.728    O   12 0.086
    18  H   0.838    O   15 0.654    O    8 0.181
    19  O   2.257    H   20 0.806    H   21 0.682    H   22 0.611    O   10 0.065    O    8 0.057
    20  H   0.861    O   19 0.806
    21  H   0.852    O   19 0.682    O    8 0.165
    22  H   0.838    O   19 0.611    O   10 0.218
    23  N   3.015    H   26 0.971    H   24 0.971    H   25 0.968    H    6 0.074
    24  H   0.972    N   23 0.971
    25  H   0.971    N   23 0.968
    26  H   0.973    N   23 0.971
 MOs/occ written to file <molden.input>
 
molecular dipole:
                 x           y           z       tot (Debye)
 q only:        1.696      -1.932      -2.366
   full:        2.008      -2.449      -2.446      10.172
molecular quadrupole (traceless):
                xx          xy          yy          xz          yz          zz
 q only:       -8.377      -2.313      12.061       0.038       5.345      -3.685
  q+dip:      -10.800      -9.188      14.676      -4.957      16.459      -3.876
   full:      -10.636      -9.134      14.701      -4.918      16.875      -4.066

SCC energy    :     -50.6206006
rep           :       0.2889151
ES            :       0.3062360
AES           :      -0.0589181
AXC           :      -0.0061996
disp          :      -0.0171385
XB            :       0.0000000
fix           :       0.0000000
total E       :     -50.3315821
atomizationE  :       4.8618862     3050.88
(atE without considering molecular charge,
 total energy contains solvation terms)
H-L gap (eV)  :          5.3714
           ------------------------------------------------- 
          |                 ===============                 |
          |                   A N C O P T                   |
          |                 ===============                 |
          |          Approximate Normal Coordinate          |
          |           Rational Function Optimizer           |
           ------------------------------------------------- 
dumping coords to <xtbopt.coord> and <xtbopt.log>
 optlevel               2
 Maxcycle             520
 Maxmicro              25
 Econv         1.000000000000000E-007
 Gconv         2.000000000000000E-004
 Maxdispl       1.00000000000000     
 Hlow          5.000000000000000E-003
 S6             20.0000000000000     
 Nvar               72

generating ANC from model Hessian ...
 Shifting diagonal of input Hessian by   5.235552588839813E-003
 Lowest  eigenvalues of input Hessian
    0.005000    0.005184   -0.000000   -0.000000   -0.000000    0.000000
    0.000000    0.000000    0.005290    0.005651    0.005678    0.006253
    0.006292    0.007172    0.007842    0.008331    0.008643    0.009878
 Highest eigenvalues
    1.572015    1.585448    1.607440    3.213245    3.415063    3.465873
 
cpu  time for ANC gen    0.01 s
wall time for ANC gen    0.01 s
................................................................................
.............................. CYCLE    1 ......................................
................................................................................
   1    -50.6206006 -0.506206E+02  0.700E-05    5.37       0.0  T
   2    -50.6206006 -0.147509E-10  0.530E-05    5.37     370.2  T
   3    -50.6206006 -0.111342E-10  0.293E-05    5.37     668.5  T
speedup  0.97
cpu  time for SCC    0.00 s
wall time for SCC    0.00 s
speedup  1.06
cpu  time for grad    0.01 s
wall time for grad    0.01 s
 E :    -50.33158201  G :  0.253768    pred/act E change:  0.000D+00  0.415D-07
Maxdispl :   0.0952   ||displ|| :   0.2621   Lambda : -0.433D-01
Largest |displ|/coords:  0.0952 (  55)  0.0838 (  18)  0.0803 (  23)
................................................................................
.............................. CYCLE    2 ......................................
................................................................................
   1    -50.6326268 -0.506326E+02  0.296E-01    5.52       0.0  T
   2    -50.6329562 -0.329374E-03  0.229E-01    5.65       1.0  T
   3    -50.6330990 -0.142863E-03  0.112E-01    5.87       1.0  T
   4    -50.6331106 -0.115820E-04  0.279E-02    5.93       1.0  T
   5    -50.6331120 -0.142488E-05  0.631E-03    5.92       3.1  T
   6    -50.6331121 -0.804997E-07  0.351E-03    5.92       5.6  T
   7    -50.6331121 -0.241868E-07  0.825E-04    5.92      23.8  T
speedup  0.90
cpu  time for SCC    0.01 s
wall time for SCC    0.01 s
speedup  0.98
cpu  time for grad    0.01 s
wall time for grad    0.01 s
 E :    -50.36557958  G :  0.155303    pred/act E change:  0.000D+00 -0.340D-01
Maxdispl :   0.1081   ||displ|| :   0.2944   Lambda : -0.206D-01
Largest |displ|/coords:  0.1081 (  18)  0.1003 (  16)  0.0929 (  23)
................................................................................
.............................. CYCLE    3 ......................................
................................................................................
   1    -50.6401263 -0.506401E+02  0.271E-01    6.02       0.0  T
   2    -50.6405093 -0.382974E-03  0.202E-01    6.18       1.0  T
   3    -50.6406634 -0.154116E-03  0.109E-01    6.41       1.0  T
   4    -50.6406714 -0.799493E-05  0.263E-02    6.49       1.0  T
   5    -50.6406730 -0.155239E-05  0.594E-03    6.47       3.3  T
   6    -50.6406730 -0.580912E-07  0.340E-03    6.47       5.8  T
speedup  1.03
cpu  time for SCC    0.01 s
wall time for SCC    0.01 s
speedup  1.04
cpu  time for grad    0.01 s
wall time for grad    0.01 s
 E :    -50.38276149  G :  0.102655    pred/act E change: -0.232D-01 -0.172D-01
Maxdispl :   0.1289   ||displ|| :   0.3243   Lambda : -0.125D-01
Largest |displ|/coords:  0.1289 (  11)  0.1078 (  23)  0.1054 (  18)
................................................................................
.............................. CYCLE    4 ......................................
................................................................................
   1    -50.6452036 -0.506452E+02  0.249E-01    6.52       0.0  T
   2    -50.6455707 -0.367118E-03  0.180E-01    6.69       1.0  T
   3    -50.6457245 -0.153827E-03  0.943E-02    6.92       1.0  T
   4    -50.6457330 -0.849630E-05  0.247E-02    7.00       1.0  T
   5    -50.6457346 -0.151128E-05  0.615E-03    6.99       3.2  T
   6    -50.6457346 -0.627608E-07  0.354E-03    6.99       5.5  T
   7    -50.6457346 -0.203044E-07  0.100E-03    6.99      19.6  T
speedup  1.04
cpu  time for SCC    0.01 s
wall time for SCC    0.01 s
speedup  0.98
cpu  time for grad    0.01 s
wall time for grad    0.01 s
 E :    -50.39352107  G :  0.075134    pred/act E change: -0.112D-01 -0.108D-01
Maxdispl :   0.1662   ||displ|| :   0.3336   Lambda : -0.904D-02
Largest |displ|/coords:  0.1662 (  11)  0.1189 (   7)  0.1147 (  23)
................................................................................
.............................. CYCLE    5 ......................................
................................................................................
   1    -50.6494620 -0.506495E+02  0.289E-01    7.03       0.0  T
   2    -50.6497841 -0.322118E-03  0.210E-01    7.20       1.0  T
   3    -50.6499294 -0.145271E-03  0.909E-02    7.47       1.0  T
   4    -50.6499419 -0.125508E-04  0.245E-02    7.51       1.0  T
   5    -50.6499438 -0.189729E-05  0.626E-03    7.50       3.1  T
   6    -50.6499439 -0.526446E-07  0.368E-03    7.50       5.3  T
   7    -50.6499439 -0.190805E-07  0.977E-04    7.50      20.1  T
speedup  1.04
cpu  time for SCC    0.01 s
wall time for SCC    0.01 s
speedup  1.04
cpu  time for grad    0.01 s
wall time for grad    0.01 s
 E :    -50.40147030  G :  0.065605    pred/act E change: -0.693D-02 -0.795D-02
Maxdispl :   0.1596   ||displ|| :   0.3759   Lambda : -0.914D-02
Largest |displ|/coords:  0.1596 (   4)  0.1320 (   5)  0.1187 (   1)
................................................................................
.............................. CYCLE    6 ......................................
................................................................................
   1    -50.6580960 -0.506581E+02  0.298E-01    7.52       0.0  T
   2    -50.6583823 -0.286261E-03  0.218E-01    7.69       1.0  T
   3    -50.6585214 -0.139104E-03  0.823E-02    7.99       1.0  T
   4    -50.6585379 -0.165274E-04  0.225E-02    8.00       1.0  T
   5    -50.6585393 -0.145392E-05  0.685E-03    7.99       2.9  T
   6    -50.6585394 -0.553746E-07  0.396E-03    7.99       4.9  T
   7    -50.6585394 -0.188680E-07  0.896E-04    7.99      21.9  T
speedup  0.91
cpu  time for SCC    0.01 s
wall time for SCC    0.01 s
speedup  0.98
cpu  time for grad    0.01 s
wall time for grad    0.01 s
 E :    -50.40855587  G :  0.060145    pred/act E change: -0.502D-02 -0.709D-02
Maxdispl :   0.1768   ||displ|| :   0.3725   Lambda : -0.108D-01
Largest |displ|/coords:  0.1768 (  11)  0.1763 (   7)  0.1038 (  69)
................................................................................
.............................. CYCLE    7 ......................................
................................................................................
   1    -50.6685005 -0.506685E+02  0.401E-01    8.10       0.0  T
   2    -50.6688051 -0.304564E-03  0.298E-01    8.24       1.0  T
   3    -50.6689596 -0.154587E-03  0.940E-02    8.34       1.0  T
   4    -50.6689869 -0.272599E-04  0.257E-02    8.37       1.0  T
   5    -50.6689891 -0.217808E-05  0.787E-03    8.37       2.5  T
   6    -50.6689891 -0.493841E-07  0.465E-03    8.36       4.2  T
   7    -50.6689892 -0.243885E-07  0.875E-04    8.36      22.4  T
speedup  1.06
cpu  time for SCC    0.01 s
wall time for SCC    0.01 s
speedup  0.97
cpu  time for grad    0.01 s
wall time for grad    0.01 s
 E :    -50.41594051  G :  0.053336    pred/act E change: -0.522D-02 -0.738D-02
Maxdispl :   0.1755   ||displ|| :   0.3653   Lambda : -0.756D-02
Largest |displ|/coords:  0.1755 (   5)  0.1588 (   3)  0.0876 (  69)
................................................................................
.............................. CYCLE    8 ......................................
................................................................................
   1    -50.6830003 -0.506830E+02  0.287E-01    8.46       0.0  T
   2    -50.6831066 -0.106295E-03  0.214E-01    8.47       1.0  T
   3    -50.6831668 -0.601878E-04  0.536E-02    8.51       1.0  T
   4    -50.6831800 -0.131733E-04  0.154E-02    8.52       1.3  T
   5    -50.6831805 -0.571229E-06  0.559E-03    8.52       3.5  T
   6    -50.6831806 -0.283579E-07  0.299E-03    8.52       6.6  T
speedup  0.86
cpu  time for SCC    0.01 s
wall time for SCC    0.01 s
speedup  0.96
cpu  time for grad    0.01 s
wall time for grad    0.01 s
 E :    -50.42095896  G :  0.045605    pred/act E change: -0.614D-02 -0.502D-02
Maxdispl :   0.2215   ||displ|| :   0.5056   Lambda : -0.820D-02
Largest |displ|/coords:  0.2215 (  11)  0.1520 (  23)  0.1517 (  22)
................................................................................
.............................. CYCLE    9 ......................................
................................................................................
   1    -50.6883638 -0.506884E+02  0.363E-01    8.57       0.0  T
   2    -50.6885300 -0.166175E-03  0.269E-01    8.59       1.0  T
   3    -50.6886149 -0.849199E-04  0.678E-02    8.63       1.0  T
   4    -50.6886340 -0.191238E-04  0.156E-02    8.63       1.3  T
   5    -50.6886347 -0.633804E-06  0.668E-03    8.63       2.9  T
   6    -50.6886347 -0.566753E-07  0.385E-03    8.63       5.1  T
   7    -50.6886347 -0.157172E-07  0.826E-04    8.63      23.8  T
speedup  1.06
cpu  time for SCC    0.01 s
wall time for SCC    0.01 s
speedup  0.97
cpu  time for grad    0.01 s
wall time for grad    0.01 s
 E :    -50.42663269  G :  0.040305    pred/act E change: -0.428D-02 -0.567D-02
Maxdispl :   0.1930   ||displ|| :   0.4797   Lambda : -0.560D-02
Largest |displ|/coords:  0.1930 (  11)  0.1607 (   5)  0.1349 (   3)
................................................................................
.............................. CYCLE   10 ......................................
................................................................................
   1    -50.7024968 -0.507025E+02  0.220E-01    8.68       0.0  T
   2    -50.7026065 -0.109721E-03  0.161E-01    8.69       1.0  T
   3    -50.7026607 -0.541737E-04  0.526E-02    8.71       1.0  T
   4    -50.7026700 -0.937583E-05  0.134E-02    8.70       1.5  T
   5    -50.7026706 -0.512722E-06  0.600E-03    8.70       3.3  T
   6    -50.7026706 -0.412831E-07  0.291E-03    8.70       6.7  T
speedup  0.88
cpu  time for SCC    0.00 s
wall time for SCC    0.01 s
speedup  0.98
cpu  time for grad    0.01 s
wall time for grad    0.01 s
 E :    -50.42942415  G :  0.032962    pred/act E change: -0.515D-02 -0.279D-02
Maxdispl :   0.2318   ||displ|| :   0.4783   Lambda : -0.364D-02
Largest |displ|/coords:  0.2318 (   8)  0.1695 (  23)  0.1686 (  11)
................................................................................
.............................. CYCLE   11 ......................................
................................................................................
   1    -50.6908993 -0.506909E+02  0.527E-01    8.73       0.0  T
   2    -50.6910732 -0.173900E-03  0.394E-01    8.75       1.0  T
   3    -50.6911650 -0.918589E-04  0.730E-02    8.78       1.0  T
   4    -50.6911905 -0.254479E-04  0.133E-02    8.78       1.5  T
   5    -50.6911907 -0.247794E-06  0.653E-03    8.77       3.0  T
   6    -50.6911908 -0.602998E-07  0.298E-03    8.77       6.6  T
   7    -50.6911908 -0.149321E-07  0.673E-04    8.77      29.1  T
speedup  1.04
cpu  time for SCC    0.01 s
wall time for SCC    0.01 s
speedup  0.98
cpu  time for grad    0.01 s
wall time for grad    0.01 s
 E :    -50.42913300  G :  0.060658    pred/act E change: -0.345D-02  0.291D-03
Maxdispl :   0.2102   ||displ|| :   0.4379   Lambda : -0.109D-01
Largest |displ|/coords:  0.2102 (   8)  0.1718 (  10)  0.1484 (   3)
................................................................................
.............................. CYCLE   12 ......................................
................................................................................
   1    -50.7027103 -0.507027E+02  0.693E-01    8.87       0.0  T
   2    -50.7029906 -0.280255E-03  0.523E-01    8.86       1.0  T
   3    -50.7031856 -0.195008E-03  0.937E-02    8.83       1.0  T
   4    -50.7032247 -0.390887E-04  0.162E-02    8.84       1.2  T
   5    -50.7032251 -0.400153E-06  0.102E-02    8.84       1.9  T
   6    -50.7032252 -0.847461E-07  0.338E-03    8.84       5.8  T
   7    -50.7032252 -0.200042E-07  0.801E-04    8.84      24.5  T
speedup  0.90
cpu  time for SCC    0.01 s
wall time for SCC    0.01 s
speedup  0.97
cpu  time for grad    0.01 s
wall time for grad    0.01 s
 E :    -50.42907428  G :  0.066654    pred/act E change: -0.223D-02  0.587D-04
Maxdispl :   0.1127   ||displ|| :   0.2496   Lambda : -0.603D-02
Largest |displ|/coords:  0.1127 (  23)  0.0936 (   4)  0.0856 (  28)
................................................................................
.............................. CYCLE   13 ......................................
................................................................................
   1    -50.7043703 -0.507044E+02  0.246E-01    8.87       0.0  T
   2    -50.7044554 -0.850853E-04  0.180E-01    8.87       1.0  T
   3    -50.7045128 -0.573996E-04  0.493E-02    8.87       1.0  T
   4    -50.7045208 -0.801149E-05  0.108E-02    8.87       1.8  T
   5    -50.7045210 -0.129175E-06  0.520E-03    8.87       3.8  T
   6    -50.7045210 -0.421998E-07  0.209E-03    8.87       9.4  T
speedup  1.03
cpu  time for SCC    0.01 s
wall time for SCC    0.01 s
speedup  1.04
cpu  time for grad    0.01 s
wall time for grad    0.01 s
 E :    -50.43100196  G :  0.029133    pred/act E change: -0.649D-02 -0.193D-02
Maxdispl :   0.0916   ||displ|| :   0.2263   Lambda : -0.164D-02
Largest |displ|/coords:  0.0916 (   4)  0.0880 (   5)  0.0810 (  22)
................................................................................
.............................. CYCLE   14 ......................................
................................................................................
   1    -50.6999659 -0.507000E+02  0.184E-01    8.85       0.0  T
   2    -50.6999951 -0.292071E-04  0.137E-01    8.86       1.0  T
   3    -50.7000105 -0.154376E-04  0.295E-02    8.87       1.0  T
   4    -50.7000146 -0.412616E-05  0.672E-03    8.86       2.9  T
   5    -50.7000147 -0.595085E-07  0.305E-03    8.86       6.4  T
   6    -50.7000147 -0.103059E-07  0.141E-03    8.86      13.9  T
speedup  1.03
cpu  time for SCC    0.01 s
wall time for SCC    0.01 s
speedup  0.96
cpu  time for grad    0.01 s
wall time for grad    0.01 s
 E :    -50.43191914  G :  0.020987    pred/act E change: -0.320D-02 -0.917D-03
Maxdispl :   0.1284   ||displ|| :   0.1931   Lambda : -0.801D-03
Largest |displ|/coords:  0.1284 (   5)  0.0723 (   9)  0.0472 (  11)
................................................................................
.............................. CYCLE   15 ......................................
................................................................................
   1    -50.7026452 -0.507026E+02  0.166E-01    8.89       0.0  T
   2    -50.7026537 -0.848257E-05  0.127E-01    8.89       1.0  T
   3    -50.7026603 -0.664304E-05  0.158E-02    8.88       1.2  T
   4    -50.7026616 -0.124359E-05  0.612E-03    8.88       3.2  T
   5    -50.7026616 -0.704713E-07  0.174E-03    8.88      11.3  T
   6    -50.7026616 -0.238396E-08  0.990E-04    8.88      19.8  T
speedup  1.02
cpu  time for SCC    0.01 s
wall time for SCC    0.01 s
speedup  1.03
cpu  time for grad    0.01 s
wall time for grad    0.01 s
 E :    -50.43239845  G :  0.017284    pred/act E change: -0.863D-03 -0.479D-03
Maxdispl :   0.2562   ||displ|| :   0.3679   Lambda : -0.136D-02
Largest |displ|/coords:  0.2562 (   5)  0.1094 (   8)  0.0846 (   9)
................................................................................
.............................. CYCLE   16 ......................................
................................................................................
   1    -50.7057995 -0.507058E+02  0.315E-01    8.92       0.0  T
   2    -50.7058401 -0.405393E-04  0.238E-01    8.91       1.0  T
   3    -50.7058634 -0.233364E-04  0.346E-02    8.88       1.0  T
   4    -50.7058705 -0.709667E-05  0.104E-02    8.89       1.9  T
   5    -50.7058707 -0.155988E-06  0.398E-03    8.89       4.9  T
   6    -50.7058707 -0.900015E-08  0.193E-03    8.89      10.2  T
   7    -50.7058707 -0.787789E-08  0.406E-04    8.89      48.3  T
speedup  1.03
cpu  time for SCC    0.01 s
wall time for SCC    0.01 s
speedup  1.03
cpu  time for grad    0.01 s
wall time for grad    0.01 s
 E :    -50.43330743  G :  0.020855    pred/act E change: -0.415D-03 -0.909D-03
Maxdispl :   0.2838   ||displ|| :   0.4023   Lambda : -0.155D-02
Largest |displ|/coords:  0.2838 (   5)  0.1065 (   8)  0.0948 (  22)
................................................................................
.............................. CYCLE   17 ......................................
................................................................................
   1    -50.7058831 -0.507059E+02  0.280E-01    8.89       0.0  T
   2    -50.7059429 -0.598341E-04  0.210E-01    8.88       1.0  T
   3    -50.7059765 -0.335675E-04  0.435E-02    8.87       1.0  T
   4    -50.7059854 -0.887992E-05  0.145E-02    8.87       1.4  T
   5    -50.7059857 -0.352279E-06  0.489E-03    8.87       4.0  T
   6    -50.7059858 -0.251376E-07  0.250E-03    8.87       7.8  T
speedup  1.03
cpu  time for SCC    0.01 s
wall time for SCC    0.01 s
speedup  0.96
cpu  time for grad    0.01 s
wall time for grad    0.01 s
 E :    -50.43445262  G :  0.026632    pred/act E change: -0.771D-03 -0.115D-02
Maxdispl :   0.2938   ||displ|| :   0.4687   Lambda : -0.286D-02
Largest |displ|/coords:  0.2938 (   5)  0.1300 (  23)  0.1250 (   7)
................................................................................
.............................. CYCLE   18 ......................................
................................................................................
   1    -50.7186953 -0.507187E+02  0.292E-01    8.87       0.0  T
   2    -50.7188257 -0.130328E-03  0.216E-01    8.85       1.0  T
   3    -50.7189047 -0.790263E-04  0.663E-02    8.81       1.0  T
   4    -50.7189166 -0.118659E-04  0.212E-02    8.81       1.0  T
   5    -50.7189174 -0.841986E-06  0.735E-03    8.81       2.7  T
   6    -50.7189175 -0.528758E-07  0.376E-03    8.81       5.2  T
   7    -50.7189175 -0.264328E-07  0.814E-04    8.81      24.1  T
speedup  0.90
cpu  time for SCC    0.01 s
wall time for SCC    0.01 s
speedup  0.97
cpu  time for grad    0.01 s
wall time for grad    0.01 s
 E :    -50.43521776  G :  0.049707    pred/act E change: -0.902D-03 -0.765D-03
Maxdispl :   0.2612   ||displ|| :   0.4295   Lambda : -0.394D-02
Largest |displ|/coords:  0.2612 (   5)  0.1522 (   8)  0.1022 (   9)
................................................................................
.............................. CYCLE   19 ......................................
................................................................................
   1    -50.7137458 -0.507137E+02  0.399E-01    8.73       0.0  T
   2    -50.7138452 -0.993035E-04  0.296E-01    8.73       1.0  T
   3    -50.7139054 -0.602557E-04  0.571E-02    8.73       1.0  T
   4    -50.7139179 -0.125196E-04  0.165E-02    8.72       1.2  T
   5    -50.7139183 -0.413248E-06  0.643E-03    8.72       3.1  T
   6    -50.7139184 -0.516034E-07  0.367E-03    8.72       5.3  T
   7    -50.7139184 -0.226119E-07  0.749E-04    8.72      26.2  T
speedup  1.04
cpu  time for SCC    0.01 s
wall time for SCC    0.01 s
speedup  1.04
cpu  time for grad    0.01 s
wall time for grad    0.01 s
 E :    -50.43665296  G :  0.041534    pred/act E change: -0.174D-02 -0.144D-02
Maxdispl :   0.1173   ||displ|| :   0.2718   Lambda : -0.332D-02
Largest |displ|/coords:  0.1173 (  15)  0.0797 (   5)  0.0704 (   8)
................................................................................
.............................. CYCLE   20 ......................................
................................................................................
   1    -50.7156012 -0.507156E+02  0.272E-01    8.67       0.0  T
   2    -50.7156580 -0.568060E-04  0.201E-01    8.67       1.0  T
   3    -50.7156915 -0.335423E-04  0.432E-02    8.66       1.0  T
   4    -50.7156976 -0.613787E-05  0.105E-02    8.67       1.9  T
   5    -50.7156979 -0.258742E-06  0.404E-03    8.68       4.8  T
   6    -50.7156979 -0.147930E-07  0.211E-03    8.68       9.3  T
speedup  1.00
cpu  time for SCC    0.01 s
wall time for SCC    0.01 s
speedup  1.02
cpu  time for grad    0.01 s
wall time for grad    0.01 s
 E :    -50.43704386  G :  0.041994    pred/act E change: -0.233D-02 -0.391D-03
Maxdispl :   0.1417   ||displ|| :   0.2322   Lambda : -0.301D-02
Largest |displ|/coords:  0.1417 (  15)  0.1095 (  13)  0.0599 (   2)
................................................................................
.............................. CYCLE   21 ......................................
................................................................................
   1    -50.7261566 -0.507262E+02  0.210E-01    8.68       0.0  T
   2    -50.7261951 -0.384481E-04  0.152E-01    8.67       1.0  T
   3    -50.7262152 -0.200847E-04  0.349E-02    8.66       1.0  T
   4    -50.7262190 -0.386853E-05  0.904E-03    8.66       2.2  T
   5    -50.7262192 -0.131900E-06  0.372E-03    8.66       5.3  T
   6    -50.7262192 -0.121860E-07  0.184E-03    8.66      10.7  T
speedup  1.03
cpu  time for SCC    0.01 s
wall time for SCC    0.01 s
speedup  1.00
cpu  time for grad    0.01 s
wall time for grad    0.01 s
 E :    -50.43791869  G :  0.034566    pred/act E change: -0.178D-02 -0.875D-03
Maxdispl :   0.1564   ||displ|| :   0.3279   Lambda : -0.332D-02
Largest |displ|/coords:  0.1564 (  13)  0.1219 (   5)  0.0908 (  14)
................................................................................
.............................. CYCLE   22 ......................................
................................................................................
   1    -50.7237094 -0.507237E+02  0.309E-01    8.63       0.0  T
   2    -50.7238036 -0.941565E-04  0.224E-01    8.62       1.0  T
   3    -50.7238609 -0.573104E-04  0.496E-02    8.58       1.0  T
   4    -50.7238700 -0.908541E-05  0.141E-02    8.57       1.4  T
   5    -50.7238703 -0.345587E-06  0.669E-03    8.57       2.9  T
   6    -50.7238704 -0.528166E-07  0.292E-03    8.57       6.7  T
   7    -50.7238704 -0.194659E-07  0.794E-04    8.57      24.7  T
speedup  0.91
cpu  time for SCC    0.01 s
wall time for SCC    0.01 s
speedup  0.97
cpu  time for grad    0.01 s
wall time for grad    0.01 s
 E :    -50.43754070  G :  0.054220    pred/act E change: -0.158D-02  0.378D-03
Maxdispl :   0.1503   ||displ|| :   0.3158   Lambda : -0.732D-02
Largest |displ|/coords:  0.1503 (  13)  0.1081 (  14)  0.0959 (  22)
................................................................................
.............................. CYCLE   23 ......................................
................................................................................
   1    -50.7257551 -0.507258E+02  0.362E-01    8.49       0.0  T
   2    -50.7259211 -0.166059E-03  0.262E-01    8.50       1.0  T
   3    -50.7260080 -0.868333E-04  0.679E-02    8.54       1.0  T
   4    -50.7260232 -0.152688E-04  0.179E-02    8.54       1.1  T
   5    -50.7260238 -0.614988E-06  0.745E-03    8.54       2.6  T
   6    -50.7260239 -0.802437E-07  0.390E-03    8.54       5.0  T
   7    -50.7260239 -0.246609E-07  0.920E-04    8.54      21.3  T
speedup  1.04
cpu  time for SCC    0.01 s
wall time for SCC    0.01 s
speedup  1.03
cpu  time for grad    0.01 s
wall time for grad    0.01 s
 E :    -50.43725523  G :  0.057262    pred/act E change: -0.184D-02  0.285D-03
Maxdispl :   0.1240   ||displ|| :   0.3168   Lambda : -0.784D-02
Largest |displ|/coords:  0.1240 (  13)  0.1200 (  11)  0.1074 (  22)
................................................................................
.............................. CYCLE   24 ......................................
................................................................................
   1    -50.7238027 -0.507238E+02  0.333E-01    8.60       0.0  T
   2    -50.7239464 -0.143763E-03  0.242E-01    8.58       1.0  T
   3    -50.7240292 -0.828302E-04  0.631E-02    8.54       1.0  T
   4    -50.7240426 -0.133105E-04  0.160E-02    8.54       1.2  T
   5    -50.7240431 -0.543393E-06  0.752E-03    8.54       2.6  T
   6    -50.7240431 -0.457477E-07  0.339E-03    8.54       5.8  T
   7    -50.7240432 -0.275338E-07  0.897E-04    8.54      21.9  T
speedup  1.06
cpu  time for SCC    0.01 s
wall time for SCC    0.01 s
speedup  0.97
cpu  time for grad    0.01 s
wall time for grad    0.01 s
 E :    -50.43844451  G :  0.042969    pred/act E change: -0.403D-02 -0.119D-02
Maxdispl :   0.0614   ||displ|| :   0.1408   Lambda : -0.250D-02
Largest |displ|/coords:  0.0614 (   9)  0.0561 (  24)  0.0487 (  11)
................................................................................
.............................. CYCLE   25 ......................................
................................................................................
   1    -50.7273944 -0.507274E+02  0.132E-01    8.50       0.0  T
   2    -50.7274177 -0.233371E-04  0.971E-02    8.51       1.0  T
   3    -50.7274306 -0.128837E-04  0.261E-02    8.51       1.0  T
   4    -50.7274329 -0.229813E-05  0.667E-03    8.51       2.9  T
   5    -50.7274330 -0.963678E-07  0.266E-03    8.51       7.4  T
   6    -50.7274330 -0.793568E-08  0.139E-03    8.51      14.1  T
speedup  1.02
cpu  time for SCC    0.01 s
wall time for SCC    0.01 s
speedup  1.02
cpu  time for grad    0.01 s
wall time for grad    0.01 s
 E :    -50.43975611  G :  0.012154    pred/act E change: -0.431D-02 -0.131D-02
Maxdispl :   0.0587   ||displ|| :   0.1138   Lambda : -0.432D-03
Largest |displ|/coords:  0.0587 (  11)  0.0519 (   5)  0.0253 (   1)

generating ANC from model Hessian ...
 Shifting diagonal of input Hessian by   5.154291492478652E-003
 Lowest  eigenvalues of input Hessian
    0.005000    0.005026    0.005128   -0.000000   -0.000000   -0.000000
    0.000000    0.000000    0.000000    0.005543    0.005678    0.006087
    0.006363    0.006370    0.007291    0.008339    0.009058    0.010498
 Highest eigenvalues
    1.401083    1.405463    1.418644    2.612454    3.293823    3.737109
 
cpu  time for ANC gen    0.01 s
wall time for ANC gen    0.01 s
................................................................................
.............................. CYCLE   26 ......................................
................................................................................
   1    -50.7270441 -0.507270E+02  0.642E-02    8.48       0.0  T
   2    -50.7270485 -0.442693E-05  0.473E-02    8.48       1.0  T
   3    -50.7270515 -0.304743E-05  0.120E-02    8.49       1.6  T
   4    -50.7270520 -0.434453E-06  0.317E-03    8.49       6.2  T
   5    -50.7270520 -0.159159E-07  0.131E-03    8.49      14.9  T
   6    -50.7270520 -0.204526E-08  0.625E-04    8.49      31.4  T
   7    -50.7270520 -0.674639E-09  0.164E-04    8.49     119.3  T
speedup  1.06
cpu  time for SCC    0.01 s
wall time for SCC    0.01 s
speedup  1.01
cpu  time for grad    0.01 s
wall time for grad    0.01 s
 E :    -50.43989719  G :  0.013584    pred/act E change:  0.000D+00 -0.141D-03
Maxdispl :   0.0855   ||displ|| :   0.2020   Lambda : -0.643D-03
Largest |displ|/coords:  0.0855 (   5)  0.0773 (   7)  0.0604 (   1)
................................................................................
.............................. CYCLE   27 ......................................
................................................................................
   1    -50.7267640 -0.507268E+02  0.163E-01    8.47       0.0  T
   2    -50.7267693 -0.531864E-05  0.124E-01    8.47       1.0  T
   3    -50.7267739 -0.462837E-05  0.110E-02    8.46       1.8  T
   4    -50.7267746 -0.725852E-06  0.354E-03    8.46       5.5  T
   5    -50.7267747 -0.135451E-07  0.164E-03    8.46      11.9  T
   6    -50.7267747 -0.276581E-08  0.698E-04    8.46      28.1  T
speedup  1.03
cpu  time for SCC    0.01 s
wall time for SCC    0.01 s
speedup  1.03
cpu  time for grad    0.01 s
wall time for grad    0.01 s
 E :    -50.44033937  G :  0.008434    pred/act E change:  0.000D+00 -0.442D-03
Maxdispl :   0.1480   ||displ|| :   0.3148   Lambda : -0.605D-03
Largest |displ|/coords:  0.1480 (   5)  0.1249 (   1)  0.1027 (  15)
................................................................................
.............................. CYCLE   28 ......................................
................................................................................
   1    -50.7251510 -0.507252E+02  0.235E-01    8.43       0.0  T
   2    -50.7251603 -0.935193E-05  0.178E-01    8.42       1.0  T
   3    -50.7251703 -0.993015E-05  0.148E-02    8.41       1.3  T
   4    -50.7251712 -0.903284E-06  0.606E-03    8.41       3.2  T
   5    -50.7251712 -0.440890E-07  0.222E-03    8.41       8.8  T
   6    -50.7251712 -0.495754E-08  0.111E-03    8.41      17.7  T
speedup  1.03
cpu  time for SCC    0.01 s
wall time for SCC    0.01 s
speedup  1.02
cpu  time for grad    0.01 s
wall time for grad    0.01 s
 E :    -50.44064290  G :  0.012405    pred/act E change: -0.335D-03 -0.304D-03
Maxdispl :   0.0702   ||displ|| :   0.1526   Lambda : -0.282D-03
Largest |displ|/coords:  0.0702 (   6)  0.0635 (   4)  0.0577 (  12)
................................................................................
.............................. CYCLE   29 ......................................
................................................................................
   1    -50.7276148 -0.507276E+02  0.662E-02    8.41       0.0  T
   2    -50.7276168 -0.205118E-05  0.495E-02    8.40       1.0  T
   3    -50.7276180 -0.120723E-05  0.818E-03    8.39       2.4  T
   4    -50.7276183 -0.295802E-06  0.250E-03    8.39       7.9  T
   5    -50.7276183 -0.111706E-07  0.837E-04    8.39      23.4  T
speedup  1.00
cpu  time for SCC    0.00 s
wall time for SCC    0.00 s
speedup  1.02
cpu  time for grad    0.01 s
wall time for grad    0.01 s
 E :    -50.44082971  G :  0.008079    pred/act E change: -0.332D-03 -0.187D-03
Maxdispl :   0.1645   ||displ|| :   0.3125   Lambda : -0.344D-03
Largest |displ|/coords:  0.1645 (   5)  0.1182 (   4)  0.0986 (   3)
................................................................................
.............................. CYCLE   30 ......................................
................................................................................
   1    -50.7291515 -0.507292E+02  0.174E-01    8.38       0.0  T
   2    -50.7291574 -0.586265E-05  0.131E-01    8.37       1.0  T
   3    -50.7291631 -0.569099E-05  0.127E-02    8.37       1.5  T
   4    -50.7291638 -0.698862E-06  0.554E-03    8.37       3.5  T
   5    -50.7291638 -0.395963E-07  0.186E-03    8.37      10.6  T
   6    -50.7291638 -0.378761E-08  0.106E-03    8.37      18.5  T
speedup  1.07
cpu  time for SCC    0.01 s
wall time for SCC    0.01 s
speedup  1.05
cpu  time for grad    0.01 s
wall time for grad    0.01 s
 E :    -50.44098563  G :  0.009209    pred/act E change: -0.144D-03 -0.156D-03
Maxdispl :   0.1252   ||displ|| :   0.1908   Lambda : -0.228D-03
Largest |displ|/coords:  0.1252 (   4)  0.0815 (   1)  0.0581 (  10)
................................................................................
.............................. CYCLE   31 ......................................
................................................................................
   1    -50.7312247 -0.507312E+02  0.923E-02    8.35       0.0  T
   2    -50.7312273 -0.258653E-05  0.701E-02    8.35       1.0  T
   3    -50.7312299 -0.256343E-05  0.827E-03    8.35       2.4  T
   4    -50.7312302 -0.296912E-06  0.339E-03    8.35       5.8  T
   5    -50.7312302 -0.178606E-07  0.118E-03    8.35      16.7  T
   6    -50.7312302 -0.168315E-08  0.647E-04    8.35      30.3  T
speedup  1.05
cpu  time for SCC    0.01 s
wall time for SCC    0.01 s
speedup  0.97
cpu  time for grad    0.01 s
wall time for grad    0.01 s
 E :    -50.44110581  G :  0.005375    pred/act E change: -0.189D-03 -0.120D-03
Maxdispl :   0.0933   ||displ|| :   0.2008   Lambda : -0.120D-03
Largest |displ|/coords:  0.0933 (   3)  0.0928 (   5)  0.0839 (   4)
................................................................................
.............................. CYCLE   32 ......................................
................................................................................
   1    -50.7302907 -0.507303E+02  0.112E-01    8.33       0.0  T
   2    -50.7302925 -0.184473E-05  0.847E-02    8.33       1.0  T
   3    -50.7302945 -0.196406E-05  0.676E-03    8.33       2.9  T
   4    -50.7302946 -0.176933E-06  0.249E-03    8.33       7.9  T
   5    -50.7302946 -0.591969E-08  0.110E-03    8.33      17.8  T
speedup  1.04
cpu  time for SCC    0.00 s
wall time for SCC    0.00 s
speedup  0.96
cpu  time for grad    0.01 s
wall time for grad    0.01 s
 E :    -50.44117707  G :  0.006057    pred/act E change: -0.118D-03 -0.713D-04
Maxdispl :   0.1142   ||displ|| :   0.1905   Lambda : -0.122D-03
Largest |displ|/coords:  0.1142 (   3)  0.0915 (   4)  0.0809 (   5)
................................................................................
.............................. CYCLE   33 ......................................
................................................................................
   1    -50.7311594 -0.507312E+02  0.892E-02    8.32       0.0  T
   2    -50.7311623 -0.293459E-05  0.667E-02    8.32       1.0  T
   3    -50.7311644 -0.211054E-05  0.915E-03    8.33       2.1  T
   4    -50.7311648 -0.394216E-06  0.217E-03    8.32       9.0  T
   5    -50.7311648 -0.517655E-08  0.113E-03    8.32      17.3  T
speedup  1.04
cpu  time for SCC    0.01 s
wall time for SCC    0.00 s
speedup  1.04
cpu  time for grad    0.01 s
wall time for grad    0.01 s
 E :    -50.44121544  G :  0.006543    pred/act E change: -0.622D-04 -0.384D-04
Maxdispl :   0.0505   ||displ|| :   0.1018   Lambda : -0.801D-04
Largest |displ|/coords:  0.0505 (   3)  0.0498 (   4)  0.0345 (   1)
................................................................................
.............................. CYCLE   34 ......................................
................................................................................
   1    -50.7308878 -0.507309E+02  0.635E-02    8.32       0.0  T
   2    -50.7308887 -0.964552E-06  0.482E-02    8.32       1.0  T
   3    -50.7308897 -0.100327E-05  0.487E-03    8.32       4.0  T
   4    -50.7308898 -0.938873E-07  0.158E-03    8.32      12.4  T
   5    -50.7308898 -0.248316E-08  0.662E-04    8.32      29.6  T
speedup  1.04
cpu  time for SCC    0.00 s
wall time for SCC    0.00 s
speedup  1.04
cpu  time for grad    0.01 s
wall time for grad    0.01 s
 E :    -50.44126503  G :  0.004119    pred/act E change: -0.634D-04 -0.496D-04
Maxdispl :   0.0653   ||displ|| :   0.1118   Lambda : -0.519D-04
Largest |displ|/coords:  0.0653 (   3)  0.0485 (   4)  0.0378 (   5)
................................................................................
.............................. CYCLE   35 ......................................
................................................................................
   1    -50.7306043 -0.507306E+02  0.566E-02    8.32       0.0  T
   2    -50.7306048 -0.458865E-06  0.427E-02    8.32       1.0  T
   3    -50.7306053 -0.509638E-06  0.328E-03    8.32       6.0  T
   4    -50.7306053 -0.336537E-07  0.111E-03    8.32      17.6  T
   5    -50.7306053 -0.104158E-08  0.503E-04    8.32      39.0  T
speedup  1.02
cpu  time for SCC    0.00 s
wall time for SCC    0.00 s
speedup  0.95
cpu  time for grad    0.01 s
wall time for grad    0.01 s
 E :    -50.44130233  G :  0.003760    pred/act E change: -0.405D-04 -0.373D-04
Maxdispl :   0.1384   ||displ|| :   0.2170   Lambda : -0.774D-04
Largest |displ|/coords:  0.1384 (   3)  0.0796 (   5)  0.0739 (   4)
................................................................................
.............................. CYCLE   36 ......................................
................................................................................
   1    -50.7302982 -0.507303E+02  0.975E-02    8.32       0.0  T
   2    -50.7302997 -0.147129E-05  0.733E-02    8.32       1.0  T
   3    -50.7303013 -0.158997E-05  0.619E-03    8.33       3.2  T
   4    -50.7303014 -0.113266E-06  0.232E-03    8.33       8.5  T
   5    -50.7303014 -0.499077E-08  0.869E-04    8.33      22.6  T
   6    -50.7303014 -0.104896E-08  0.417E-04    8.33      47.0  T
speedup  0.88
cpu  time for SCC    0.00 s
wall time for SCC    0.01 s
speedup  1.00
cpu  time for grad    0.01 s
wall time for grad    0.01 s
 E :    -50.44135748  G :  0.003463    pred/act E change: -0.263D-04 -0.552D-04
Maxdispl :   0.2640   ||displ|| :   0.3867   Lambda : -0.105D-03
Largest |displ|/coords:  0.2640 (   3)  0.1368 (   5)  0.1325 (   4)
................................................................................
.............................. CYCLE   37 ......................................
................................................................................
   1    -50.7282854 -0.507283E+02  0.174E-01    8.30       0.0  T
   2    -50.7282899 -0.456626E-05  0.132E-01    8.30       1.0  T
   3    -50.7282955 -0.557605E-05  0.104E-02    8.31       1.9  T
   4    -50.7282957 -0.249036E-06  0.397E-03    8.31       4.9  T
   5    -50.7282958 -0.140724E-07  0.153E-03    8.31      12.8  T
   6    -50.7282958 -0.375432E-08  0.612E-04    8.31      32.1  T
   7    -50.7282958 -0.111353E-08  0.190E-04    8.31     103.0  T
speedup  1.06
cpu  time for SCC    0.01 s
wall time for SCC    0.01 s
speedup  1.01
cpu  time for grad    0.01 s
wall time for grad    0.01 s
 E :    -50.44139277  G :  0.008629    pred/act E change: -0.405D-04 -0.353D-04
Maxdispl :   0.0765   ||displ|| :   0.1376   Lambda : -0.106D-03
Largest |displ|/coords:  0.0765 (   3)  0.0587 (   6)  0.0425 (  10)
................................................................................
.............................. CYCLE   38 ......................................
................................................................................
   1    -50.7296485 -0.507296E+02  0.536E-02    8.34       0.0  T
   2    -50.7296497 -0.121210E-05  0.402E-02    8.34       1.0  T
   3    -50.7296506 -0.918635E-06  0.673E-03    8.34       2.9  T
   4    -50.7296507 -0.146967E-06  0.198E-03    8.34       9.9  T
   5    -50.7296508 -0.737670E-08  0.716E-04    8.34      27.4  T
speedup  1.02
cpu  time for SCC    0.01 s
wall time for SCC    0.00 s
speedup  0.96
cpu  time for grad    0.01 s
wall time for grad    0.01 s
 E :    -50.44144825  G :  0.003873    pred/act E change: -0.601D-04 -0.555D-04
Maxdispl :   0.1343   ||displ|| :   0.2030   Lambda : -0.581D-04
Largest |displ|/coords:  0.1343 (   3)  0.0811 (   5)  0.0573 (  10)
................................................................................
.............................. CYCLE   39 ......................................
................................................................................
   1    -50.7283832 -0.507284E+02  0.995E-02    8.32       0.0  T
   2    -50.7283844 -0.119620E-05  0.752E-02    8.33       1.0  T
   3    -50.7283859 -0.155193E-05  0.493E-03    8.33       4.0  T
   4    -50.7283860 -0.510596E-07  0.196E-03    8.33      10.0  T
   5    -50.7283860 -0.388589E-08  0.754E-04    8.33      26.0  T
   6    -50.7283860 -0.995200E-09  0.322E-04    8.33      61.0  T
speedup  0.88
cpu  time for SCC    0.00 s
wall time for SCC    0.01 s
speedup  1.01
cpu  time for grad    0.01 s
wall time for grad    0.01 s
 E :    -50.44147493  G :  0.005159    pred/act E change: -0.539D-04 -0.267D-04
Maxdispl :   0.0997   ||displ|| :   0.1484   Lambda : -0.722D-04
Largest |displ|/coords:  0.0997 (   3)  0.0641 (   6)  0.0514 (   2)
................................................................................
.............................. CYCLE   40 ......................................
................................................................................
   1    -50.7296922 -0.507297E+02  0.655E-02    8.35       0.0  T
   2    -50.7296929 -0.698621E-06  0.495E-02    8.35       1.0  T
   3    -50.7296937 -0.758291E-06  0.411E-03    8.36       4.8  T
   4    -50.7296937 -0.549711E-07  0.141E-03    8.35      13.9  T
   5    -50.7296937 -0.180106E-08  0.579E-04    8.35      33.9  T
speedup  1.02
cpu  time for SCC    0.00 s
wall time for SCC    0.00 s
speedup  1.02
cpu  time for grad    0.01 s
wall time for grad    0.01 s
 E :    -50.44152237  G :  0.003242    pred/act E change: -0.303D-04 -0.474D-04
Maxdispl :   0.1692   ||displ|| :   0.2460   Lambda : -0.498D-04
Largest |displ|/coords:  0.1692 (   3)  0.0888 (   6)  0.0734 (   5)
................................................................................
.............................. CYCLE   41 ......................................
................................................................................
   1    -50.7295522 -0.507296E+02  0.103E-01    8.35       0.0  T
   2    -50.7295537 -0.150668E-05  0.781E-02    8.36       1.0  T
   3    -50.7295556 -0.198403E-05  0.533E-03    8.36       3.7  T
   4    -50.7295557 -0.613690E-07  0.188E-03    8.36      10.5  T
   5    -50.7295557 -0.290652E-08  0.852E-04    8.36      23.0  T
   6    -50.7295557 -0.135156E-08  0.253E-04    8.36      77.5  T
speedup  1.03
cpu  time for SCC    0.01 s
wall time for SCC    0.01 s
speedup  0.99
cpu  time for grad    0.01 s
wall time for grad    0.01 s
 E :    -50.44155514  G :  0.004816    pred/act E change: -0.369D-04 -0.328D-04
Maxdispl :   0.1153   ||displ|| :   0.1846   Lambda : -0.494D-04
Largest |displ|/coords:  0.1153 (   3)  0.0796 (   6)  0.0515 (   2)
................................................................................
.............................. CYCLE   42 ......................................
................................................................................
   1    -50.7305086 -0.507305E+02  0.782E-02    8.39       0.0  T
   2    -50.7305094 -0.829808E-06  0.591E-02    8.39       1.0  T
   3    -50.7305105 -0.104582E-05  0.423E-03    8.39       4.6  T
   4    -50.7305105 -0.327647E-07  0.126E-03    8.39      15.5  T
   5    -50.7305105 -0.200883E-08  0.587E-04    8.39      33.4  T
speedup  1.02
cpu  time for SCC    0.00 s
wall time for SCC    0.00 s
speedup  1.01
cpu  time for grad    0.01 s
wall time for grad    0.01 s
 E :    -50.44158965  G :  0.004353    pred/act E change: -0.264D-04 -0.345D-04
Maxdispl :   0.2013   ||displ|| :   0.3252   Lambda : -0.547D-04
Largest |displ|/coords:  0.2013 (   3)  0.1278 (   6)  0.1144 (   5)
................................................................................
.............................. CYCLE   43 ......................................
................................................................................
   1    -50.7294126 -0.507294E+02  0.142E-01    8.36       0.0  T
   2    -50.7294152 -0.258084E-05  0.108E-01    8.36       1.0  T
   3    -50.7294188 -0.358827E-05  0.639E-03    8.36       3.1  T
   4    -50.7294188 -0.595509E-07  0.213E-03    8.36       9.2  T
   5    -50.7294188 -0.467004E-08  0.950E-04    8.36      20.6  T
speedup  1.02
cpu  time for SCC    0.00 s
wall time for SCC    0.00 s
speedup  1.02
cpu  time for grad    0.01 s
wall time for grad    0.01 s
 E :    -50.44162470  G :  0.005100    pred/act E change: -0.255D-04 -0.351D-04
Maxdispl :   0.0807   ||displ|| :   0.1823   Lambda : -0.699D-04
Largest |displ|/coords:  0.0807 (   3)  0.0741 (   6)  0.0675 (   5)
................................................................................
.............................. CYCLE   44 ......................................
................................................................................
   1    -50.7313645 -0.507314E+02  0.749E-02    8.41       0.0  T
   2    -50.7313660 -0.148049E-05  0.564E-02    8.41       1.0  T
   3    -50.7313671 -0.115030E-05  0.693E-03    8.39       2.8  T
   4    -50.7313673 -0.190830E-06  0.253E-03    8.40       7.7  T
   5    -50.7313673 -0.113081E-07  0.789E-04    8.40      24.9  T
speedup  1.04
cpu  time for SCC    0.00 s
wall time for SCC    0.00 s
speedup  0.96
cpu  time for grad    0.01 s
wall time for grad    0.01 s
 E :    -50.44165314  G :  0.003727    pred/act E change: -0.303D-04 -0.284D-04
Maxdispl :   0.1791   ||displ|| :   0.2840   Lambda : -0.553D-04
Largest |displ|/coords:  0.1791 (   3)  0.1052 (   6)  0.1048 (   5)
................................................................................
.............................. CYCLE   45 ......................................
................................................................................
   1    -50.7296272 -0.507296E+02  0.123E-01    8.35       0.0  T
   2    -50.7296294 -0.218139E-05  0.930E-02    8.36       1.0  T
   3    -50.7296321 -0.269948E-05  0.609E-03    8.36       3.2  T
   4    -50.7296322 -0.118086E-06  0.233E-03    8.36       8.4  T
   5    -50.7296322 -0.366116E-08  0.965E-04    8.36      20.3  T
   6    -50.7296322 -0.112728E-08  0.395E-04    8.36      49.7  T
speedup  0.89
cpu  time for SCC    0.00 s
wall time for SCC    0.01 s
speedup  0.93
cpu  time for grad    0.01 s
wall time for grad    0.01 s
 E :    -50.44167404  G :  0.005082    pred/act E change: -0.361D-04 -0.209D-04
Maxdispl :   0.0166   ||displ|| :   0.0387   Lambda : -0.419D-04
Largest |displ|/coords:  0.0166 (  20)  0.0143 (  12)  0.0142 (  16)
................................................................................
.............................. CYCLE   46 ......................................
................................................................................
   1    -50.7300548 -0.507301E+02  0.264E-02    8.33       0.0  T
   2    -50.7300550 -0.267807E-06  0.197E-02    8.33       1.0  T
   3    -50.7300553 -0.233735E-06  0.286E-03    8.33       6.8  T
   4    -50.7300553 -0.272823E-07  0.855E-04    8.33      22.9  T
speedup  1.00
cpu  time for SCC    0.00 s
wall time for SCC    0.00 s
speedup  0.94
cpu  time for grad    0.01 s
wall time for grad    0.01 s
 E :    -50.44169852  G :  0.003866    pred/act E change: -0.299D-04 -0.245D-04
Maxdispl :   0.0540   ||displ|| :   0.1042   Lambda : -0.403D-04
Largest |displ|/coords:  0.0540 (   6)  0.0514 (   3)  0.0344 (   5)
................................................................................
.............................. CYCLE   47 ......................................
................................................................................
   1    -50.7307755 -0.507308E+02  0.448E-02    8.36       0.0  T
   2    -50.7307760 -0.484220E-06  0.337E-02    8.36       1.0  T
   3    -50.7307764 -0.387229E-06  0.419E-03    8.36       4.7  T
   4    -50.7307765 -0.618301E-07  0.128E-03    8.36      15.3  T
   5    -50.7307765 -0.282795E-08  0.444E-04    8.36      44.2  T
   6    -50.7307765 -0.152930E-09  0.236E-04    8.36      83.1  T
speedup  0.86
cpu  time for SCC    0.00 s
wall time for SCC    0.01 s
speedup  0.99
cpu  time for grad    0.01 s
wall time for grad    0.01 s
 E :    -50.44172090  G :  0.003044    pred/act E change: -0.210D-04 -0.224D-04
Maxdispl :   0.1343   ||displ|| :   0.2515   Lambda : -0.353D-04
Largest |displ|/coords:  0.1343 (   3)  0.1208 (   6)  0.0864 (   5)
................................................................................
.............................. CYCLE   48 ......................................
................................................................................
   1    -50.7303467 -0.507303E+02  0.109E-01    8.34       0.0  T
   2    -50.7303482 -0.148485E-05  0.829E-02    8.34       1.0  T
   3    -50.7303502 -0.202164E-05  0.453E-03    8.34       4.3  T
   4    -50.7303503 -0.404394E-07  0.204E-03    8.34       9.6  T
   5    -50.7303503 -0.325674E-08  0.730E-04    8.34      26.9  T
   6    -50.7303503 -0.506468E-09  0.288E-04    8.34      68.1  T
speedup  1.03
cpu  time for SCC    0.01 s
wall time for SCC    0.01 s
speedup  0.99
cpu  time for grad    0.01 s
wall time for grad    0.01 s
 E :    -50.44174874  G :  0.003404    pred/act E change: -0.204D-04 -0.278D-04
Maxdispl :   0.1774   ||displ|| :   0.3452   Lambda : -0.704D-04
Largest |displ|/coords:  0.1774 (   6)  0.1672 (   3)  0.1107 (   5)
................................................................................
.............................. CYCLE   49 ......................................
................................................................................
   1    -50.7308460 -0.507308E+02  0.157E-01    8.35       0.0  T
   2    -50.7308491 -0.315862E-05  0.119E-01    8.35       1.0  T
   3    -50.7308531 -0.395590E-05  0.739E-03    8.35       2.7  T
   4    -50.7308532 -0.146317E-06  0.303E-03    8.35       6.5  T
   5    -50.7308532 -0.851492E-08  0.109E-03    8.35      18.0  T
   6    -50.7308532 -0.783388E-09  0.458E-04    8.35      42.8  T
   7    -50.7308532 -0.477293E-09  0.884E-05    8.35     221.9  T
speedup  0.91
cpu  time for SCC    0.01 s
wall time for SCC    0.01 s
speedup  0.94
cpu  time for grad    0.01 s
wall time for grad    0.01 s
 E :    -50.44179088  G :  0.004806    pred/act E change: -0.188D-04 -0.421D-04
Maxdispl :   0.1992   ||displ|| :   0.3566   Lambda : -0.568D-04
Largest |displ|/coords:  0.1992 (   3)  0.1675 (   6)  0.1181 (   5)
................................................................................
.............................. CYCLE   50 ......................................
................................................................................
   1    -50.7289418 -0.507289E+02  0.163E-01    8.30       0.0  T
   2    -50.7289455 -0.367912E-05  0.124E-01    8.31       1.0  T
   3    -50.7289504 -0.485730E-05  0.782E-03    8.32       2.5  T
   4    -50.7289505 -0.138216E-06  0.294E-03    8.32       6.7  T
   5    -50.7289505 -0.831091E-08  0.120E-03    8.32      16.4  T
speedup  1.02
cpu  time for SCC    0.00 s
wall time for SCC    0.00 s
speedup  1.02
cpu  time for grad    0.01 s
wall time for grad    0.01 s
 E :    -50.44180756  G :  0.007810    pred/act E change: -0.394D-04 -0.167D-04
Maxdispl :   0.1094   ||displ|| :   0.1550   Lambda : -0.140D-03
Largest |displ|/coords:  0.1094 (   2)  0.0622 (   4)  0.0337 (  12)
................................................................................
.............................. CYCLE   51 ......................................
................................................................................
   1    -50.7321347 -0.507321E+02  0.728E-02    8.43       0.0  T
   2    -50.7321367 -0.200704E-05  0.543E-02    8.43       1.0  T
   3    -50.7321381 -0.134546E-05  0.820E-03    8.42       2.4  T
   4    -50.7321383 -0.244748E-06  0.304E-03    8.43       6.5  T
   5    -50.7321383 -0.148173E-07  0.891E-04    8.43      22.0  T
   6    -50.7321383 -0.893401E-09  0.478E-04    8.43      41.1  T
speedup  1.02
cpu  time for SCC    0.01 s
wall time for SCC    0.01 s
speedup  1.01
cpu  time for grad    0.01 s
wall time for grad    0.01 s
 E :    -50.44183920  G :  0.006349    pred/act E change: -0.320D-04 -0.316D-04
Maxdispl :   0.0972   ||displ|| :   0.1640   Lambda : -0.121D-03
Largest |displ|/coords:  0.0972 (   6)  0.0493 (   3)  0.0483 (   1)
................................................................................
.............................. CYCLE   52 ......................................
................................................................................
   1    -50.7317456 -0.507317E+02  0.962E-02    8.37       0.0  T
   2    -50.7317475 -0.195403E-05  0.727E-02    8.37       1.0  T
   3    -50.7317492 -0.172179E-05  0.737E-03    8.37       2.7  T
   4    -50.7317495 -0.235338E-06  0.269E-03    8.37       7.3  T
   5    -50.7317495 -0.145057E-07  0.891E-04    8.37      22.0  T
speedup  1.02
cpu  time for SCC    0.00 s
wall time for SCC    0.00 s
speedup  1.02
cpu  time for grad    0.01 s
wall time for grad    0.01 s
 E :    -50.44190454  G :  0.004498    pred/act E change: -0.718D-04 -0.653D-04
Maxdispl :   0.1282   ||displ|| :   0.2453   Lambda : -0.111D-03
Largest |displ|/coords:  0.1282 (   6)  0.1130 (   3)  0.0587 (   2)

generating ANC from model Hessian ...
 Shifting diagonal of input Hessian by   5.113308788479972E-003
 Lowest  eigenvalues of input Hessian
    0.005000    0.005012   -0.000000   -0.000000    0.000000    0.000000
    0.000000    0.000000    0.005142    0.005265    0.005686    0.005786
    0.006284    0.006442    0.007670    0.008172    0.008913    0.009065
 Highest eigenvalues
    1.392665    1.396797    1.402092    2.596260    3.317125    3.740442
 
cpu  time for ANC gen    0.01 s
wall time for ANC gen    0.01 s
................................................................................
.............................. CYCLE   53 ......................................
................................................................................
   1    -50.7302349 -0.507302E+02  0.144E-01    8.33       0.0  T
   2    -50.7302386 -0.371836E-05  0.109E-01    8.34       1.0  T
   3    -50.7302424 -0.378791E-05  0.896E-03    8.35       2.2  T
   4    -50.7302427 -0.359035E-06  0.350E-03    8.35       5.6  T
   5    -50.7302428 -0.175518E-07  0.123E-03    8.35      15.9  T
   6    -50.7302428 -0.126514E-08  0.662E-04    8.35      29.6  T
   7    -50.7302428 -0.935081E-09  0.125E-04    8.35     156.8  T
speedup  1.04
cpu  time for SCC    0.01 s
wall time for SCC    0.01 s
speedup  0.98
cpu  time for grad    0.01 s
wall time for grad    0.02 s
 E :    -50.44195991  G :  0.008407    pred/act E change:  0.000D+00 -0.554D-04
Maxdispl :   0.0484   ||displ|| :   0.0923   Lambda : -0.149D-03
Largest |displ|/coords:  0.0484 (   4)  0.0439 (  12)  0.0351 (  13)
................................................................................
.............................. CYCLE   54 ......................................
................................................................................
   1    -50.7312332 -0.507312E+02  0.744E-02    8.36       0.0  T
   2    -50.7312341 -0.851250E-06  0.564E-02    8.36       1.0  T
   3    -50.7312351 -0.102737E-05  0.433E-03    8.36       4.5  T
   4    -50.7312352 -0.558335E-07  0.146E-03    8.36      13.5  T
   5    -50.7312352 -0.210421E-08  0.708E-04    8.36      27.7  T
speedup  0.83
cpu  time for SCC    0.00 s
wall time for SCC    0.00 s
speedup  0.94
cpu  time for grad    0.01 s
wall time for grad    0.01 s
 E :    -50.44206685  G :  0.003523    pred/act E change:  0.000D+00 -0.107D-03
Maxdispl :   0.1005   ||displ|| :   0.1736   Lambda : -0.139D-03
Largest |displ|/coords:  0.1005 (   4)  0.0647 (   1)  0.0606 (  13)
................................................................................
.............................. CYCLE   55 ......................................
................................................................................
   1    -50.7319062 -0.507319E+02  0.105E-01    8.37       0.0  T
   2    -50.7319074 -0.119883E-05  0.793E-02    8.37       1.0  T
   3    -50.7319089 -0.147287E-05  0.621E-03    8.37       3.2  T
   4    -50.7319089 -0.775022E-07  0.235E-03    8.37       8.4  T
   5    -50.7319089 -0.777183E-08  0.919E-04    8.37      21.3  T
   6    -50.7319089 -0.114844E-08  0.468E-04    8.37      41.9  T
speedup  1.02
cpu  time for SCC    0.01 s
wall time for SCC    0.01 s
speedup  0.98
cpu  time for grad    0.01 s
wall time for grad    0.01 s
 E :    -50.44217116  G :  0.002217    pred/act E change: -0.752D-04 -0.104D-03
Maxdispl :   0.2663   ||displ|| :   0.3914   Lambda : -0.207D-03
Largest |displ|/coords:  0.2663 (   4)  0.1521 (   1)  0.1360 (   3)
................................................................................
.............................. CYCLE   56 ......................................
................................................................................
   1    -50.7299757 -0.507300E+02  0.237E-01    8.35       0.0  T
   2    -50.7299843 -0.856759E-05  0.179E-01    8.36       1.0  T
   3    -50.7299944 -0.101035E-04  0.160E-02    8.38       1.2  T
   4    -50.7299951 -0.727604E-06  0.537E-03    8.37       3.7  T
   5    -50.7299952 -0.357989E-07  0.261E-03    8.37       7.5  T
   6    -50.7299952 -0.111924E-07  0.108E-03    8.37      18.1  T
   7    -50.7299952 -0.271358E-08  0.233E-04    8.37      84.0  T
   8    -50.7299952 -0.112657E-09  0.643E-05    8.37     305.2  T
speedup  0.91
cpu  time for SCC    0.01 s
wall time for SCC    0.01 s
speedup  0.99
cpu  time for grad    0.02 s
wall time for grad    0.02 s
 E :    -50.44226646  G :  0.011003    pred/act E change: -0.718D-04 -0.953D-04
Maxdispl :   0.1013   ||displ|| :   0.1664   Lambda : -0.209D-03
Largest |displ|/coords:  0.1013 (   4)  0.0845 (   3)  0.0642 (   1)
................................................................................
.............................. CYCLE   57 ......................................
................................................................................
   1    -50.7313126 -0.507313E+02  0.600E-02    8.38       0.0  T
   2    -50.7313140 -0.138984E-05  0.448E-02    8.38       1.0  T
   3    -50.7313152 -0.114737E-05  0.696E-03    8.38       2.8  T
   4    -50.7313153 -0.157892E-06  0.245E-03    8.38       8.0  T
   5    -50.7313153 -0.103065E-07  0.832E-04    8.38      23.6  T
speedup  1.02
cpu  time for SCC    0.00 s
wall time for SCC    0.00 s
speedup  1.02
cpu  time for grad    0.01 s
wall time for grad    0.01 s
 E :    -50.44240407  G :  0.004641    pred/act E change: -0.119D-03 -0.138D-03
Maxdispl :   0.3485   ||displ|| :   0.4843   Lambda : -0.275D-03
Largest |displ|/coords:  0.3485 (   4)  0.2146 (   1)  0.1790 (   3)
................................................................................
.............................. CYCLE   58 ......................................
................................................................................
   1    -50.7304281 -0.507304E+02  0.188E-01    8.35       0.0  T
   2    -50.7304338 -0.572631E-05  0.141E-01    8.36       1.0  T
   3    -50.7304397 -0.592624E-05  0.151E-02    8.37       1.3  T
   4    -50.7304403 -0.545912E-06  0.582E-03    8.37       3.4  T
   5    -50.7304403 -0.417540E-07  0.186E-03    8.37      10.5  T
   6    -50.7304403 -0.414567E-08  0.106E-03    8.37      18.4  T
speedup  1.02
cpu  time for SCC    0.01 s
wall time for SCC    0.01 s
speedup  1.02
cpu  time for grad    0.01 s
wall time for grad    0.01 s
 E :    -50.44262948  G :  0.006080    pred/act E change: -0.108D-03 -0.225D-03
Maxdispl :   0.5011   ||displ|| :   0.6696   Lambda : -0.369D-03
Largest |displ|/coords:  0.5011 (   4)  0.3063 (   1)  0.2394 (   3)
................................................................................
.............................. CYCLE   59 ......................................
................................................................................
   1    -50.7271296 -0.507271E+02  0.264E-01    8.31       0.0  T
   2    -50.7271417 -0.120698E-04  0.199E-01    8.32       1.0  T
   3    -50.7271548 -0.131074E-04  0.203E-02    8.34       1.0  T
   4    -50.7271558 -0.105272E-05  0.786E-03    8.34       2.5  T
   5    -50.7271559 -0.805482E-07  0.283E-03    8.34       6.9  T
   6    -50.7271559 -0.941262E-08  0.140E-03    8.34      14.0  T
speedup  0.85
cpu  time for SCC    0.01 s
wall time for SCC    0.01 s
speedup  0.94
cpu  time for grad    0.01 s
wall time for grad    0.01 s
 E :    -50.44287671  G :  0.014076    pred/act E change: -0.170D-03 -0.247D-03
Maxdispl :   0.2854   ||displ|| :   0.4277   Lambda : -0.605D-03
Largest |displ|/coords:  0.2854 (   4)  0.1893 (   1)  0.0965 (  13)
................................................................................
.............................. CYCLE   60 ......................................
................................................................................
   1    -50.7311423 -0.507311E+02  0.162E-01    8.32       0.0  T
   2    -50.7311520 -0.977565E-05  0.120E-01    8.32       1.0  T
   3    -50.7311589 -0.690633E-05  0.190E-02    8.31       1.0  T
   4    -50.7311600 -0.111386E-05  0.619E-03    8.32       3.2  T
   5    -50.7311601 -0.719358E-07  0.223E-03    8.32       8.8  T
   6    -50.7311601 -0.337393E-08  0.111E-03    8.32      17.6  T
speedup  0.85
cpu  time for SCC    0.00 s
wall time for SCC    0.01 s
speedup  0.94
cpu  time for grad    0.01 s
wall time for grad    0.01 s
 E :    -50.44312613  G :  0.010709    pred/act E change: -0.267D-03 -0.249D-03
Maxdispl :   0.2494   ||displ|| :   0.3875   Lambda : -0.508D-03
Largest |displ|/coords:  0.2494 (   4)  0.1804 (   1)  0.1493 (   3)
................................................................................
.............................. CYCLE   61 ......................................
................................................................................
   1    -50.7289238 -0.507289E+02  0.176E-01    8.28       0.0  T
   2    -50.7289285 -0.471891E-05  0.133E-01    8.29       1.0  T
   3    -50.7289340 -0.553815E-05  0.107E-02    8.30       1.8  T
   4    -50.7289343 -0.280449E-06  0.478E-03    8.29       4.1  T
   5    -50.7289343 -0.298699E-07  0.154E-03    8.29      12.8  T
   6    -50.7289343 -0.332726E-08  0.711E-04    8.29      27.6  T
speedup  0.86
cpu  time for SCC    0.01 s
wall time for SCC    0.01 s
speedup  0.94
cpu  time for grad    0.01 s
wall time for grad    0.01 s
 E :    -50.44344845  G :  0.011498    pred/act E change: -0.358D-03 -0.322D-03
Maxdispl :   0.1043   ||displ|| :   0.2334   Lambda : -0.425D-03
Largest |displ|/coords:  0.1043 (   1)  0.0958 (   2)  0.0666 (   9)
................................................................................
.............................. CYCLE   62 ......................................
................................................................................
   1    -50.7313429 -0.507313E+02  0.138E-01    8.34       0.0  T
   2    -50.7313454 -0.252791E-05  0.103E-01    8.34       1.0  T
   3    -50.7313478 -0.236459E-05  0.107E-02    8.33       1.8  T
   4    -50.7313480 -0.233642E-06  0.368E-03    8.34       5.3  T
   5    -50.7313481 -0.143085E-07  0.115E-03    8.34      17.1  T
   6    -50.7313481 -0.173797E-08  0.645E-04    8.34      30.4  T
speedup  1.02
cpu  time for SCC    0.01 s
wall time for SCC    0.01 s
speedup  0.95
cpu  time for grad    0.01 s
wall time for grad    0.01 s
 E :    -50.44369679  G :  0.011166    pred/act E change: -0.292D-03 -0.248D-03
Maxdispl :   0.2531   ||displ|| :   0.4468   Lambda : -0.401D-03
Largest |displ|/coords:  0.2531 (   1)  0.2129 (   4)  0.1798 (   2)
................................................................................
.............................. CYCLE   63 ......................................
................................................................................
   1    -50.7302932 -0.507303E+02  0.191E-01    8.33       0.0  T
   2    -50.7302995 -0.636567E-05  0.143E-01    8.32       1.0  T
   3    -50.7303057 -0.614393E-05  0.141E-02    8.32       1.4  T
   4    -50.7303063 -0.598853E-06  0.630E-03    8.32       3.1  T
   5    -50.7303063 -0.352723E-07  0.156E-03    8.32      12.5  T
   6    -50.7303063 -0.332819E-08  0.819E-04    8.32      23.9  T
speedup  1.07
cpu  time for SCC    0.01 s
wall time for SCC    0.01 s
speedup  1.04
cpu  time for grad    0.01 s
wall time for grad    0.01 s
 E :    -50.44397701  G :  0.013590    pred/act E change: -0.224D-03 -0.280D-03
Maxdispl :   0.2858   ||displ|| :   0.4601   Lambda : -0.828D-03
Largest |displ|/coords:  0.2858 (   2)  0.1785 (   1)  0.1233 (   8)
................................................................................
.............................. CYCLE   64 ......................................
................................................................................
   1    -50.7403197 -0.507403E+02  0.210E-01    8.43       0.0  T
   2    -50.7403350 -0.153733E-04  0.154E-01    8.42       1.0  T
   3    -50.7403440 -0.892452E-05  0.286E-02    8.40       1.0  T
   4    -50.7403459 -0.192076E-05  0.805E-03    8.41       2.4  T
   5    -50.7403460 -0.876866E-07  0.238E-03    8.41       8.2  T
   6    -50.7403460 -0.654074E-08  0.122E-03    8.41      16.1  T
speedup  1.05
cpu  time for SCC    0.01 s
wall time for SCC    0.01 s
speedup  1.03
cpu  time for grad    0.01 s
wall time for grad    0.01 s
 E :    -50.44407319  G :  0.017383    pred/act E change: -0.240D-03 -0.962D-04
Maxdispl :   0.2285   ||displ|| :   0.4028   Lambda : -0.847D-03
Largest |displ|/coords:  0.2285 (   1)  0.2115 (   4)  0.1303 (   2)
................................................................................
.............................. CYCLE   65 ......................................
................................................................................
   1    -50.7357555 -0.507358E+02  0.186E-01    8.31       0.0  T
   2    -50.7357662 -0.107441E-04  0.139E-01    8.32       1.0  T
   3    -50.7357753 -0.905777E-05  0.187E-02    8.33       1.0  T
   4    -50.7357766 -0.132512E-05  0.738E-03    8.33       2.7  T
   5    -50.7357767 -0.779219E-07  0.228E-03    8.33       8.6  T
   6    -50.7357767 -0.633908E-08  0.110E-03    8.33      17.8  T
speedup  1.05
[...]
Largest |displ|/coords:  0.0284 (   3)  0.0214 (   1)  0.0079 (   2)
................................................................................
.............................. CYCLE  128 ......................................
................................................................................
   1    -50.7386911 -0.507387E+02  0.172E-02    8.40       0.0  T
   2    -50.7386912 -0.607023E-07  0.128E-02    8.40       1.5  T
   3    -50.7386912 -0.520485E-07  0.146E-03    8.40      13.4  T
   4    -50.7386912 -0.653217E-08  0.633E-04    8.40      31.0  T
   5    -50.7386912 -0.350163E-09  0.149E-04    8.40     131.6  T
speedup  1.02
cpu  time for SCC    0.00 s
wall time for SCC    0.00 s
speedup  1.04
cpu  time for grad    0.01 s
wall time for grad    0.01 s
 E :    -50.44891814  G :  0.000595    pred/act E change: -0.981D-06 -0.116D-05
Maxdispl :   0.0232   ||displ|| :   0.0358   Lambda : -0.142D-05
Largest |displ|/coords:  0.0232 (   3)  0.0173 (   1)  0.0087 (   8)
................................................................................
.............................. CYCLE  129 ......................................
................................................................................
   1    -50.7387716 -0.507388E+02  0.177E-02    8.40       0.0  T
   2    -50.7387716 -0.551103E-07  0.133E-02    8.40       1.5  T
   3    -50.7387717 -0.616242E-07  0.138E-03    8.40      14.2  T
   4    -50.7387717 -0.350137E-08  0.562E-04    8.40      34.9  T
   5    -50.7387717 -0.378343E-09  0.156E-04    8.40     125.7  T
speedup  1.04
cpu  time for SCC    0.01 s
wall time for SCC    0.00 s
speedup  1.05
cpu  time for grad    0.01 s
wall time for grad    0.01 s
 E :    -50.44891916  G :  0.000584    pred/act E change: -0.830D-06 -0.102D-05
Maxdispl :   0.0294   ||displ|| :   0.0381   Lambda : -0.132D-05
Largest |displ|/coords:  0.0294 (   3)  0.0181 (   1)  0.0069 (   2)
................................................................................
.............................. CYCLE  130 ......................................
................................................................................
   1    -50.7387935 -0.507388E+02  0.178E-02    8.40       0.0  T
   2    -50.7387936 -0.557539E-07  0.132E-02    8.40       1.5  T
   3    -50.7387936 -0.607478E-07  0.120E-03    8.40      16.3  T
   4    -50.7387936 -0.283582E-08  0.497E-04    8.40      39.4  T
   5    -50.7387936 -0.267264E-09  0.145E-04    8.40     134.9  T
speedup  1.02
cpu  time for SCC    0.00 s
wall time for SCC    0.00 s
speedup  0.97
cpu  time for grad    0.01 s
wall time for grad    0.01 s
 E :    -50.44892008  G :  0.000549    pred/act E change: -0.711D-06 -0.926D-06
Maxdispl :   0.0235   ||displ|| :   0.0297   Lambda : -0.986D-06
Largest |displ|/coords:  0.0235 (   3)  0.0131 (   1)  0.0047 (   2)
................................................................................
.............................. CYCLE  131 ......................................
................................................................................
   1    -50.7388720 -0.507389E+02  0.130E-02    8.40       0.0  T
   2    -50.7388720 -0.332869E-07  0.969E-03    8.40       2.0  T
   3    -50.7388721 -0.334351E-07  0.954E-04    8.40      20.6  T
   4    -50.7388721 -0.237515E-08  0.317E-04    8.40      61.9  T
speedup  1.03
cpu  time for SCC    0.00 s
wall time for SCC    0.00 s
speedup  1.03
cpu  time for grad    0.01 s
wall time for grad    0.01 s
 E :    -50.44892076  G :  0.000395    pred/act E change: -0.662D-06 -0.679D-06
Maxdispl :   0.0201   ||displ|| :   0.0243   Lambda : -0.593D-06
Largest |displ|/coords:  0.0201 (   3)  0.0083 (   1)  0.0049 (   2)
................................................................................
.............................. CYCLE  132 ......................................
................................................................................
   1    -50.7388603 -0.507389E+02  0.950E-03    8.40       0.0  T
   2    -50.7388603 -0.137178E-07  0.703E-03    8.40       2.8  T
   3    -50.7388603 -0.137834E-07  0.651E-04    8.40      30.1  T
   4    -50.7388603 -0.731497E-09  0.247E-04    8.40      79.5  T
speedup  1.00
cpu  time for SCC    0.00 s
wall time for SCC    0.00 s
speedup  1.03
cpu  time for grad    0.01 s
wall time for grad    0.01 s
 E :    -50.44892119  G :  0.000323    pred/act E change: -0.493D-06 -0.429D-06
Maxdispl :   0.0190   ||displ|| :   0.0225   Lambda : -0.507D-06
Largest |displ|/coords:  0.0190 (   3)  0.0072 (   1)  0.0056 (   7)
................................................................................
.............................. CYCLE  133 ......................................
................................................................................
   1    -50.7388583 -0.507389E+02  0.861E-03    8.41       0.0  T
   2    -50.7388583 -0.104167E-07  0.642E-03    8.41       3.1  T
   3    -50.7388583 -0.113938E-07  0.577E-04    8.41      34.0  T
   4    -50.7388583 -0.557499E-09  0.216E-04    8.41      90.8  T
speedup  1.00
cpu  time for SCC    0.00 s
wall time for SCC    0.00 s
speedup  1.03
cpu  time for grad    0.01 s
wall time for grad    0.01 s
 E :    -50.44892156  G :  0.000285    pred/act E change: -0.296D-06 -0.363D-06
Maxdispl :   0.0181   ||displ|| :   0.0215   Lambda : -0.402D-06
Largest |displ|/coords:  0.0181 (   3)  0.0067 (   7)  0.0054 (   1)
................................................................................
.............................. CYCLE  134 ......................................
................................................................................
   1    -50.7388066 -0.507388E+02  0.845E-03    8.41       0.0  T
   2    -50.7388066 -0.100155E-07  0.630E-03    8.41       3.1  T
   3    -50.7388066 -0.904371E-08  0.550E-04    8.41      35.6  T
   4    -50.7388066 -0.986944E-09  0.216E-04    8.41      90.7  T
speedup  1.00
cpu  time for SCC    0.00 s
wall time for SCC    0.00 s
speedup  1.03
cpu  time for grad    0.01 s
wall time for grad    0.01 s
 E :    -50.44892186  G :  0.000319    pred/act E change: -0.254D-06 -0.300D-06
Maxdispl :   0.0132   ||displ|| :   0.0177   Lambda : -0.383D-06
Largest |displ|/coords:  0.0132 (   3)  0.0070 (   7)  0.0052 (   5)
................................................................................
.............................. CYCLE  135 ......................................
................................................................................
   1    -50.7387800 -0.507388E+02  0.842E-03    8.41       0.0  T
   2    -50.7387800 -0.923773E-08  0.634E-03    8.41       3.1  T
   3    -50.7387800 -0.108326E-07  0.467E-04    8.40      42.0  T
   4    -50.7387800 -0.608040E-09  0.179E-04    8.40     109.5  T
speedup  0.77
cpu  time for SCC    0.00 s
wall time for SCC    0.00 s
speedup  0.97
cpu  time for grad    0.01 s
wall time for grad    0.01 s
 E :    -50.44892212  G :  0.000298    pred/act E change: -0.201D-06 -0.268D-06
Maxdispl :   0.0106   ||displ|| :   0.0139   Lambda : -0.231D-06
Largest |displ|/coords:  0.0106 (   3)  0.0054 (   7)  0.0030 (   5)
................................................................................
.............................. CYCLE  136 ......................................
................................................................................
   1    -50.7387490 -0.507387E+02  0.682E-03    8.40       0.0  T
   2    -50.7387490 -0.611309E-08  0.512E-03    8.40       3.8  T
   3    -50.7387490 -0.682334E-08  0.423E-04    8.40      46.4  T
   4    -50.7387490 -0.419526E-09  0.171E-04    8.40     114.7  T
speedup  1.08
cpu  time for SCC    0.00 s
wall time for SCC    0.00 s
speedup  1.07
cpu  time for grad    0.01 s
wall time for grad    0.01 s
 E :    -50.44892229  G :  0.000245    pred/act E change: -0.191D-06 -0.165D-06
Maxdispl :   0.0028   ||displ|| :   0.0057   Lambda : -0.135D-06
Largest |displ|/coords:  0.0028 (   7)  0.0025 (   5)  0.0021 (   1)
................................................................................
.............................. CYCLE  137 ......................................
................................................................................
   1    -50.7387648 -0.507388E+02  0.346E-03    8.40       0.0  T
   2    -50.7387648 -0.188761E-08  0.258E-03    8.40       7.6  T
   3    -50.7387648 -0.152482E-08  0.315E-04    8.40      62.3  T
   4    -50.7387648 -0.237179E-09  0.870E-05    8.40     225.4  T
speedup  1.05
cpu  time for SCC    0.00 s
wall time for SCC    0.00 s
speedup  0.98
cpu  time for grad    0.01 s
wall time for grad    0.01 s
 E :    -50.44892238  G :  0.000131    pred/act E change: -0.115D-06 -0.938D-07
Maxdispl :   0.0046   ||displ|| :   0.0063   Lambda : -0.719D-07
Largest |displ|/coords:  0.0046 (   3)  0.0025 (   2)  0.0022 (   7)

   *** GEOMETRY OPTIMIZATION CONVERGED AFTER 137 ITERATIONS ***

------------------------------------------------------------------------
 total energy gain (kcal):     -0.1002
------------------------------------------------------------------------
================
 final structure:
================
$coord
       -0.77968764771028       -2.71371330991723       -0.51364324742334      S 
       -1.04309758549718       -0.96320457083348       -2.58469717991804      O 
       -2.04340502266944       -2.01651674969693        1.76857818623730      O 
        2.08371941722066       -3.09108940626490        0.01069420481163      O 
       -1.58348087059150       -5.35209334515129       -1.34873316406931      O 
       -0.87411925512564       -5.51975714536465       -3.16643868834290      H 
        2.82880228104744       -1.50446270830154        0.77976027074452      H 
        3.79393422605338        1.09286564385640        1.72167879162683      O 
        5.57249615340860        1.30221473141456        1.44158545131537      H 
       -3.75187357126172        2.67366615281209        3.69872078187446      O 
       -3.87394969568652        1.11644482360486        2.75674133654956      H 
       -2.00954210955856        6.29403610144761        0.67823068824288      O 
       -2.83291305914410        5.00301565535609        1.74532054038521      H 
       -1.55278459637371        7.64729966736842        1.79088604264653      H 
        1.40168123368651        3.46756437834130       -1.70303496750840      O 
        0.38353792381681        2.06562861853509       -2.31613127192784      H 
        0.18324248546002        4.66685887974921       -0.96190019584860      H 
        2.90360987300125        2.21064945688649        0.42527049558348      H 
        0.40578265011356        0.39922092658885        5.83187319259765      O 
       -0.43588522563956       -0.92497725710105        4.89743101372977      H 
        1.82421692137839        0.88645487207612        4.79433022016712      H 
       -2.41553739778647        2.33685132048161        4.91958368892566      H 
        0.27753917367125       -4.98351427930362       -5.77334196114397      N 
       -0.65157419878081       -5.62146156550053       -7.31656898078770      H 
        2.13605237516151       -5.39078200240902       -5.94773415669429      H 
        0.05323552199161       -3.08119886975902       -5.62846105376788      H 
$end
 
 Bond Distances (Angstroems)
 ---------------------------
S1-O2=1.4417         S1-O3=1.4289         S1-O4=1.5533         S1-O5=1.5250         O2-S1=1.4417         O3-S1=1.4289         
O4-S1=1.5533         O4-H7=1.0129         O5-S1=1.5250         O5-H6=1.0363         H6-O5=1.0363         H7-O4=1.0129         
O8-H9=0.9592         O8-H18=1.0210        H9-O8=0.9592         O10-H11=0.9652       O10-H22=0.9743       H11-O10=0.9652       
O12-H13=0.9876       O12-H14=0.9581       H13-O12=0.9876       H14-O12=0.9581       O15-H16=0.9726       O15-H17=0.9861       
H16-O15=0.9726       H17-O15=0.9861       H18-O8=1.0210        O19-H20=0.9664       O19-H21=0.9651       H20-O19=0.9664       
H21-O19=0.9651       H22-O10=0.9743       N23-H24=1.0112       N23-H25=1.0110       N23-H26=1.0165       H24-N23=1.0112       
H25-N23=1.0110       H26-N23=1.0165       
 N  H  Rav=1.0129 sigma=0.0025  Rmin=1.0110  Rmax=1.0165     3
 O  H  Rav=0.9837 sigma=0.0250  Rmin=0.9581  Rmax=1.0363    12
 S  O  Rav=1.4872 sigma=0.0531  Rmin=1.4289  Rmax=1.5533     4
 
 selected bond angles (degree)
 --------------------
O3-S1-O2=115.55                O4-S1-O2=108.22                O4-S1-O3=109.80                O5-S1-O2=109.94                
O5-S1-O3=110.53                O5-S1-O4=101.90                H7-O4-S1=110.18                H6-O5-S1=104.26                
H18-O8-H9=106.38               H22-O10-H11=103.58             
 
 selected dihedral angles (degree)
 ---------------------------------
H7-O4-S1-O2= 70.52            H7-O4-S1-O3=303.56            H7-O4-S1-O5=186.38            H6-O5-S1-O2= 39.85            
H6-O5-S1-O3=168.59            H6-O5-S1-O4=285.24            
 
 CMA Distance (Angstroems)
 ---------------------------
R(CMA):  2.4410

========================================================================
 FINAL SINGLEPOINT CALCULATION ON OPTIMIZED GEOMETRY
========================================================================

 Ncao       : 65
 Nao        : 64
 Nshell     : 38
 Nel        : 80
 T(el)      :   300.0
 intcut     :    25.0
 scfconv/Eh :  0.100E-05
   qconv/e  :  0.100E-03
 intneglect :  0.100E-07
 broydamp   :      0.250
 iter      E             dE          RMSdq      gap      omega  full diag
   1    -50.7387648 -0.507388E+02  0.249E-05    8.40       0.0  T
   2    -50.7387648 -0.123634E-11  0.161E-05    8.40    1216.8  T
   3    -50.7387648 -0.468958E-12  0.478E-06    8.40    4101.7  T
speedup  1.00
cpu  time for SCC    0.00 s
wall time for SCC    0.00 s

   *** convergence criteria satisfied after 3 iterations ***

          eigenvalues
 #    :          28         29         30         31         32         33         34         35
 occ. :        2.000      2.000      2.000      2.000      2.000      2.000      2.000      2.000
 eps  :       -13.444    -13.318    -13.208    -12.882    -12.841    -12.701    -12.662    -12.485
 #    :          36         37         38         39         40         41         42         43
 occ. :        2.000      2.000      2.000      2.000      2.000      0.000      0.000      0.000
 eps  :       -12.020    -11.889    -11.668    -11.539    -11.481     -3.078     -1.002     -0.613
 #    :          44         45         46         47         48         49         50         51
 occ. :        0.000      0.000      0.000      0.000      0.000      0.000      0.000      0.000
 eps  :         0.034      0.493      0.813      1.950      2.814      4.349      4.745      4.850


   #   Z            q   n(s)   n(p)   n(d)      C6AA      α(0)
   1  16 S      1.705  1.581  1.775  0.940    88.656    15.847
   2   8 O     -0.723  1.764  4.959  0.000    29.354     7.264
   3   8 O     -0.681  1.747  4.934  0.000    28.197     7.120
   4   8 O     -0.631  1.760  4.871  0.000    25.921     6.873
   5   8 O     -0.595  1.750  4.845  0.000    25.050     6.756
   6   1 H      0.365  0.635  0.000  0.000     0.545     1.154
   7   1 H      0.390  0.610  0.000  0.000     0.501     1.110
   8   8 O     -0.637  1.764  4.873  0.000    26.093     6.894
   9   1 H      0.297  0.703  0.000  0.000     0.730     1.342
  10   8 O     -0.610  1.747  4.863  0.000    25.420     6.805
  11   1 H      0.304  0.696  0.000  0.000     0.709     1.323
  12   8 O     -0.617  1.751  4.866  0.000    25.602     6.829
  13   1 H      0.332  0.668  0.000  0.000     0.632     1.249
  14   1 H      0.281  0.719  0.000  0.000     0.782     1.389
  15   8 O     -0.629  1.756  4.873  0.000    25.887     6.867
  16   1 H      0.314  0.686  0.000  0.000     0.681     1.296
  17   1 H      0.339  0.661  0.000  0.000     0.615     1.232
  18   1 H      0.351  0.649  0.000  0.000     0.585     1.201
  19   8 O     -0.609  1.746  4.863  0.000    25.405     6.803
  20   1 H      0.305  0.695  0.000  0.000     0.708     1.321
  21   1 H      0.304  0.696  0.000  0.000     0.710     1.324
  22   1 H      0.320  0.680  0.000  0.000     0.663     1.279
  23   7 N     -0.436  1.346  4.091  0.000    31.401     8.323
  24   1 H      0.182  0.818  0.000  0.000     1.203     1.718
  25   1 H      0.180  0.820  0.000  0.000     1.214     1.726
  26   1 H      0.201  0.799  0.000  0.000     1.100     1.643

 Mol. C6AA /au·bohr⁶  :       5443.931391
 Mol. C8AA /au·bohr⁸  :     117547.919085
 Mol. α(0) /au        :        106.687763

 
 Wiberg/Mayer (AO) data. WBOs > 0.1 written file <wbo>
 largest (>0.05) Wiberg bond orders for each atom
           total WBO             WBO to atom ...
     1  S   4.829    O    3 1.422    O    2 1.348    O    5 1.046    O    4 0.975
     2  O   1.732    S    1 1.348    O    3 0.121    O    4 0.091    O    5 0.090
     3  O   1.773    S    1 1.422    O    2 0.121    O    4 0.093    O    5 0.076
     4  O   1.952    S    1 0.975    H    7 0.689    O    3 0.093    O    2 0.091    O    5 0.053
     5  O   2.002    S    1 1.046    H    6 0.657    O    2 0.090    O    3 0.076    N   23 0.063    O    4 0.053
     6  H   0.867    O    5 0.657    N   23 0.194
     7  H   0.848    O    4 0.689    O    8 0.139
     8  O   1.921    H    9 0.905    H   18 0.735    H    7 0.139    O   15 0.056
     9  H   0.912    O    8 0.905
    10  O   1.884    H   11 0.887    H   22 0.856    H   13 0.074
    11  H   0.908    O   10 0.887
    12  O   1.866    H   14 0.917    H   13 0.815    H   17 0.069
    13  H   0.890    O   12 0.815    O   10 0.074
    14  H   0.921    O   12 0.917
    15  O   1.927    H   16 0.860    H   17 0.814    H   18 0.140    O    8 0.056
    16  H   0.902    O   15 0.860
    17  H   0.885    O   15 0.814    O   12 0.069
    18  H   0.877    O    8 0.735    O   15 0.140
    19  O   1.853    H   21 0.884    H   20 0.884
    20  H   0.907    O   19 0.884
    21  H   0.908    O   19 0.884
    22  H   0.897    O   10 0.856
    23  N   3.147    H   25 0.966    H   24 0.964    H   26 0.942    H    6 0.194    O    5 0.063
    24  H   0.967    N   23 0.964
    25  H   0.968    N   23 0.966
    26  H   0.960    N   23 0.942
 MOs/occ written to file <molden.input>
 
molecular dipole:
                 x           y           z       tot (Debye)
 q only:        1.317      -0.815      -1.563
   full:        1.656      -1.051      -2.014       7.146
molecular quadrupole (traceless):
                xx          xy          yy          xz          yz          zz
 q only:       -1.693       1.325       1.619       1.812      15.613       0.074
  q+dip:       -1.144       1.614       0.380       1.706      18.011       0.764
   full:       -1.033       2.025       0.601       2.023      18.666       0.432

SCC energy    :     -50.7387648
rep           :       0.2896202
ES            :       0.2354871
AES           :      -0.0519623
AXC           :      -0.0077447
disp          :      -0.0180621
XB            :       0.0000000
fix           :       0.0000000
total E       :     -50.4489224
atomizationE  :       4.9792265     3124.51
(atE without considering molecular charge,
 total energy contains solvation terms)
H-L gap (eV)  :          8.4031
optimized geometry written to: xtbopt.xyz


------------------------------------------------------------------------
 * finished run on 2019/09/16 at 12:51:10.571     
------------------------------------------------------------------------
 total:
 * wall-time:     0 d,  0 h,  0 min,  4.260 sec
 *  cpu-time:     0 d,  0 h,  0 min,  4.124 sec
 * ratio c/w:     0.968 speedup
 SCF:
 * wall-time:     0 d,  0 h,  0 min,  0.514 sec
 *  cpu-time:     0 d,  0 h,  0 min,  0.511 sec
 * ratio c/w:     0.993 speedup
 ANC optimizer:
 * wall-time:     0 d,  0 h,  0 min,  3.692 sec
 *  cpu-time:     0 d,  0 h,  0 min,  3.563 sec
 * ratio c/w:     0.965 speedup

