      -----------------------------------------------------------      
     |                   =====================                   |     
     |                           x T B                           |     
     |                   =====================                   |     
     |                         S. Grimme                         |     
     |          Mulliken Center for Theoretical Chemistry        |     
     |                    University of Bonn                     |     
     |                 Version 6.0.1 (SAW181210)                 |     
      -----------------------------------------------------------      

   This program is distributed in the hope that it will be useful,
   but WITHOUT ANY WARRANTY; without even the implied warranty of
   MERCHANTABILITY or FITNESS FOR A PARTICULAR PURPOSE.
   
   FOR NON-COMMERCIAL, ACADEMIA USE ONLY.
   
   Cite this work as:
   S. Grimme, C. Bannwarth, P. Shushkov, J. Comput. Theory Chem., 2017,
   13, 1989-2009.
   C. Bannwarth, S. Ehlert and S. Grimme., ChemRxiv, 2018, preprint.
   http://doi.org/10.26434/chemrxiv.7246238.v1
   
   for sTDA-xTB:
   S. Grimme and C. Bannwarth, J. Chem. Phys., 2016, 145, 054103.
   
   in the mass-spec context:
   V. Asgeirsson, C. Bauer and S. Grimme, Chem. Sci., 2017, 8, 4879.
   
   if GBSA is used:
   P. Shushkov, F. März and S. Grimme, unpublished.
   
   for ANC optimizer:
   S. Grimme, unpublished.
   Rational Function algorithm used in ANCopt:
   F. Eckert, P. Pulay, H.-J. Werner, J. Comput. Chem., 1997, 18, 1473.
   
   with help from (in alphabetical order)
   C. Bannwarth, F. Bohle, G. Brandenburg, E. Caldeweyher, M. Checinski,
   S. Dohm, S. Ehlert, S. Ehrlich, F. März, H. Neugebauer, J. Pisarek,
   P. Pracht, P. Shushkov, and S. Spicher.
   
 * started run on 2019/09/16 at 12:53:26.275     
========================================================================
 # omp threads = 1
========================================================================
number of atoms            : 26
number of electrons        : 80
charge                     : 0
spin                       : .0
first test random number   : .9889

########################################################################
# WARNING! Please study the warnings concerning your input carefully
#  - XTBPATH is not set, using XTBHOME instead
#  - the use of '-opt' is discouraged, please use '--opt' next time
#  - the use of '-chrg' is discouraged, please use '--chrg' next time
#  - the use of '-uhf' is discouraged, please use '--uhf' next time
########################################################################

           ------------------------------------------------- 
          |                 G F N 2 - x T B                 |
          | Geometry, Frequencies, Noncovalent interactions |
          |            JCTC 2018 parametrisation            |
           ------------------------------------------------- 
      method parameters     
 k(s)        :  1.8500
 k(p)        :  2.2300
 k(d)        :  2.2300
 k(f)        :  2.0000
 kEN (H0ij)  : -2.0000
 D4 a1       :  0.5200
 D4 a2       :  5.0000
 D4 s6       :  1.0000
 D4 s8       :  2.7000
 D4 s9       :  5.0000
 alphaj      :  2.0000


            Z     q(EN)     CN     RAES       Cart. coordinates
     1  S   6.0    0.61    4.51    4.57     4.43113    -2.79163     1.75967
     2  O   6.0   -0.30    1.19    1.80     2.20691    -4.23066     2.71369
     3  O   6.0   -0.30    1.18    1.80     4.22804    -0.10314     2.57139
     4  O   6.0   -0.27    2.12    1.84     4.49574    -2.91889    -1.01380
     5  O   6.0   -0.25    2.08    1.84     6.76060    -3.89673     2.79158
     6  H   1.0    0.14    1.22    1.47     7.81790    -4.46140     1.42983
     7  H   1.0    0.17    1.35    1.51     2.97433    -2.19717    -1.68873
     8  O   6.0   -0.36    1.55    1.80    -5.52692    -1.08473     1.19107
     9  H   1.0    0.18    0.94    1.42    -7.07725    -1.03372     2.22916
    10  O   6.0   -0.42    1.75    1.81     0.33473    -1.15034    -2.48356
    11  H   1.0    0.17    0.95    1.42     0.51324    -1.32746    -4.33303
    12  O   6.0   -0.29    2.01    1.83     2.05208     2.98059    -0.84501
    13  H   1.0    0.17    1.02    1.43     2.91919     2.44999     0.66535
    14  H   1.0    0.17    1.10    1.44     1.51335     1.44241    -1.65644
    15  O   6.0   -0.23    2.94    2.63    -3.39342     1.55214    -1.79078
    16  H   1.0    0.16    1.22    1.47    -4.48753     0.60692    -0.60786
    17  H   1.0    0.12    1.07    1.44    -3.00436     3.26891    -1.16519
    18  H   1.0    0.15    1.15    1.45    -1.84585     0.59929    -2.22505
    19  O   6.0   -0.22    2.94    2.63    -2.10985    -3.88306     0.30106
    20  H   1.0    0.16    1.16    1.46    -1.18740    -2.96676    -1.04033
    21  H   1.0    0.15    1.02    1.43    -1.00676    -4.30057     1.74981
    22  H   1.0    0.16    1.21    1.47    -3.65166    -2.97313     0.83617
    23  N   5.0   -0.22    3.05    1.93    -2.12431     6.24479    -0.04703
    24  H   1.0    0.11    0.99    1.43    -2.35801     6.63333     1.82526
    25  H   1.0    0.10    0.99    1.43    -2.15300     7.95007    -0.94273
    26  H   1.0    0.12    1.02    1.43    -0.32095     5.59096    -0.22450

  Z AO/shell   Hii/eV     exponent
  1     Wed Apr 25 08:07:45 CEST 2018   EN: 2.200 GM2: 0.406  GM3: 0.0800  RAES: 1.40
     1s    -10.707211    1.230000
  7     Wed Apr 25 08:07:45 CEST 2018   EN: 3.040 GM2: 0.461  GM3:-0.0640  RAES: 1.90
     2s    -16.686243    2.339881
     2p    -12.523956    2.014332
  8     Wed Apr 25 08:07:45 CEST 2018   EN: 3.440 GM2: 0.452  GM3:-0.0517  RAES: 1.80
     2s    -20.229985    2.439742
     2p    -15.503117    2.137023
 16     Tue Apr 24 11:44:34 CEST 2018   EN: 2.580 GM2: 0.340  GM3:-0.0502  RAES: 3.10
     3s    -20.029654    1.981333
     3p    -11.377694    2.025643
     3d     -0.420282    1.702555
 no old-style atom pair restraining (fixing) potential

molecular fragmentation (1/2 indicates fragments):
11111112222222222222222222
# atoms in fragment 1/2:     7    19
 fragment masses (1/2) :       98.07      107.11
CMA distance (Bohr)    :   7.521
constraining FC (au)   :  0.0500
           ------------------------------------------------- 
          |        Self-Consistent Charge Iterations        |
           ------------------------------------------------- 

 Ncao       : 65
 Nao        : 64
 Nshell     : 38
 Nel        : 80
 T(el)      :   300.0
 intcut     :    25.0
 scfconv/Eh :  0.100E-05
   qconv/e  :  0.100E-03
 intneglect :  0.100E-07
 broydamp   :      0.250
 iter      E             dE          RMSdq      gap      omega  full diag
   1    -50.5121657 -0.505122E+02  0.711E+00   10.30       0.0  T
   2    -50.5726812 -0.605155E-01  0.515E+00    9.25       1.0  T
   3    -50.6148256 -0.421445E-01  0.149E+00    5.20       1.0  T
   4    -50.6216648 -0.683914E-02  0.624E-01    5.47       1.0  T
   5    -50.6222423 -0.577574E-03  0.391E-01    5.33       1.0  T
   6    -50.6230249 -0.782562E-03  0.169E-01    5.49       1.0  T
   7    -50.6232162 -0.191244E-03  0.599E-02    5.54       1.0  T
   8    -50.6232340 -0.178248E-04  0.375E-02    5.53       1.0  T
   9    -50.6232427 -0.876951E-05  0.145E-02    5.55       1.3  T
  10    -50.6232442 -0.143910E-05  0.277E-03    5.55       7.1  T
  11    -50.6232442 -0.293833E-07  0.136E-03    5.55      14.4  T
  12    -50.6232442 -0.745454E-08  0.554E-04    5.55      35.4  T
  13    -50.6232442 -0.124101E-08  0.170E-04    5.55     115.7  T
speedup  1.02
cpu  time for SCC    0.02 s
wall time for SCC    0.02 s

   *** convergence criteria satisfied after 13 iterations ***

          eigenvalues
 #    :          28         29         30         31         32         33         34         35
 occ. :        2.000      2.000      2.000      2.000      2.000      2.000      2.000      2.000
 eps  :       -13.255    -12.957    -12.709    -12.577    -12.057    -11.901    -11.603    -11.526
 #    :          36         37         38         39         40         41         42         43
 occ. :        2.000      2.000      2.000      2.000      2.000      0.000      0.000      0.000
 eps  :       -11.116    -10.989    -10.777     -9.073     -8.582     -3.028     -1.814     -0.670
 #    :          44         45         46         47         48         49         50         51
 occ. :        0.000      0.000      0.000      0.000      0.000      0.000      0.000      0.000
 eps  :        -0.263      0.249      1.445      2.512      3.449      3.760      5.036      5.187


   #   Z            q   n(s)   n(p)   n(d)      C6AA      α(0)
   1  16 S      1.710  1.572  1.775  0.943    88.540    15.837
   2   8 O     -0.717  1.767  4.950  0.000    29.186     7.243
   3   8 O     -0.702  1.776  4.926  0.000    28.760     7.190
   4   8 O     -0.602  1.722  4.880  0.000    25.206     6.778
   5   8 O     -0.534  1.719  4.814  0.000    23.625     6.562
   6   1 H      0.379  0.621  0.000  0.000     0.518     1.126
   7   1 H      0.414  0.586  0.000  0.000     0.452     1.052
   8   8 O     -0.892  1.812  5.080  0.000    34.406     7.868
   9   1 H      0.184  0.816  0.000  0.000     1.203     1.723
  10   8 O     -0.843  1.843  5.000  0.000    32.913     7.692
  11   1 H      0.234  0.766  0.000  0.000     0.958     1.538
  12   8 O     -0.668  1.751  4.917  0.000    26.873     6.997
  13   1 H      0.297  0.703  0.000  0.000     0.729     1.341
  14   1 H      0.312  0.688  0.000  0.000     0.685     1.299
  15   8 O     -0.484  1.668  4.816  0.000    22.489     6.405
  16   1 H      0.403  0.597  0.000  0.000     0.473     1.076
  17   1 H      0.372  0.628  0.000  0.000     0.539     1.153
  18   1 H      0.392  0.608  0.000  0.000     0.497     1.106
  19   8 O     -0.472  1.665  4.807  0.000    22.236     6.369
  20   1 H      0.391  0.609  0.000  0.000     0.497     1.105
  21   1 H      0.377  0.623  0.000  0.000     0.529     1.143
  22   1 H      0.408  0.592  0.000  0.000     0.463     1.065
  23   7 N     -0.457  1.385  4.072  0.000    32.034     8.406
  24   1 H      0.149  0.851  0.000  0.000     1.408     1.859
  25   1 H      0.144  0.856  0.000  0.000     1.444     1.882
  26   1 H      0.203  0.797  0.000  0.000     1.090     1.636

 Mol. C6AA /au·bohr⁶  :       5540.897056
 Mol. C8AA /au·bohr⁸  :     119650.619219
 Mol. α(0) /au        :        107.449410

 
 Wiberg/Mayer (AO) data. WBOs > 0.1 written file <wbo>
 largest (>0.05) Wiberg bond orders for each atom
           total WBO             WBO to atom ...
     1  S   4.818    O    3 1.362    O    2 1.336    O    4 1.058    O    5 1.023
     2  O   1.704    S    1 1.336    O    3 0.136    O    4 0.092    O    5 0.072
     3  O   1.716    S    1 1.362    O    2 0.136    O    4 0.094    O    5 0.075
     4  O   2.003    S    1 1.058    H    7 0.664    O    3 0.094    O    2 0.092
     5  O   2.060    S    1 1.023    H    6 0.832    O    3 0.075    O    2 0.072
     6  H   0.856    O    5 0.832
     7  H   0.828    O    4 0.664    O   10 0.140
     8  O   1.470    H    9 0.941    H   22 0.202    H   16 0.195    O   19 0.060    O   15 0.059
     9  H   0.966    O    8 0.941
    10  O   1.664    H   11 0.938    H   20 0.154    H   18 0.144    H    7 0.140    H   14 0.086    O   19 0.052    O   15 0.050
    11  H   0.945    O   10 0.938
    12  O   1.808    H   13 0.880    H   14 0.808
    13  H   0.912    O   12 0.880
    14  H   0.903    O   12 0.808    O   10 0.086
    15  O   2.258    H   17 0.766    H   18 0.691    H   16 0.636    O    8 0.059    O   10 0.050
    16  H   0.838    O   15 0.636    O    8 0.195
    17  H   0.861    O   15 0.766    N   23 0.085
    18  H   0.847    O   15 0.691    O   10 0.144
    19  O   2.265    H   21 0.805    H   20 0.685    H   22 0.625    O    8 0.060    O   10 0.052
    20  H   0.847    O   19 0.685    O   10 0.154
    21  H   0.858    O   19 0.805
    22  H   0.833    O   19 0.625    O    8 0.202
    23  N   3.015    H   24 0.974    H   25 0.974    H   26 0.922    H   17 0.085
    24  H   0.978    N   23 0.974
    25  H   0.979    N   23 0.974
    26  H   0.959    N   23 0.922
 MOs/occ written to file <molden.input>
 
molecular dipole:
                 x           y           z       tot (Debye)
 q only:        1.233      -0.615      -1.225
   full:        1.969      -0.682      -1.133       6.029
molecular quadrupole (traceless):
                xx          xy          yy          xz          yz          zz
 q only:        0.497     -17.044       7.633      -0.174       3.030      -8.129
  q+dip:        3.457     -20.363       7.807      -4.196       5.713     -11.265
   full:        3.608     -20.996       7.235      -4.247       5.492     -10.843

SCC energy    :     -50.6232442
rep           :       0.2892608
ES            :       0.2971401
AES           :      -0.0598089
AXC           :      -0.0057336
disp          :      -0.0174861
XB            :       0.0000000
fix           :       0.0000000
total E       :     -50.3337527
atomizationE  :       4.8640568     3052.24
(atE without considering molecular charge,
 total energy contains solvation terms)
H-L gap (eV)  :          5.5538
           ------------------------------------------------- 
          |                 ===============                 |
          |                   A N C O P T                   |
          |                 ===============                 |
          |          Approximate Normal Coordinate          |
          |           Rational Function Optimizer           |
           ------------------------------------------------- 
dumping coords to <xtbopt.coord> and <xtbopt.log>
 optlevel               2
 Maxcycle             520
 Maxmicro              25
 Econv         1.000000000000000E-007
 Gconv         2.000000000000000E-004
 Maxdispl       1.00000000000000     
 Hlow          5.000000000000000E-003
 S6             20.0000000000000     
 Nvar               72

generating ANC from model Hessian ...
 Shifting diagonal of input Hessian by   6.084613304851339E-003
 Lowest  eigenvalues of input Hessian
    0.005000    0.006028   -0.000000   -0.000000   -0.000000   -0.000000
    0.000000    0.000000    0.006148    0.006520    0.007178    0.007822
    0.008355    0.009265    0.010379    0.010537    0.011388    0.011815
 Highest eigenvalues
    1.579889    1.601220    1.606312    3.212266    3.412043    3.464815
 
cpu  time for ANC gen    0.02 s
wall time for ANC gen    0.02 s
................................................................................
.............................. CYCLE    1 ......................................
................................................................................
   1    -50.6232442 -0.506232E+02  0.729E-05    5.55       0.0  T
   2    -50.6232442 -0.163070E-10  0.547E-05    5.55     358.6  T
   3    -50.6232442 -0.109779E-10  0.306E-05    5.55     640.2  T
speedup  0.97
cpu  time for SCC    0.00 s
wall time for SCC    0.00 s
speedup  0.96
cpu  time for grad    0.01 s
wall time for grad    0.01 s
 E :    -50.33375264  G :  0.263485    pred/act E change:  0.000D+00  0.383D-07
Maxdispl :   0.1161   ||displ|| :   0.2797   Lambda : -0.435D-01
Largest |displ|/coords:  0.1161 (  54)  0.1086 (  30)  0.0767 (  23)
................................................................................
.............................. CYCLE    2 ......................................
................................................................................
   1    -50.6397188 -0.506397E+02  0.296E-01    5.82       0.0  T
   2    -50.6400873 -0.368528E-03  0.228E-01    5.98       1.0  T
   3    -50.6402501 -0.162770E-03  0.116E-01    6.22       1.0  T
   4    -50.6402598 -0.970679E-05  0.299E-02    6.29       1.0  T
   5    -50.6402611 -0.131195E-05  0.599E-03    6.27       3.3  T
   6    -50.6402611 -0.679000E-07  0.330E-03    6.28       5.9  T
speedup  1.03
cpu  time for SCC    0.01 s
wall time for SCC    0.01 s
speedup  1.03
cpu  time for grad    0.01 s
wall time for grad    0.01 s
 E :    -50.36804365  G :  0.167114    pred/act E change:  0.000D+00 -0.343D-01
Maxdispl :   0.0968   ||displ|| :   0.2983   Lambda : -0.219D-01
Largest |displ|/coords:  0.0968 (  12)  0.0934 (  23)  0.0867 (   1)
................................................................................
.............................. CYCLE    3 ......................................
................................................................................
   1    -50.6507184 -0.506507E+02  0.312E-01    6.48       0.0  T
   2    -50.6511573 -0.438874E-03  0.233E-01    6.67       1.0  T
   3    -50.6513365 -0.179291E-03  0.119E-01    6.94       1.0  T
   4    -50.6513449 -0.831949E-05  0.303E-02    7.02       1.0  T
   5    -50.6513469 -0.201716E-05  0.597E-03    7.00       3.3  T
   6    -50.6513469 -0.621778E-07  0.333E-03    7.00       5.9  T
speedup  0.88
cpu  time for SCC    0.00 s
wall time for SCC    0.01 s
speedup  0.96
cpu  time for grad    0.01 s
wall time for grad    0.01 s
 E :    -50.38636379  G :  0.105856    pred/act E change: -0.234D-01 -0.183D-01
Maxdispl :   0.1969   ||displ|| :   0.4129   Lambda : -0.144D-01
Largest |displ|/coords:  0.1969 (  12)  0.1395 (   8)  0.1150 (   9)
................................................................................
.............................. CYCLE    4 ......................................
................................................................................
   1    -50.6538375 -0.506538E+02  0.521E-01    7.10       0.0  T
   2    -50.6545419 -0.704362E-03  0.377E-01    7.35       1.0  T
   3    -50.6548258 -0.283932E-03  0.138E-01    7.77       1.0  T
   4    -50.6548581 -0.322697E-04  0.385E-02    7.78       1.0  T
   5    -50.6548630 -0.494756E-05  0.831E-03    7.74       2.4  T
   6    -50.6548632 -0.196105E-06  0.502E-03    7.75       3.9  T
   7    -50.6548633 -0.442249E-07  0.149E-03    7.74      13.2  T
speedup  0.90
cpu  time for SCC    0.01 s
wall time for SCC    0.01 s
speedup  0.97
cpu  time for grad    0.01 s
wall time for grad    0.01 s
 E :    -50.39844676  G :  0.075887    pred/act E change: -0.119D-01 -0.121D-01
Maxdispl :   0.1348   ||displ|| :   0.3663   Lambda : -0.106D-01
Largest |displ|/coords:  0.1348 (   3)  0.1312 (   1)  0.1256 (  17)
................................................................................
.............................. CYCLE    5 ......................................
................................................................................
   1    -50.6650775 -0.506651E+02  0.255E-01    7.83       0.0  T
   2    -50.6653827 -0.305161E-03  0.191E-01    7.95       1.0  T
   3    -50.6655104 -0.127664E-03  0.872E-02    8.05       1.0  T
   4    -50.6655189 -0.856086E-05  0.235E-02    8.07       1.0  T
   5    -50.6655201 -0.118700E-05  0.562E-03    8.07       3.5  T
   6    -50.6655202 -0.511948E-07  0.291E-03    8.07       6.7  T
speedup  1.02
cpu  time for SCC    0.01 s
wall time for SCC    0.01 s
speedup  1.03
cpu  time for grad    0.01 s
wall time for grad    0.01 s
 E :    -50.40572669  G :  0.048311    pred/act E change: -0.841D-02 -0.728D-02
Maxdispl :   0.3292   ||displ|| :   0.7230   Lambda : -0.181D-01
Largest |displ|/coords:  0.3292 (  12)  0.2534 (   8)  0.1937 (   9)
................................................................................
.............................. CYCLE    6 ......................................
................................................................................
   1    -50.6491795 -0.506492E+02  0.958E-01    7.75       0.0  T
   2    -50.6540407 -0.486121E-02  0.633E-01    7.83       1.0  T
   3    -50.6556240 -0.158332E-02  0.283E-01    7.97       1.0  T
   4    -50.6557143 -0.902947E-04  0.751E-02    8.03       1.0  T
   5    -50.6557259 -0.116121E-04  0.325E-02    8.03       1.0  T
   6    -50.6557340 -0.803020E-05  0.123E-02    8.03       1.6  T
   7    -50.6557342 -0.236636E-06  0.331E-03    8.03       5.9  T
   8    -50.6557342 -0.258784E-07  0.104E-03    8.03      18.9  T
speedup  1.04
cpu  time for SCC    0.01 s
wall time for SCC    0.01 s
speedup  1.02
cpu  time for grad    0.02 s
wall time for grad    0.02 s
 E :    -50.40980506  G :  0.102365    pred/act E change: -0.598D-02 -0.408D-02
Maxdispl :   0.1880   ||displ|| :   0.4805   Lambda : -0.242D-01
Largest |displ|/coords:  0.1880 (  10)  0.1859 (   9)  0.1765 (   8)
................................................................................
.............................. CYCLE    7 ......................................
................................................................................
   1    -50.6766138 -0.506766E+02  0.720E-01    8.11       0.0  T
   2    -50.6775508 -0.936974E-03  0.521E-01    8.09       1.0  T
   3    -50.6780435 -0.492664E-03  0.158E-01    8.05       1.0  T
   4    -50.6781086 -0.651030E-04  0.514E-02    8.05       1.0  T
   5    -50.6781144 -0.578939E-05  0.152E-02    8.05       1.3  T
   6    -50.6781146 -0.232708E-06  0.732E-03    8.05       2.7  T
   7    -50.6781148 -0.229300E-06  0.179E-03    8.05      11.0  T
   8    -50.6781148 -0.111042E-07  0.431E-04    8.05      45.5  T
speedup  1.03
cpu  time for SCC    0.01 s
wall time for SCC    0.01 s
speedup  1.03
cpu  time for grad    0.02 s
wall time for grad    0.02 s
 E :    -50.41125490  G :  0.079844    pred/act E change: -0.138D-01 -0.145D-02
Maxdispl :   0.1565   ||displ|| :   0.3608   Lambda : -0.110D-01
Largest |displ|/coords:  0.1565 (   7)  0.1243 (   8)  0.1221 (  13)
................................................................................
.............................. CYCLE    8 ......................................
................................................................................
   1    -50.6689621 -0.506690E+02  0.495E-01    7.99       0.0  T
   2    -50.6696628 -0.700748E-03  0.345E-01    8.03       1.0  T
   3    -50.6699513 -0.288488E-03  0.122E-01    8.10       1.0  T
   4    -50.6699829 -0.315606E-04  0.353E-02    8.12       1.0  T
   5    -50.6699862 -0.333504E-05  0.976E-03    8.11       2.0  T
   6    -50.6699867 -0.475360E-06  0.592E-03    8.11       3.3  T
   7    -50.6699867 -0.339948E-07  0.131E-03    8.11      15.0  T
speedup  0.90
cpu  time for SCC    0.01 s
wall time for SCC    0.01 s
speedup  0.97
cpu  time for grad    0.01 s
wall time for grad    0.01 s
 E :    -50.41732410  G :  0.049228    pred/act E change: -0.149D-01 -0.607D-02
Maxdispl :   0.1757   ||displ|| :   0.2663   Lambda : -0.207D-02
Largest |displ|/coords:  0.1757 (   3)  0.0915 (   1)  0.0759 (   2)
................................................................................
.............................. CYCLE    9 ......................................
................................................................................
   1    -50.6734044 -0.506734E+02  0.130E-01    8.11       0.0  T
   2    -50.6734450 -0.406198E-04  0.951E-02    8.14       1.0  T
   3    -50.6734636 -0.185769E-04  0.320E-02    8.18       1.0  T
   4    -50.6734665 -0.294539E-05  0.121E-02    8.19       1.6  T
   5    -50.6734668 -0.268864E-06  0.309E-03    8.19       6.4  T
   6    -50.6734668 -0.176719E-07  0.163E-03    8.19      12.1  T
speedup  1.02
cpu  time for SCC    0.01 s
wall time for SCC    0.01 s
speedup  0.95
cpu  time for grad    0.01 s
wall time for grad    0.01 s
 E :    -50.41883729  G :  0.041385    pred/act E change: -0.621D-02 -0.151D-02
Maxdispl :   0.1840   ||displ|| :   0.4781   Lambda : -0.501D-02
Largest |displ|/coords:  0.1840 (   6)  0.1681 (  21)  0.1348 (  19)
................................................................................
.............................. CYCLE   10 ......................................
................................................................................
   1    -50.6832270 -0.506832E+02  0.285E-01    8.28       0.0  T
   2    -50.6835177 -0.290765E-03  0.208E-01    8.34       1.0  T
   3    -50.6836682 -0.150482E-03  0.814E-02    8.44       1.0  T
   4    -50.6836869 -0.186597E-04  0.263E-02    8.46       1.0  T
   5    -50.6836881 -0.121304E-05  0.821E-03    8.46       2.4  T
   6    -50.6836882 -0.867778E-07  0.443E-03    8.46       4.4  T
   7    -50.6836882 -0.216816E-07  0.122E-03    8.46      16.1  T
speedup  0.90
cpu  time for SCC    0.01 s
wall time for SCC    0.01 s
speedup  0.97
cpu  time for grad    0.01 s
wall time for grad    0.01 s
 E :    -50.42202653  G :  0.039157    pred/act E change: -0.111D-02 -0.319D-02
Maxdispl :   0.1481   ||displ|| :   0.3962   Lambda : -0.462D-02
Largest |displ|/coords:  0.1481 (  21)  0.1331 (  29)  0.1172 (   4)
................................................................................
.............................. CYCLE   11 ......................................
................................................................................
   1    -50.6935334 -0.506935E+02  0.288E-01    8.71       0.0  T
   2    -50.6937076 -0.174187E-03  0.211E-01    8.76       1.0  T
   3    -50.6938139 -0.106345E-03  0.697E-02    8.85       1.0  T
   4    -50.6938274 -0.134601E-04  0.260E-02    8.86       1.0  T
   5    -50.6938285 -0.111232E-05  0.753E-03    8.86       2.6  T
   6    -50.6938286 -0.842265E-07  0.425E-03    8.86       4.6  T
   7    -50.6938286 -0.196130E-07  0.113E-03    8.86      17.3  T
speedup  1.04
cpu  time for SCC    0.01 s
wall time for SCC    0.01 s
speedup  1.03
cpu  time for grad    0.01 s
wall time for grad    0.01 s
 E :    -50.42542081  G :  0.037038    pred/act E change: -0.307D-02 -0.339D-02
Maxdispl :   0.1580   ||displ|| :   0.3967   Lambda : -0.480D-02
Largest |displ|/coords:  0.1580 (  29)  0.1243 (   6)  0.1071 (  30)
................................................................................
.............................. CYCLE   12 ......................................
................................................................................
   1    -50.7001272 -0.507001E+02  0.309E-01    9.16       0.0  T
   2    -50.7002795 -0.152378E-03  0.228E-01    9.20       1.0  T
   3    -50.7003747 -0.952017E-04  0.682E-02    9.23       1.0  T
   4    -50.7003881 -0.133631E-04  0.242E-02    9.24       1.0  T
   5    -50.7003891 -0.954621E-06  0.691E-03    9.24       2.8  T
   6    -50.7003891 -0.739233E-07  0.411E-03    9.24       4.8  T
   7    -50.7003892 -0.231143E-07  0.117E-03    9.24      16.7  T
speedup  1.03
cpu  time for SCC    0.01 s
wall time for SCC    0.01 s
speedup  1.03
cpu  time for grad    0.01 s
wall time for grad    0.01 s
 E :    -50.42861554  G :  0.045801    pred/act E change: -0.268D-02 -0.319D-02
Maxdispl :   0.1364   ||displ|| :   0.3536   Lambda : -0.375D-02
Largest |displ|/coords:  0.1364 (  29)  0.1200 (   3)  0.1199 (  18)
................................................................................
.............................. CYCLE   13 ......................................
................................................................................
   1    -50.6984779 -0.506985E+02  0.231E-01    9.28       0.0  T
   2    -50.6985640 -0.861059E-04  0.169E-01    9.27       1.0  T
   3    -50.6985988 -0.347975E-04  0.469E-02    9.25       1.0  T
   4    -50.6986078 -0.895185E-05  0.106E-02    9.25       1.8  T
   5    -50.6986080 -0.162301E-06  0.420E-03    9.25       4.7  T
   6    -50.6986080 -0.200309E-07  0.221E-03    9.25       8.9  T
speedup  1.02
cpu  time for SCC    0.01 s
wall time for SCC    0.01 s
speedup  1.03
cpu  time for grad    0.01 s
wall time for grad    0.01 s
 E :    -50.43099054  G :  0.042935    pred/act E change: -0.278D-02 -0.237D-02
Maxdispl :   0.1622   ||displ|| :   0.3749   Lambda : -0.409D-02
Largest |displ|/coords:  0.1622 (  29)  0.1073 (   5)  0.0995 (  30)
................................................................................
.............................. CYCLE   14 ......................................
................................................................................
   1    -50.7023969 -0.507024E+02  0.273E-01    9.30       0.0  T
   2    -50.7025508 -0.153895E-03  0.210E-01    9.30       1.0  T
   3    -50.7026253 -0.745374E-04  0.826E-02    9.30       1.0  T
   4    -50.7026389 -0.135810E-04  0.281E-02    9.29       1.0  T
   5    -50.7026403 -0.139996E-05  0.698E-03    9.29       2.8  T
   6    -50.7026403 -0.609479E-07  0.357E-03    9.29       5.5  T
   7    -50.7026404 -0.198270E-07  0.100E-03    9.29      19.6  T
speedup  1.04
cpu  time for SCC    0.01 s
wall time for SCC    0.01 s
speedup  1.03
cpu  time for grad    0.01 s
wall time for grad    0.01 s
 E :    -50.43240477  G :  0.040522    pred/act E change: -0.211D-02 -0.141D-02
Maxdispl :   0.1303   ||displ|| :   0.2864   Lambda : -0.429D-02
Largest |displ|/coords:  0.1303 (  21)  0.1006 (   4)  0.0679 (   7)
................................................................................
.............................. CYCLE   15 ......................................
................................................................................
   1    -50.7019323 -0.507019E+02  0.209E-01    9.20       0.0  T
   2    -50.7020904 -0.158092E-03  0.150E-01    9.21       1.0  T
   3    -50.7021686 -0.781881E-04  0.610E-02    9.22       1.0  T
   4    -50.7021775 -0.884230E-05  0.165E-02    9.22       1.2  T
   5    -50.7021780 -0.521343E-06  0.573E-03    9.22       3.4  T
   6    -50.7021780 -0.359403E-07  0.261E-03    9.22       7.5  T
speedup  0.86
cpu  time for SCC    0.01 s
wall time for SCC    0.01 s
speedup  0.95
cpu  time for grad    0.01 s
wall time for grad    0.01 s
 E :    -50.43407912  G :  0.032187    pred/act E change: -0.233D-02 -0.167D-02
Maxdispl :   0.1293   ||displ|| :   0.3101   Lambda : -0.266D-02
Largest |displ|/coords:  0.1293 (   4)  0.1061 (   6)  0.1017 (  15)
................................................................................
.............................. CYCLE   16 ......................................
................................................................................
   1    -50.7043776 -0.507044E+02  0.235E-01    9.17       0.0  T
   2    -50.7044184 -0.407384E-04  0.177E-01    9.17       1.0  T
   3    -50.7044513 -0.329604E-04  0.342E-02    9.17       1.0  T
   4    -50.7044563 -0.495826E-05  0.143E-02    9.16       1.4  T
   5    -50.7044566 -0.254837E-06  0.411E-03    9.16       4.8  T
   6    -50.7044566 -0.203891E-07  0.218E-03    9.16       9.0  T
speedup  1.03
cpu  time for SCC    0.01 s
wall time for SCC    0.01 s
speedup  1.03
cpu  time for grad    0.01 s
wall time for grad    0.01 s
 E :    -50.43481043  G :  0.030555    pred/act E change: -0.232D-02 -0.731D-03
Maxdispl :   0.1156   ||displ|| :   0.2272   Lambda : -0.188D-02
Largest |displ|/coords:  0.1156 (   4)  0.0782 (   5)  0.0739 (  11)
................................................................................
.............................. CYCLE   17 ......................................
................................................................................
   1    -50.7071008 -0.507071E+02  0.157E-01    9.15       0.0  T
   2    -50.7071313 -0.304847E-04  0.115E-01    9.14       1.0  T
   3    -50.7071493 -0.180840E-04  0.326E-02    9.13       1.0  T
   4    -50.7071525 -0.314616E-05  0.842E-03    9.14       2.3  T
   5    -50.7071526 -0.155533E-06  0.348E-03    9.14       5.6  T
   6    -50.7071526 -0.124091E-07  0.150E-03    9.14      13.0  T
speedup  1.02
cpu  time for SCC    0.01 s
wall time for SCC    0.01 s
speedup  1.01
cpu  time for grad    0.01 s
wall time for grad    0.01 s
 E :    -50.43609024  G :  0.021251    pred/act E change: -0.146D-02 -0.128D-02
Maxdispl :   0.1852   ||displ|| :   0.3851   Lambda : -0.170D-02
Largest |displ|/coords:  0.1852 (   4)  0.1304 (   6)  0.1178 (  19)
................................................................................
.............................. CYCLE   18 ......................................
................................................................................
   1    -50.7076455 -0.507076E+02  0.230E-01    9.07       0.0  T
   2    -50.7077364 -0.909289E-04  0.169E-01    9.07       1.0  T
   3    -50.7077833 -0.469298E-04  0.533E-02    9.07       1.0  T
   4    -50.7077925 -0.912952E-05  0.120E-02    9.07       1.6  T
   5    -50.7077928 -0.336615E-06  0.483E-03    9.07       4.1  T
   6    -50.7077928 -0.146222E-07  0.207E-03    9.07       9.5  T
speedup  1.03
cpu  time for SCC    0.01 s
wall time for SCC    0.01 s
speedup  1.02
cpu  time for grad    0.01 s
wall time for grad    0.01 s
 E :    -50.43712252  G :  0.027901    pred/act E change: -0.987D-03 -0.103D-02
Maxdispl :   0.2112   ||displ|| :   0.4084   Lambda : -0.173D-02
Largest |displ|/coords:  0.2112 (   4)  0.1833 (   1)  0.1328 (   2)
................................................................................
.............................. CYCLE   19 ......................................
................................................................................
   1    -50.7107698 -0.507108E+02  0.209E-01    8.98       0.0  T
   2    -50.7108641 -0.943312E-04  0.152E-01    8.99       1.0  T
   3    -50.7109089 -0.448076E-04  0.516E-02    9.00       1.0  T
   4    -50.7109170 -0.811348E-05  0.131E-02    9.00       1.5  T
   5    -50.7109174 -0.352862E-06  0.435E-03    9.00       4.5  T
   6    -50.7109174 -0.225635E-07  0.210E-03    9.00       9.3  T
speedup  1.02
cpu  time for SCC    0.01 s
wall time for SCC    0.01 s
speedup  1.01
cpu  time for grad    0.01 s
wall time for grad    0.01 s
 E :    -50.43851230  G :  0.032752    pred/act E change: -0.976D-03 -0.139D-02
Maxdispl :   0.2471   ||displ|| :   0.5657   Lambda : -0.359D-02
Largest |displ|/coords:  0.2471 (   1)  0.2408 (   4)  0.2211 (  19)
................................................................................
.............................. CYCLE   20 ......................................
................................................................................
   1    -50.7130282 -0.507130E+02  0.337E-01    8.89       0.0  T
   2    -50.7134093 -0.381066E-03  0.240E-01    8.90       1.0  T
   3    -50.7135580 -0.148722E-03  0.920E-02    8.91       1.0  T
   4    -50.7135797 -0.216769E-04  0.220E-02    8.91       1.0  T
   5    -50.7135805 -0.837370E-06  0.714E-03    8.91       2.7  T
   6    -50.7135806 -0.983620E-07  0.323E-03    8.91       6.1  T
   7    -50.7135806 -0.189359E-07  0.109E-03    8.91      18.0  T
speedup  1.01
cpu  time for SCC    0.01 s
wall time for SCC    0.01 s
speedup  1.01
cpu  time for grad    0.01 s
wall time for grad    0.01 s
 E :    -50.44121171  G :  0.034738    pred/act E change: -0.101D-02 -0.270D-02
Maxdispl :   0.2157   ||displ|| :   0.5216   Lambda : -0.505D-02
Largest |displ|/coords:  0.2157 (   1)  0.1869 (  19)  0.1486 (   2)
................................................................................
.............................. CYCLE   21 ......................................
................................................................................
   1    -50.7245136 -0.507245E+02  0.373E-01    9.02       0.0  T
   2    -50.7248531 -0.339456E-03  0.266E-01    9.03       1.0  T
   3    -50.7250009 -0.147767E-03  0.876E-02    9.03       1.0  T
   4    -50.7250204 -0.194886E-04  0.208E-02    9.03       1.0  T
   5    -50.7250214 -0.106989E-05  0.682E-03    9.03       2.9  T
   6    -50.7250215 -0.921382E-07  0.330E-03    9.03       5.9  T
   7    -50.7250215 -0.214519E-07  0.109E-03    9.03      18.1  T
speedup  1.03
cpu  time for SCC    0.01 s
wall time for SCC    0.01 s
speedup  1.01
cpu  time for grad    0.01 s
wall time for grad    0.01 s
 E :    -50.44314717  G :  0.039702    pred/act E change: -0.237D-02 -0.194D-02
Maxdispl :   0.1804   ||displ|| :   0.3453   Lambda : -0.370D-02
Largest |displ|/coords:  0.1804 (   1)  0.1351 (   6)  0.1243 (   5)
................................................................................
.............................. CYCLE   22 ......................................
................................................................................
   1    -50.7260614 -0.507261E+02  0.211E-01    9.13       0.0  T
   2    -50.7261293 -0.678627E-04  0.156E-01    9.13       1.0  T
   3    -50.7261554 -0.261142E-04  0.445E-02    9.12       1.0  T
   4    -50.7261641 -0.869503E-05  0.107E-02    9.13       1.8  T
   5    -50.7261643 -0.203493E-06  0.324E-03    9.13       6.1  T
   6    -50.7261643 -0.112487E-07  0.176E-03    9.13      11.2  T
speedup  1.00
cpu  time for SCC    0.01 s
wall time for SCC    0.01 s
speedup  1.01
cpu  time for grad    0.01 s
wall time for grad    0.01 s
 E :    -50.44504874  G :  0.033084    pred/act E change: -0.321D-02 -0.190D-02
Maxdispl :   0.1519   ||displ|| :   0.3460   Lambda : -0.336D-02
Largest |displ|/coords:  0.1519 (   5)  0.1236 (  29)  0.1235 (  11)
................................................................................
.............................. CYCLE   23 ......................................
................................................................................
   1    -50.7289779 -0.507290E+02  0.257E-01    9.26       0.0  T
   2    -50.7290791 -0.101215E-03  0.185E-01    9.26       1.0  T
   3    -50.7291241 -0.450616E-04  0.552E-02    9.25       1.0  T
   4    -50.7291323 -0.813297E-05  0.136E-02    9.25       1.4  T
   5    -50.7291327 -0.421738E-06  0.500E-03    9.25       3.9  T
   6    -50.7291327 -0.244193E-07  0.245E-03    9.25       8.0  T
speedup  1.00
cpu  time for SCC    0.01 s
wall time for SCC    0.01 s
speedup  1.01
cpu  time for grad    0.01 s
wall time for grad    0.01 s
 E :    -50.44569046  G :  0.035962    pred/act E change: -0.207D-02 -0.642D-03
Maxdispl :   0.1684   ||displ|| :   0.3490   Lambda : -0.451D-02
Largest |displ|/coords:  0.1684 (  19)  0.1360 (  16)  0.0963 (   5)
................................................................................
.............................. CYCLE   24 ......................................
................................................................................
   1    -50.7221514 -0.507222E+02  0.292E-01    9.27       0.0  T
   2    -50.7223450 -0.193581E-03  0.207E-01    9.28       1.0  T
   3    -50.7224180 -0.729821E-04  0.674E-02    9.30       1.0  T
   4    -50.7224313 -0.133694E-04  0.172E-02    9.30       1.1  T
   5    -50.7224319 -0.600052E-06  0.490E-03    9.31       4.0  T
   6    -50.7224320 -0.343412E-07  0.281E-03    9.31       7.0  T
speedup  1.02
cpu  time for SCC    0.01 s
wall time for SCC    0.01 s
speedup  0.94
cpu  time for grad    0.01 s
wall time for grad    0.01 s
 E :    -50.44561557  G :  0.040964    pred/act E change: -0.188D-02  0.749D-04
Maxdispl :   0.1502   ||displ|| :   0.3440   Lambda : -0.569D-02
Largest |displ|/coords:  0.1502 (  19)  0.1362 (  14)  0.1148 (   4)
................................................................................
.............................. CYCLE   25 ......................................
................................................................................
   1    -50.7351009 -0.507351E+02  0.269E-01    9.34       0.0  T
   2    -50.7352003 -0.993617E-04  0.195E-01    9.34       1.0  T
   3    -50.7352476 -0.473194E-04  0.547E-02    9.34       1.0  T
   4    -50.7352566 -0.894573E-05  0.145E-02    9.34       1.4  T
   5    -50.7352570 -0.445046E-06  0.526E-03    9.34       3.7  T
   6    -50.7352571 -0.309415E-07  0.256E-03    9.34       7.7  T
speedup  1.03
cpu  time for SCC    0.01 s
wall time for SCC    0.01 s
speedup  0.95
cpu  time for grad    0.01 s
wall time for grad    0.01 s
 E :    -50.44700488  G :  0.038277    pred/act E change: -0.253D-02 -0.139D-02
Maxdispl :   0.1488   ||displ|| :   0.3494   Lambda : -0.297D-02
Largest |displ|/coords:  0.1488 (   1)  0.1260 (   5)  0.1248 (   6)

generating ANC from model Hessian ...
 Shifting diagonal of input Hessian by   5.002364049843221E-003
 Lowest  eigenvalues of input Hessian
    0.005000   -0.000000   -0.000000   -0.000000   -0.000000    0.000000
    0.000000    0.005158    0.005540    0.005779    0.006430    0.006722
    0.007121    0.007752    0.008317    0.008488    0.009450    0.010081
 Highest eigenvalues
    1.402923    1.403226    1.427646    2.534345    3.444460    3.591745
 
cpu  time for ANC gen    0.01 s
wall time for ANC gen    0.01 s
................................................................................
.............................. CYCLE   26 ......................................
................................................................................
   1    -50.7321155 -0.507321E+02  0.212E-01    9.17       0.0  T
   2    -50.7321585 -0.429980E-04  0.156E-01    9.17       1.0  T
   3    -50.7321829 -0.244039E-04  0.345E-02    9.19       1.0  T
   4    -50.7321876 -0.475224E-05  0.144E-02    9.18       1.4  T
   5    -50.7321879 -0.273688E-06  0.365E-03    9.18       5.4  T
   6    -50.7321879 -0.219098E-07  0.200E-03    9.18       9.8  T
   7    -50.7321879 -0.574630E-08  0.603E-04    9.18      32.5  T
   8    -50.7321879 -0.732250E-09  0.168E-04    9.18     116.8  T
speedup  1.03
cpu  time for SCC    0.01 s
wall time for SCC    0.01 s
speedup  1.04
cpu  time for grad    0.02 s
wall time for grad    0.02 s
 E :    -50.44816839  G :  0.018646    pred/act E change:  0.000D+00 -0.116D-02
Maxdispl :   0.1210   ||displ|| :   0.2787   Lambda : -0.123D-02
Largest |displ|/coords:  0.1210 (   6)  0.1165 (   3)  0.1087 (   7)
................................................................................
.............................. CYCLE   27 ......................................
................................................................................
   1    -50.7312092 -0.507312E+02  0.170E-01    9.22       0.0  T
   2    -50.7312168 -0.753396E-05  0.128E-01    9.22       1.0  T
   3    -50.7312233 -0.655077E-05  0.151E-02    9.22       1.3  T
   4    -50.7312242 -0.913284E-06  0.535E-03    9.22       3.7  T
   5    -50.7312243 -0.421465E-07  0.192E-03    9.22      10.2  T
   6    -50.7312243 -0.382381E-08  0.104E-03    9.22      18.9  T
speedup  0.86
cpu  time for SCC    0.00 s
wall time for SCC    0.01 s
speedup  0.95
cpu  time for grad    0.01 s
wall time for grad    0.01 s
 E :    -50.44896760  G :  0.009191    pred/act E change:  0.000D+00 -0.799D-03
Maxdispl :   0.2007   ||displ|| :   0.3841   Lambda : -0.112D-02
Largest |displ|/coords:  0.2007 (   5)  0.1216 (   3)  0.1199 (   9)
................................................................................
.............................. CYCLE   28 ......................................
................................................................................
   1    -50.7300495 -0.507300E+02  0.213E-01    9.27       0.0  T
   2    -50.7300561 -0.652467E-05  0.160E-01    9.27       1.0  T
   3    -50.7300615 -0.540782E-05  0.163E-02    9.27       1.2  T
   4    -50.7300622 -0.696343E-06  0.619E-03    9.26       3.2  T
   5    -50.7300622 -0.362987E-07  0.170E-03    9.27      11.5  T
   6    -50.7300622 -0.184217E-08  0.916E-04    9.27      21.4  T
speedup  1.02
cpu  time for SCC    0.01 s
wall time for SCC    0.01 s
speedup  1.01
cpu  time for grad    0.01 s
wall time for grad    0.01 s
 E :    -50.44948679  G :  0.013874    pred/act E change: -0.662D-03 -0.519D-03
Maxdispl :   0.2162   ||displ|| :   0.3870   Lambda : -0.970D-03
Largest |displ|/coords:  0.2162 (   5)  0.1703 (   8)  0.1535 (  12)
................................................................................
.............................. CYCLE   29 ......................................
................................................................................
   1    -50.7304742 -0.507305E+02  0.193E-01    9.30       0.0  T
   2    -50.7304806 -0.643744E-05  0.146E-01    9.30       1.0  T
   3    -50.7304871 -0.649495E-05  0.145E-02    9.29       1.3  T
   4    -50.7304877 -0.544950E-06  0.436E-03    9.30       4.5  T
   5    -50.7304877 -0.173633E-07  0.173E-03    9.30      11.3  T
   6    -50.7304877 -0.419127E-08  0.839E-04    9.30      23.4  T
speedup  1.02
cpu  time for SCC    0.01 s
wall time for SCC    0.01 s
speedup  1.01
cpu  time for grad    0.01 s
wall time for grad    0.01 s
 E :    -50.44998422  G :  0.014073    pred/act E change: -0.641D-03 -0.497D-03
Maxdispl :   0.1781   ||displ|| :   0.3122   Lambda : -0.698D-03
Largest |displ|/coords:  0.1781 (   5)  0.1224 (  12)  0.1083 (   6)
................................................................................
.............................. CYCLE   30 ......................................
................................................................................
   1    -50.7333818 -0.507334E+02  0.116E-01    9.29       0.0  T
   2    -50.7333852 -0.341935E-05  0.865E-02    9.29       1.0  T
   3    -50.7333877 -0.249135E-05  0.110E-02    9.29       1.8  T
   4    -50.7333881 -0.425720E-06  0.361E-03    9.29       5.4  T
   5    -50.7333881 -0.227353E-07  0.110E-03    9.29      17.9  T
   6    -50.7333881 -0.112495E-08  0.633E-04    9.29      31.0  T
speedup  1.03
cpu  time for SCC    0.01 s
wall time for SCC    0.01 s
speedup  1.01
cpu  time for grad    0.01 s
wall time for grad    0.01 s
 E :    -50.45053769  G :  0.008147    pred/act E change: -0.558D-03 -0.553D-03
Maxdispl :   0.4241   ||displ|| :   0.6184   Lambda : -0.947D-03
Largest |displ|/coords:  0.4241 (   5)  0.2433 (   6)  0.1833 (  12)
................................................................................
.............................. CYCLE   31 ......................................
................................................................................
   1    -50.7325808 -0.507326E+02  0.236E-01    9.23       0.0  T
   2    -50.7325921 -0.113272E-04  0.177E-01    9.23       1.0  T
   3    -50.7325994 -0.732563E-05  0.197E-02    9.22       1.0  T
   4    -50.7326012 -0.175160E-05  0.631E-03    9.22       3.1  T
   5    -50.7326013 -0.584750E-07  0.219E-03    9.22       9.0  T
   6    -50.7326013 -0.578513E-08  0.114E-03    9.22      17.1  T
speedup  1.03
cpu  time for SCC    0.01 s
wall time for SCC    0.01 s
speedup  1.02
cpu  time for grad    0.01 s
wall time for grad    0.01 s
 E :    -50.45121359  G :  0.012914    pred/act E change: -0.383D-03 -0.676D-03
Maxdispl :   0.3323   ||displ|| :   0.4929   Lambda : -0.736D-03
Largest |displ|/coords:  0.3323 (   5)  0.2022 (   6)  0.1648 (  12)
................................................................................
.............................. CYCLE   32 ......................................
................................................................................
   1    -50.7351493 -0.507351E+02  0.160E-01    9.19       0.0  T
   2    -50.7351548 -0.553940E-05  0.121E-01    9.19       1.0  T
   3    -50.7351586 -0.380445E-05  0.134E-02    9.19       1.5  T
   4    -50.7351595 -0.883907E-06  0.434E-03    9.19       4.5  T
   5    -50.7351595 -0.240968E-07  0.155E-03    9.19      12.7  T
   6    -50.7351595 -0.264347E-08  0.755E-04    9.19      26.0  T
speedup  1.00
cpu  time for SCC    0.01 s
wall time for SCC    0.01 s
speedup  1.00
cpu  time for grad    0.01 s
wall time for grad    0.01 s
 E :    -50.45176784  G :  0.013660    pred/act E change: -0.654D-03 -0.554D-03
Maxdispl :   0.4760   ||displ|| :   0.6278   Lambda : -0.105D-02
Largest |displ|/coords:  0.4760 (   5)  0.2073 (   6)  0.1865 (   2)
................................................................................
.............................. CYCLE   33 ......................................
................................................................................
   1    -50.7355176 -0.507355E+02  0.192E-01    9.19       0.0  T
   2    -50.7355290 -0.114279E-04  0.143E-01    9.19       1.0  T
   3    -50.7355339 -0.487943E-05  0.195E-02    9.19       1.0  T
   4    -50.7355362 -0.230404E-05  0.493E-03    9.19       4.0  T
   5    -50.7355363 -0.268596E-07  0.216E-03    9.19       9.1  T
   6    -50.7355363 -0.491491E-08  0.810E-04    9.19      24.2  T
speedup  1.03
cpu  time for SCC    0.01 s
wall time for SCC    0.01 s
speedup  0.99
cpu  time for grad    0.01 s
wall time for grad    0.01 s
 E :    -50.45263625  G :  0.015308    pred/act E change: -0.457D-03 -0.868D-03
Maxdispl :   0.3888   ||displ|| :   0.5728   Lambda : -0.136D-02
Largest |displ|/coords:  0.3888 (   5)  0.1832 (   6)  0.1317 (   3)
................................................................................
.............................. CYCLE   34 ......................................
................................................................................
   1    -50.7418553 -0.507419E+02  0.181E-01    9.28       0.0  T
   2    -50.7418670 -0.116816E-04  0.135E-01    9.29       1.0  T
   3    -50.7418739 -0.694710E-05  0.191E-02    9.29       1.0  T
   4    -50.7418759 -0.198250E-05  0.597E-03    9.29       3.3  T
   5    -50.7418759 -0.551883E-07  0.221E-03    9.29       8.9  T
   6    -50.7418759 -0.436722E-08  0.112E-03    9.29      17.5  T
speedup  0.85
cpu  time for SCC    0.00 s
wall time for SCC    0.01 s
speedup  0.94
cpu  time for grad    0.01 s
wall time for grad    0.01 s
 E :    -50.45342211  G :  0.016420    pred/act E change: -0.734D-03 -0.786D-03
Maxdispl :   0.5392   ||displ|| :   0.7246   Lambda : -0.125D-02
Largest |displ|/coords:  0.5392 (   5)  0.2956 (   6)  0.1825 (  12)
................................................................................
.............................. CYCLE   35 ......................................
................................................................................
   1    -50.7337922 -0.507338E+02  0.263E-01    9.11       0.0  T
   2    -50.7338105 -0.183665E-04  0.197E-01    9.11       1.0  T
   3    -50.7338208 -0.102709E-04  0.242E-02    9.12       1.0  T
   4    -50.7338240 -0.322281E-05  0.694E-03    9.11       2.8  T
   5    -50.7338241 -0.704421E-07  0.269E-03    9.11       7.3  T
   6    -50.7338241 -0.883701E-08  0.122E-03    9.11      16.0  T
speedup  1.03
cpu  time for SCC    0.01 s
wall time for SCC    0.01 s
speedup  1.01
cpu  time for grad    0.01 s
wall time for grad    0.01 s
 E :    -50.45412201  G :  0.023401    pred/act E change: -0.906D-03 -0.700D-03
Maxdispl :   0.1424   ||displ|| :   0.2809   Lambda : -0.106D-02
Largest |displ|/coords:  0.1424 (   5)  0.1299 (   6)  0.1109 (  12)
................................................................................
.............................. CYCLE   36 ......................................
................................................................................
   1    -50.7386625 -0.507387E+02  0.134E-01    9.01       0.0  T
   2    -50.7386686 -0.611099E-05  0.100E-01    9.02       1.0  T
   3    -50.7386733 -0.469481E-05  0.147E-02    9.02       1.3  T
   4    -50.7386740 -0.717614E-06  0.379E-03    9.02       5.2  T
   5    -50.7386740 -0.350818E-07  0.141E-03    9.02      13.9  T
speedup  1.04
cpu  time for SCC    0.00 s
wall time for SCC    0.00 s
speedup  1.01
cpu  time for grad    0.01 s
wall time for grad    0.01 s
 E :    -50.45478025  G :  0.016154    pred/act E change: -0.951D-03 -0.658D-03
Maxdispl :   0.3105   ||displ|| :   0.4804   Lambda : -0.138D-02
Largest |displ|/coords:  0.3105 (   5)  0.1952 (   6)  0.1047 (   3)
................................................................................
.............................. CYCLE   37 ......................................
................................................................................
   1    -50.7441599 -0.507442E+02  0.179E-01    9.05       0.0  T
   2    -50.7441674 -0.746189E-05  0.134E-01    9.05       1.0  T
   3    -50.7441743 -0.691541E-05  0.155E-02    9.06       1.3  T
   4    -50.7441749 -0.627837E-06  0.502E-03    9.06       3.9  T
   5    -50.7441749 -0.385346E-07  0.189E-03    9.06      10.4  T
   6    -50.7441750 -0.482251E-08  0.947E-04    9.06      20.7  T
speedup  1.03
cpu  time for SCC    0.01 s
wall time for SCC    0.01 s
speedup  1.01
cpu  time for grad    0.01 s
wall time for grad    0.01 s
 E :    -50.45562787  G :  0.017488    pred/act E change: -0.574D-03 -0.848D-03
Maxdispl :   0.2904   ||displ|| :   0.4671   Lambda : -0.124D-02
Largest |displ|/coords:  0.2904 (   5)  0.1666 (   6)  0.1259 (  10)
................................................................................
.............................. CYCLE   38 ......................................
................................................................................
   1    -50.7470160 -0.507470E+02  0.211E-01    9.14       0.0  T
   2    -50.7470309 -0.148708E-04  0.157E-01    9.15       1.0  T
   3    -50.7470403 -0.943396E-05  0.271E-02    9.15       1.0  T
   4    -50.7470424 -0.204178E-05  0.810E-03    9.15       2.4  T
   5    -50.7470425 -0.838336E-07  0.234E-03    9.15       8.4  T
   6    -50.7470425 -0.758667E-08  0.129E-03    9.15      15.2  T
speedup  1.03
cpu  time for SCC    0.01 s
wall time for SCC    0.01 s
speedup  1.00
cpu  time for grad    0.01 s
wall time for grad    0.01 s
 E :    -50.45642386  G :  0.016946    pred/act E change: -0.847D-03 -0.796D-03
Maxdispl :   0.2617   ||displ|| :   0.4884   Lambda : -0.137D-02
Largest |displ|/coords:  0.2617 (   5)  0.2275 (   6)  0.1472 (   9)
................................................................................
.............................. CYCLE   39 ......................................
................................................................................
   1    -50.7426356 -0.507426E+02  0.254E-01    9.05       0.0  T
   2    -50.7426553 -0.197505E-04  0.191E-01    9.05       1.0  T
   3    -50.7426678 -0.124952E-04  0.251E-02    9.05       1.0  T
   4    -50.7426710 -0.318916E-05  0.806E-03    9.05       2.4  T
   5    -50.7426711 -0.917328E-07  0.259E-03    9.05       7.6  T
   6    -50.7426711 -0.981927E-08  0.135E-03    9.05      14.5  T
speedup  1.02
cpu  time for SCC    0.01 s
wall time for SCC    0.01 s
speedup  0.99
cpu  time for grad    0.01 s
wall time for grad    0.01 s
 E :    -50.45728539  G :  0.019827    pred/act E change: -0.755D-03 -0.862D-03
Maxdispl :   0.1829   ||displ|| :   0.4391   Lambda : -0.168D-02
Largest |displ|/coords:  0.1829 (   2)  0.1608 (   3)  0.1557 (  13)
................................................................................
.............................. CYCLE   40 ......................................
................................................................................
   1    -50.7471261 -0.507471E+02  0.248E-01    9.17       0.0  T
   2    -50.7471430 -0.169664E-04  0.184E-01    9.18       1.0  T
   3    -50.7471573 -0.143076E-04  0.292E-02    9.20       1.0  T
   4    -50.7471588 -0.149869E-05  0.827E-03    9.20       2.4  T
   5    -50.7471589 -0.110221E-06  0.253E-03    9.20       7.7  T
   6    -50.7471589 -0.764975E-08  0.146E-03    9.20      13.4  T
speedup  1.05
cpu  time for SCC    0.01 s
wall time for SCC    0.01 s
speedup  1.01
cpu  time for grad    0.01 s
wall time for grad    0.01 s
 E :    -50.45754674  G :  0.021807    pred/act E change: -0.848D-03 -0.261D-03
Maxdispl :   0.3166   ||displ|| :   0.5165   Lambda : -0.229D-02
Largest |displ|/coords:  0.3166 (   5)  0.1611 (   6)  0.1566 (  10)
................................................................................
.............................. CYCLE   41 ......................................
................................................................................
   1    -50.7411907 -0.507412E+02  0.272E-01    8.93       0.0  T
   2    -50.7412147 -0.239841E-04  0.205E-01    8.93       1.0  T
   3    -50.7412306 -0.158577E-04  0.288E-02    8.92       1.0  T
   4    -50.7412340 -0.345798E-05  0.110E-02    8.92       1.8  T
   5    -50.7412342 -0.165622E-06  0.295E-03    8.92       6.7  T
   6    -50.7412342 -0.138851E-07  0.168E-03    8.92      11.6  T
speedup  1.05
cpu  time for SCC    0.01 s
wall time for SCC    0.01 s
speedup  1.01
cpu  time for grad    0.01 s
wall time for grad    0.01 s
 E :    -50.45876257  G :  0.022358    pred/act E change: -0.999D-03 -0.122D-02
Maxdispl :   0.1598   ||displ|| :   0.3445   Lambda : -0.145D-02
Largest |displ|/coords:  0.1598 (   5)  0.1176 (   1)  0.1080 (   8)
................................................................................
.............................. CYCLE   42 ......................................
................................................................................
   1    -50.7478428 -0.507478E+02  0.205E-01    9.14       0.0  T
   2    -50.7478572 -0.143745E-04  0.152E-01    9.13       1.0  T
   3    -50.7478653 -0.809448E-05  0.259E-02    9.12       1.0  T
   4    -50.7478673 -0.200478E-05  0.890E-03    9.12       2.2  T
   5    -50.7478674 -0.103051E-06  0.207E-03    9.12       9.5  T
   6    -50.7478674 -0.578523E-08  0.125E-03    9.12      15.7  T
speedup  0.86
cpu  time for SCC    0.00 s
wall time for SCC    0.01 s
speedup  1.00
cpu  time for grad    0.01 s
wall time for grad    0.01 s
 E :    -50.45904109  G :  0.025310    pred/act E change: -0.145D-02 -0.279D-03
Maxdispl :   0.1216   ||displ|| :   0.2851   Lambda : -0.160D-02
Largest |displ|/coords:  0.1216 (   7)  0.0938 (   5)  0.0857 (  13)
................................................................................
.............................. CYCLE   43 ......................................
................................................................................
   1    -50.7441316 -0.507441E+02  0.189E-01    8.97       0.0  T
   2    -50.7441456 -0.140314E-04  0.143E-01    8.97       1.0  T
   3    -50.7441559 -0.102924E-04  0.229E-02    8.97       1.0  T
   4    -50.7441578 -0.185009E-05  0.923E-03    8.97       2.1  T
   5    -50.7441579 -0.114788E-06  0.232E-03    8.97       8.5  T
   6    -50.7441579 -0.624546E-08  0.135E-03    8.97      14.5  T
speedup  1.03
cpu  time for SCC    0.01 s
wall time for SCC    0.01 s
speedup  0.99
cpu  time for grad    0.01 s
wall time for grad    0.01 s
 E :    -50.45969460  G :  0.025174    pred/act E change: -0.809D-03 -0.654D-03
Maxdispl :   0.1205   ||displ|| :   0.3077   Lambda : -0.191D-02
Largest |displ|/coords:  0.1205 (   4)  0.1112 (   3)  0.1013 (  12)
................................................................................
.............................. CYCLE   44 ......................................
................................................................................
   1    -50.7494808 -0.507495E+02  0.192E-01    8.99       0.0  T
   2    -50.7495311 -0.503626E-04  0.140E-01    9.00       1.0  T
   3    -50.7495463 -0.152185E-04  0.387E-02    9.01       1.0  T
   4    -50.7495523 -0.596689E-05  0.879E-03    9.01       2.2  T
   5    -50.7495524 -0.120237E-06  0.255E-03    9.01       7.7  T
   6    -50.7495524 -0.840755E-08  0.142E-03    9.01      13.8  T
speedup  1.02
cpu  time for SCC    0.01 s
wall time for SCC    0.01 s
speedup  1.00
cpu  time for grad    0.01 s
wall time for grad    0.01 s
 E :    -50.46011492  G :  0.017572    pred/act E change: -0.865D-03 -0.420D-03
Maxdispl :   0.2298   ||displ|| :   0.4372   Lambda : -0.158D-02
Largest |displ|/coords:  0.2298 (   5)  0.1270 (   6)  0.1171 (  28)
................................................................................
.............................. CYCLE   45 ......................................
................................................................................
   1    -50.7432978 -0.507433E+02  0.258E-01    8.89       0.0  T
   2    -50.7433330 -0.351945E-04  0.193E-01    8.88       1.0  T
   3    -50.7433506 -0.175605E-04  0.379E-02    8.87       1.0  T
   4    -50.7433558 -0.522924E-05  0.139E-02    8.87       1.4  T
   5    -50.7433561 -0.282374E-06  0.334E-03    8.87       5.9  T
   6    -50.7433561 -0.206343E-07  0.198E-03    8.87       9.9  T
   7    -50.7433561 -0.683320E-08  0.702E-04    8.87      27.9  T
speedup  0.87
cpu  time for SCC    0.01 s
wall time for SCC    0.01 s
speedup  0.99
cpu  time for grad    0.01 s
wall time for grad    0.02 s
 E :    -50.46077182  G :  0.027537    pred/act E change: -0.104D-02 -0.657D-03
Maxdispl :   0.1302   ||displ|| :   0.2815   Lambda : -0.174D-02
Largest |displ|/coords:  0.1302 (   6)  0.1019 (   2)  0.0962 (  12)
................................................................................
.............................. CYCLE   46 ......................................
................................................................................
   1    -50.7540460 -0.507540E+02  0.167E-01    9.03       0.0  T
   2    -50.7540586 -0.125865E-04  0.122E-01    9.03       1.0  T
   3    -50.7540649 -0.627494E-05  0.277E-02    9.02       1.0  T
   4    -50.7540662 -0.130013E-05  0.606E-03    9.02       3.2  T
   5    -50.7540663 -0.987831E-07  0.197E-03    9.02      10.0  T
   6    -50.7540663 -0.424104E-08  0.111E-03    9.02      17.7  T
speedup  1.02
cpu  time for SCC    0.01 s
wall time for SCC    0.01 s
speedup  0.99
cpu  time for grad    0.01 s
wall time for grad    0.01 s
 E :    -50.46089603  G :  0.028527    pred/act E change: -0.943D-03 -0.124D-03
Maxdispl :   0.1174   ||displ|| :   0.2778   Lambda : -0.171D-02
Largest |displ|/coords:  0.1174 (  13)  0.1040 (   4)  0.0817 (   9)
................................................................................
.............................. CYCLE   47 ......................................
................................................................................
   1    -50.7485968 -0.507486E+02  0.181E-01    9.05       0.0  T
   2    -50.7486088 -0.120508E-04  0.133E-01    9.04       1.0  T
   3    -50.7486153 -0.647099E-05  0.270E-02    9.03       1.0  T
   4    -50.7486169 -0.157059E-05  0.717E-03    9.03       2.7  T
   5    -50.7486170 -0.725826E-07  0.201E-03    9.03       9.8  T
   6    -50.7486170 -0.451357E-08  0.117E-03    9.03      16.8  T
speedup  1.02
cpu  time for SCC    0.01 s
wall time for SCC    0.01 s
speedup  1.00
cpu  time for grad    0.01 s
wall time for grad    0.01 s
 E :    -50.46153789  G :  0.021588    pred/act E change: -0.937D-03 -0.642D-03
Maxdispl :   0.1247   ||displ|| :   0.2824   Lambda : -0.160D-02
Largest |displ|/coords:  0.1247 (   6)  0.1060 (  13)  0.0839 (  11)
................................................................................
.............................. CYCLE   48 ......................................
................................................................................
   1    -50.7537179 -0.507537E+02  0.225E-01    8.77       0.0  T
   2    -50.7537452 -0.273025E-04  0.167E-01    8.77       1.0  T
   3    -50.7537653 -0.201535E-04  0.332E-02    8.78       1.0  T
   4    -50.7537685 -0.319301E-05  0.119E-02    8.78       1.6  T
   5    -50.7537687 -0.200552E-06  0.337E-03    8.77       5.8  T
   6    -50.7537687 -0.915775E-08  0.190E-03    8.77      10.3  T
speedup  1.03
cpu  time for SCC    0.01 s
wall time for SCC    0.01 s
speedup  1.01
cpu  time for grad    0.01 s
wall time for grad    0.01 s
 E :    -50.46114728  G :  0.034100    pred/act E change: -0.922D-03  0.391D-03
Maxdispl :   0.1031   ||displ|| :   0.2146   Lambda : -0.202D-02
Largest |displ|/coords:  0.1031 (  13)  0.0668 (  28)  0.0599 (  18)
................................................................................
.............................. CYCLE   49 ......................................
................................................................................
   1    -50.7503700 -0.507504E+02  0.187E-01    8.96       0.0  T
   2    -50.7503840 -0.140340E-04  0.138E-01    8.95       1.0  T
   3    -50.7503943 -0.102457E-04  0.273E-02    8.93       1.0  T
   4    -50.7503959 -0.162414E-05  0.101E-02    8.94       1.9  T
   5    -50.7503960 -0.128924E-06  0.277E-03    8.94       7.1  T
   6    -50.7503961 -0.782524E-08  0.164E-03    8.94      12.0  T
speedup  1.03
cpu  time for SCC    0.01 s
wall time for SCC    0.01 s
speedup  1.00
cpu  time for grad    0.01 s
wall time for grad    0.01 s
 E :    -50.46208976  G :  0.016906    pred/act E change: -0.864D-03 -0.942D-03
Maxdispl :   0.1412   ||displ|| :   0.2730   Lambda : -0.105D-02
Largest |displ|/coords:  0.1412 (   9)  0.1300 (   6)  0.0878 (   2)
................................................................................
.............................. CYCLE   50 ......................................
................................................................................
   1    -50.7527718 -0.507528E+02  0.183E-01    8.96       0.0  T
   2    -50.7527845 -0.127870E-04  0.137E-01    8.97       1.0  T
   3    -50.7527927 -0.817388E-05  0.224E-02    8.97       1.0  T
   4    -50.7527945 -0.180566E-05  0.903E-03    8.97       2.2  T
   5    -50.7527947 -0.131933E-06  0.250E-03    8.97       7.9  T
   6    -50.7527947 -0.623512E-08  0.145E-03    8.97      13.5  T
speedup  1.02
cpu  time for SCC    0.01 s
wall time for SCC    0.01 s
speedup  0.98
cpu  time for grad    0.01 s
wall time for grad    0.01 s
 E :    -50.46197016  G :  0.025607    pred/act E change: -0.105D-02  0.120D-03
Maxdispl :   0.0631   ||displ|| :   0.1455   Lambda : -0.108D-02
Largest |displ|/coords:  0.0631 (   6)  0.0601 (   5)  0.0553 (   9)
................................................................................
.............................. CYCLE   51 ......................................
................................................................................
   1    -50.7533381 -0.507533E+02  0.921E-02    9.00       0.0  T
   2    -50.7533428 -0.477700E-05  0.694E-02    9.00       1.0  T
   3    -50.7533456 -0.280325E-05  0.143E-02    8.99       1.4  T
   4    -50.7533463 -0.675624E-06  0.536E-03    8.99       3.7  T
   5    -50.7533464 -0.376462E-07  0.125E-03    8.99      15.7  T
speedup  1.02
cpu  time for SCC    0.00 s
wall time for SCC    0.00 s
speedup  0.99
cpu  time for grad    0.01 s
wall time for grad    0.01 s
 E :    -50.46257850  G :  0.008361    pred/act E change: -0.563D-03 -0.608D-03
Maxdispl :   0.0660   ||displ|| :   0.1950   Lambda : -0.397D-03
Largest |displ|/coords:  0.0660 (  28)  0.0563 (   2)  0.0463 (  37)
................................................................................
.............................. CYCLE   52 ......................................
................................................................................
   1    -50.7523021 -0.507523E+02  0.144E-01    8.91       0.0  T
   2    -50.7523076 -0.547211E-05  0.107E-01    8.91       1.0  T
   3    -50.7523110 -0.347907E-05  0.178E-02    8.90       1.1  T
   4    -50.7523117 -0.684591E-06  0.622E-03    8.90       3.2  T
   5    -50.7523118 -0.436647E-07  0.122E-03    8.90      16.0  T
   6    -50.7523118 -0.159910E-08  0.757E-04    8.90      25.9  T
speedup  1.02
cpu  time for SCC    0.01 s
wall time for SCC    0.01 s
speedup  0.99
cpu  time for grad    0.01 s
wall time for grad    0.01 s
 E :    -50.46278617  G :  0.012560    pred/act E change: -0.549D-03 -0.208D-03
Maxdispl :   0.1240   ||displ|| :   0.2161   Lambda : -0.450D-03
Largest |displ|/coords:  0.1240 (   2)  0.0679 (  28)  0.0446 (   4)

generating ANC from model Hessian ...
 Shifting diagonal of input Hessian by   4.857033373595515E-003
 Lowest  eigenvalues of input Hessian
   -0.000000   -0.000000   -0.000000    0.000000    0.000000    0.000000
    0.005000    0.005272    0.005733    0.005820    0.006372    0.007367
    0.007598    0.007995    0.009049    0.009458    0.010685    0.011038
 Highest eigenvalues
    1.394591    1.415874    1.430308    2.500818    3.470162    3.694453
 
cpu  time for ANC gen    0.02 s
wall time for ANC gen    0.02 s
................................................................................
.............................. CYCLE   53 ......................................
................................................................................
   1    -50.7552999 -0.507553E+02  0.139E-01    9.01       0.0  T
   2    -50.7553049 -0.496407E-05  0.103E-01    9.00       1.0  T
   3    -50.7553078 -0.288447E-05  0.160E-02    9.00       1.2  T
   4    -50.7553085 -0.733493E-06  0.558E-03    9.00       3.5  T
   5    -50.7553086 -0.300975E-07  0.131E-03    9.00      15.0  T
   6    -50.7553086 -0.278418E-08  0.798E-04    9.00      24.6  T
   7    -50.7553086 -0.106086E-08  0.281E-04    9.00      69.8  T
speedup  0.00
cpu  time for SCC    0.00 s
wall time for SCC    0.01 s
speedup  0.00
cpu  time for grad    0.00 s
wall time for grad    0.02 s
 E :    -50.46313016  G :  0.010479    pred/act E change:  0.000D+00 -0.344D-03
Maxdispl :   0.0823   ||displ|| :   0.2077   Lambda : -0.614D-03
Largest |displ|/coords:  0.0823 (   8)  0.0814 (   6)  0.0693 (   5)
................................................................................
.............................. CYCLE   54 ......................................
................................................................................
   1    -50.7563250 -0.507563E+02  0.123E-01    9.01       0.0  T
   2    -50.7563291 -0.412227E-05  0.931E-02    9.01       1.0  T
   3    -50.7563328 -0.366436E-05  0.118E-02    9.02       1.7  T
   4    -50.7563334 -0.566311E-06  0.502E-03    9.02       3.9  T
   5    -50.7563334 -0.301835E-07  0.149E-03    9.02      13.2  T
   6    -50.7563334 -0.374079E-08  0.841E-04    9.02      23.3  T
speedup  1.02
cpu  time for SCC    0.01 s
wall time for SCC    0.01 s
speedup  0.99
cpu  time for grad    0.01 s
wall time for grad    0.01 s
 E :    -50.46359095  G :  0.006514    pred/act E change:  0.000D+00 -0.461D-03
Maxdispl :   0.1272   ||displ|| :   0.3695   Lambda : -0.766D-03
Largest |displ|/coords:  0.1272 (   5)  0.1118 (  12)  0.1086 (   8)
................................................................................
.............................. CYCLE   55 ......................................
................................................................................
   1    -50.7551819 -0.507552E+02  0.247E-01    9.00       0.0  T
   2    -50.7551969 -0.150507E-04  0.185E-01    9.00       1.0  T
   3    -50.7552068 -0.987742E-05  0.241E-02    9.00       1.0  T
   4    -50.7552094 -0.256856E-05  0.859E-03    9.00       2.3  T
   5    -50.7552094 -0.848498E-07  0.283E-03    9.00       6.9  T
   6    -50.7552095 -0.121589E-07  0.155E-03    9.00      12.6  T
speedup  1.03
cpu  time for SCC    0.01 s
wall time for SCC    0.01 s
speedup  0.99
cpu  time for grad    0.01 s
wall time for grad    0.01 s
 E :    -50.46412298  G :  0.011943    pred/act E change: -0.320D-03 -0.532D-03
Maxdispl :   0.1280   ||displ|| :   0.3077   Lambda : -0.470D-03
Largest |displ|/coords:  0.1280 (  10)  0.1131 (   5)  0.0902 (  12)
................................................................................
.............................. CYCLE   56 ......................................
................................................................................
   1    -50.7539516 -0.507540E+02  0.213E-01    8.96       0.0  T
   2    -50.7539605 -0.887703E-05  0.159E-01    8.95       1.0  T
   3    -50.7539675 -0.697758E-05  0.192E-02    8.95       1.0  T
   4    -50.7539687 -0.125460E-05  0.612E-03    8.95       3.2  T
   5    -50.7539688 -0.521890E-07  0.204E-03    8.95       9.6  T
   6    -50.7539688 -0.736845E-08  0.108E-03    8.95      18.1  T
speedup  1.03
cpu  time for SCC    0.01 s
wall time for SCC    0.01 s
speedup  1.00
cpu  time for grad    0.01 s
wall time for grad    0.01 s
 E :    -50.46446532  G :  0.015067    pred/act E change: -0.435D-03 -0.342D-03
Maxdispl :   0.1567   ||displ|| :   0.3535   Lambda : -0.613D-03
Largest |displ|/coords:  0.1567 (  10)  0.1302 (   5)  0.1264 (  13)
................................................................................
.............................. CYCLE   57 ......................................
................................................................................
   1    -50.7555567 -0.507556E+02  0.211E-01    8.88       0.0  T
   2    -50.7555670 -0.103518E-04  0.157E-01    8.87       1.0  T
   3    -50.7555771 -0.100409E-04  0.228E-02    8.87       1.0  T
   4    -50.7555780 -0.962632E-06  0.517E-03    8.87       3.8  T
   5    -50.7555781 -0.659646E-07  0.232E-03    8.87       8.5  T
   6    -50.7555781 -0.113513E-07  0.121E-03    8.87      16.2  T
speedup  1.05
cpu  time for SCC    0.01 s
wall time for SCC    0.01 s
speedup  1.01
cpu  time for grad    0.01 s
wall time for grad    0.01 s
 E :    -50.46472171  G :  0.017270    pred/act E change: -0.257D-03 -0.256D-03
Maxdispl :   0.1874   ||displ|| :   0.3531   Lambda : -0.757D-03
Largest |displ|/coords:  0.1874 (   5)  0.1380 (  10)  0.1073 (   3)
................................................................................
.............................. CYCLE   58 ......................................
................................................................................
   1    -50.7540721 -0.507541E+02  0.281E-01    8.86       0.0  T
   2    -50.7540890 -0.169915E-04  0.211E-01    8.86       1.0  T
   3    -50.7541026 -0.135573E-04  0.264E-02    8.85       1.0  T
   4    -50.7541047 -0.205251E-05  0.853E-03    8.86       2.3  T
   5    -50.7541048 -0.104110E-06  0.254E-03    8.86       7.7  T
   6    -50.7541048 -0.519326E-08  0.141E-03    8.86      13.9  T
speedup  1.07
cpu  time for SCC    0.01 s
wall time for SCC    0.01 s
speedup  1.01
cpu  time for grad    0.01 s
wall time for grad    0.01 s
 E :    -50.46501886  G :  0.021865    pred/act E change: -0.345D-03 -0.297D-03
Maxdispl :   0.0432   ||displ|| :   0.1205   Lambda : -0.575D-03
Largest |displ|/coords:  0.0432 (  12)  0.0407 (  11)  0.0322 (  13)
................................................................................
.............................. CYCLE   59 ......................................
................................................................................
   1    -50.7596408 -0.507596E+02  0.982E-02    9.03       0.0  T
   2    -50.7596479 -0.709490E-05  0.730E-02    9.02       1.0  T
   3    -50.7596505 -0.264642E-05  0.183E-02    9.02       1.1  T
   4    -50.7596515 -0.971543E-06  0.451E-03    9.02       4.4  T
   5    -50.7596515 -0.393711E-07  0.122E-03    9.02      16.1  T
speedup  1.06
cpu  time for SCC    0.00 s
wall time for SCC    0.00 s
speedup  1.02
cpu  time for grad    0.01 s
wall time for grad    0.01 s
 E :    -50.46534030  G :  0.008387    pred/act E change: -0.426D-03 -0.321D-03
Maxdispl :   0.1839   ||displ|| :   0.3387   Lambda : -0.420D-03
Largest |displ|/coords:  0.1839 (   5)  0.1373 (  10)  0.1042 (   3)
................................................................................
.............................. CYCLE   60 ......................................
................................................................................
   1    -50.7584758 -0.507585E+02  0.203E-01    8.99       0.0  T
   2    -50.7584844 -0.865152E-05  0.150E-01    8.99       1.0  T
   3    -50.7584919 -0.750400E-05  0.228E-02    8.99       1.0  T
   4    -50.7584928 -0.887096E-06  0.727E-03    8.99       2.7  T
   5    -50.7584929 -0.807333E-07  0.204E-03    8.99       9.6  T
   6    -50.7584929 -0.691928E-08  0.127E-03    8.99      15.5  T
speedup  1.07
cpu  time for SCC    0.01 s
wall time for SCC    0.01 s
speedup  1.01
cpu  time for grad    0.01 s
wall time for grad    0.01 s
 E :    -50.46560388  G :  0.008685    pred/act E change: -0.291D-03 -0.264D-03
Maxdispl :   0.2055   ||displ|| :   0.3813   Lambda : -0.466D-03
Largest |displ|/coords:  0.2055 (   5)  0.1638 (  10)  0.0962 (   6)
................................................................................
.............................. CYCLE   61 ......................................
................................................................................
   1    -50.7593502 -0.507594E+02  0.246E-01    8.96       0.0  T
   2    -50.7593637 -0.135051E-04  0.182E-01    8.96       1.0  T
   3    -50.7593755 -0.117885E-04  0.294E-02    8.95       1.0  T
   4    -50.7593766 -0.119857E-05  0.105E-02    8.96       1.9  T
   5    -50.7593768 -0.137936E-06  0.222E-03    8.96       8.9  T
   6    -50.7593768 -0.683385E-08  0.144E-03    8.96      13.6  T
speedup  1.02
cpu  time for SCC    0.01 s
wall time for SCC    0.01 s
speedup  1.03
cpu  time for grad    0.01 s
wall time for grad    0.01 s
 E :    -50.46585852  G :  0.010072    pred/act E change: -0.234D-03 -0.255D-03
Maxdispl :   0.0999   ||displ|| :   0.1452   Lambda : -0.191D-03
Largest |displ|/coords:  0.0999 (   5)  0.0473 (   3)  0.0383 (   2)
................................................................................
.............................. CYCLE   62 ......................................
................................................................................
   1    -50.7604602 -0.507605E+02  0.921E-02    9.01       0.0  T
   2    -50.7604618 -0.157879E-05  0.677E-02    9.01       1.0  T
   3    -50.7604633 -0.147400E-05  0.112E-02    9.01       1.7  T
   4    -50.7604634 -0.103749E-06  0.185E-03    9.01      10.6  T
   5    -50.7604634 -0.896281E-08  0.846E-04    9.01      23.2  T
speedup  1.04
cpu  time for SCC    0.00 s
wall time for SCC    0.00 s
speedup  1.00
cpu  time for grad    0.01 s
wall time for grad    0.01 s
 E :    -50.46598597  G :  0.007676    pred/act E change: -0.267D-03 -0.127D-03
Maxdispl :   0.0865   ||displ|| :   0.1858   Lambda : -0.219D-03
Largest |displ|/coords:  0.0865 (   5)  0.0789 (   1)  0.0516 (  10)
................................................................................
.............................. CYCLE   63 ......................................
................................................................................
   1    -50.7628428 -0.507628E+02  0.101E-01    9.02       0.0  T
   2    -50.7628474 -0.456815E-05  0.728E-02    9.02       1.0  T
   3    -50.7628504 -0.304325E-05  0.155E-02    9.02       1.3  T
   4    -50.7628508 -0.387844E-06  0.427E-03    9.02       4.6  T
   5    -50.7628509 -0.365388E-07  0.124E-03    9.02      15.9  T
   6    -50.7628509 -0.275695E-08  0.753E-04    9.02      26.0  T
speedup  0.88
cpu  time for SCC    0.00 s
wall time for SCC    0.01 s
speedup  0.94
cpu  time for grad    0.01 s
wall time for grad    0.01 s
 E :    -50.46608488  G :  0.007224    pred/act E change: -0.973D-04 -0.989D-04
Maxdispl :   0.1211   ||displ|| :   0.2218   Lambda : -0.149D-03
Largest |displ|/coords:  0.1211 (   5)  0.0925 (   3)  0.0905 (  10)
................................................................................
.............................. CYCLE   64 ......................................
................................................................................
   1    -50.7607134 -0.507607E+02  0.141E-01    8.99       0.0  T
   2    -50.7607168 -0.347831E-05  0.105E-01    8.99       1.0  T
   3    -50.7607195 -0.270462E-05  0.161E-02    9.00       1.2  T
   4    -50.7607199 -0.388874E-06  0.552E-03    9.00       3.6  T
   5    -50.7607200 -0.298885E-07  0.108E-03    9.00      18.2  T
   6    -50.7607200 -0.118114E-08  0.728E-04    9.00      26.9  T
speedup  0.88
cpu  time for SCC    0.00 s
wall time for SCC    0.01 s
speedup  1.01
cpu  time for grad    0.01 s
wall time for grad    0.01 s
 E :    -50.46614024  G :  0.007333    pred/act E change: -0.113D-03 -0.554D-04
Maxdispl :   0.0509   ||displ|| :   0.1148   Lambda : -0.136D-03
Largest |displ|/coords:  0.0509 (   5)  0.0493 (   2)  0.0423 (  15)
................................................................................
.............................. CYCLE   65 ......................................
[...]
   4    -50.7628108 -0.100021E-07  0.823E-04    9.03      23.8  T
   5    -50.7628108 -0.712035E-09  0.221E-04    9.03      88.8  T
speedup  0.83
cpu  time for SCC    0.00 s
wall time for SCC    0.00 s
speedup  0.96
cpu  time for grad    0.01 s
wall time for grad    0.01 s
 E :    -50.46691180  G :  0.000548    pred/act E change: -0.738D-06 -0.156D-05
Maxdispl :   0.0081   ||displ|| :   0.0169   Lambda : -0.797D-06
Largest |displ|/coords:  0.0081 (   4)  0.0067 (  10)  0.0067 (   2)
................................................................................
.............................. CYCLE  106 ......................................
................................................................................
   1    -50.7628035 -0.507628E+02  0.101E-02    9.03       0.0  T
   2    -50.7628035 -0.123347E-07  0.755E-03    9.03       2.6  T
   3    -50.7628035 -0.125317E-07  0.734E-04    9.03      26.7  T
   4    -50.7628035 -0.122206E-08  0.266E-04    9.03      73.7  T
speedup  1.03
cpu  time for SCC    0.00 s
wall time for SCC    0.00 s
speedup  0.94
cpu  time for grad    0.01 s
wall time for grad    0.01 s
 E :    -50.46691240  G :  0.000458    pred/act E change: -0.124D-05 -0.601D-06
Maxdispl :   0.0118   ||displ|| :   0.0203   Lambda : -0.979D-06
Largest |displ|/coords:  0.0118 (   2)  0.0070 (  14)  0.0069 (   4)
................................................................................
.............................. CYCLE  107 ......................................
................................................................................
   1    -50.7628155 -0.507628E+02  0.133E-02    9.02       0.0  T
   2    -50.7628155 -0.269415E-07  0.100E-02    9.02       2.0  T
   3    -50.7628156 -0.168053E-07  0.108E-03    9.02      18.2  T
   4    -50.7628156 -0.468984E-08  0.342E-04    9.02      57.3  T
   5    -50.7628156 -0.132090E-09  0.990E-05    9.02     198.1  T
speedup  1.04
cpu  time for SCC    0.00 s
wall time for SCC    0.00 s
speedup  0.96
cpu  time for grad    0.01 s
wall time for grad    0.01 s
 E :    -50.46691311  G :  0.000381    pred/act E change: -0.399D-06 -0.704D-06
Maxdispl :   0.0129   ||displ|| :   0.0201   Lambda : -0.736D-06
Largest |displ|/coords:  0.0129 (   2)  0.0063 (  14)  0.0062 (  37)
................................................................................
.............................. CYCLE  108 ......................................
................................................................................
   1    -50.7628430 -0.507628E+02  0.154E-02    9.03       0.0  T
   2    -50.7628431 -0.466289E-07  0.116E-02    9.02       1.7  T
   3    -50.7628431 -0.190593E-07  0.143E-03    9.02      13.7  T
   4    -50.7628431 -0.962051E-08  0.447E-04    9.02      43.9  T
   5    -50.7628431 -0.205652E-09  0.101E-04    9.02     193.3  T
speedup  1.04
cpu  time for SCC    0.00 s
wall time for SCC    0.00 s
speedup  1.03
cpu  time for grad    0.01 s
wall time for grad    0.01 s
 E :    -50.46691366  G :  0.000442    pred/act E change: -0.490D-06 -0.553D-06
Maxdispl :   0.0165   ||displ|| :   0.0255   Lambda : -0.840D-06
Largest |displ|/coords:  0.0165 (   2)  0.0101 (   1)  0.0071 (  14)
................................................................................
.............................. CYCLE  109 ......................................
................................................................................
   1    -50.7628963 -0.507629E+02  0.191E-02    9.03       0.0  T
   2    -50.7628963 -0.622330E-07  0.144E-02    9.03       1.4  T
   3    -50.7628963 -0.295720E-07  0.160E-03    9.03      12.3  T
   4    -50.7628964 -0.122367E-07  0.573E-04    9.03      34.2  T
   5    -50.7628964 -0.313037E-09  0.121E-04    9.03     161.9  T
speedup  1.04
cpu  time for SCC    0.00 s
wall time for SCC    0.00 s
speedup  1.03
cpu  time for grad    0.01 s
wall time for grad    0.01 s
 E :    -50.46691427  G :  0.000436    pred/act E change: -0.368D-06 -0.613D-06
Maxdispl :   0.0152   ||displ|| :   0.0284   Lambda : -0.765D-06
Largest |displ|/coords:  0.0152 (   2)  0.0123 (   1)  0.0099 (  37)
................................................................................
.............................. CYCLE  110 ......................................
................................................................................
   1    -50.7629027 -0.507629E+02  0.231E-02    9.03       0.0  T
   2    -50.7629028 -0.101467E-06  0.174E-02    9.03       1.1  T
   3    -50.7629028 -0.421651E-07  0.216E-03    9.03       9.1  T
   4    -50.7629028 -0.205206E-07  0.760E-04    9.03      25.8  T
   5    -50.7629028 -0.501174E-09  0.142E-04    9.03     137.7  T
speedup  1.04
cpu  time for SCC    0.00 s
wall time for SCC    0.00 s
speedup  1.03
cpu  time for grad    0.01 s
wall time for grad    0.01 s
 E :    -50.46691479  G :  0.000421    pred/act E change: -0.420D-06 -0.516D-06
Maxdispl :   0.0149   ||displ|| :   0.0252   Lambda : -0.700D-06
Largest |displ|/coords:  0.0149 (   1)  0.0116 (   2)  0.0085 (   3)
................................................................................
.............................. CYCLE  111 ......................................
................................................................................
   1    -50.7629741 -0.507630E+02  0.168E-02    9.03       0.0  T
   2    -50.7629741 -0.235936E-07  0.127E-02    9.03       1.6  T
   3    -50.7629742 -0.252879E-07  0.883E-04    9.03      22.2  T
   4    -50.7629742 -0.202741E-08  0.325E-04    9.03      60.3  T
speedup  1.05
cpu  time for SCC    0.00 s
wall time for SCC    0.00 s
speedup  1.03
cpu  time for grad    0.01 s
wall time for grad    0.01 s
 E :    -50.46691513  G :  0.000562    pred/act E change: -0.383D-06 -0.336D-06
Maxdispl :   0.0044   ||displ|| :   0.0096   Lambda : -0.449D-06
Largest |displ|/coords:  0.0044 (   1)  0.0041 (   3)  0.0036 (   5)
................................................................................
.............................. CYCLE  112 ......................................
................................................................................
   1    -50.7629354 -0.507629E+02  0.710E-03    9.03       0.0  T
   2    -50.7629354 -0.788982E-08  0.532E-03    9.03       3.7  T
   3    -50.7629354 -0.443645E-08  0.666E-04    9.03      29.4  T
   4    -50.7629354 -0.131276E-08  0.259E-04    9.03      75.8  T
speedup  1.00
cpu  time for SCC    0.00 s
wall time for SCC    0.00 s
speedup  1.02
cpu  time for grad    0.01 s
wall time for grad    0.01 s
 E :    -50.46691542  G :  0.000265    pred/act E change: -0.350D-06 -0.298D-06
Maxdispl :   0.0066   ||displ|| :   0.0115   Lambda : -0.344D-06
Largest |displ|/coords:  0.0066 (   3)  0.0053 (   1)  0.0040 (   6)

generating ANC from model Hessian ...
 Shifting diagonal of input Hessian by   4.838545500583406E-003
 Lowest  eigenvalues of input Hessian
   -0.000000   -0.000000   -0.000000    0.000000    0.000000    0.000000
    0.005000    0.005293    0.005759    0.006124    0.006560    0.007118
    0.007659    0.007938    0.009282    0.010022    0.010475    0.011311
 Highest eigenvalues
    1.411071    1.415199    1.442528    2.413864    3.519151    3.730615
 
cpu  time for ANC gen    0.02 s
wall time for ANC gen    0.02 s
................................................................................
.............................. CYCLE  113 ......................................
................................................................................
   1    -50.7629061 -0.507629E+02  0.671E-03    9.03       0.0  T
   2    -50.7629061 -0.911213E-08  0.503E-03    9.03       3.9  T
   3    -50.7629062 -0.616072E-08  0.668E-04    9.03      29.3  T
   4    -50.7629062 -0.134835E-08  0.266E-04    9.03      73.8  T
speedup  1.03
cpu  time for SCC    0.00 s
wall time for SCC    0.00 s
speedup  0.94
cpu  time for grad    0.01 s
wall time for grad    0.01 s
 E :    -50.46691567  G :  0.000150    pred/act E change:  0.000D+00 -0.244D-06
Maxdispl :   0.0009   ||displ|| :   0.0018   Lambda : -0.617D-07
Largest |displ|/coords:  0.0009 (   1)  0.0008 (   3)  0.0005 (   5)
................................................................................
.............................. CYCLE  114 ......................................
................................................................................
   1    -50.7629063 -0.507629E+02  0.104E-03    9.03       0.0  T
   2    -50.7629063 -0.241194E-09  0.776E-04    9.03      25.3  T
   3    -50.7629063 -0.196017E-09  0.121E-04    9.03     162.2  T
speedup  1.00
cpu  time for SCC    0.00 s
wall time for SCC    0.00 s
speedup  1.02
cpu  time for grad    0.01 s
wall time for grad    0.01 s
 E :    -50.46691572  G :  0.000100    pred/act E change:  0.000D+00 -0.565D-07
Maxdispl :   0.0043   ||displ|| :   0.0083   Lambda : -0.189D-06
Largest |displ|/coords:  0.0043 (   1)  0.0035 (   3)  0.0028 (   5)

   *** GEOMETRY OPTIMIZATION CONVERGED AFTER 114 ITERATIONS ***

------------------------------------------------------------------------
 total energy gain (kcal):     -0.0000
------------------------------------------------------------------------
================
 final structure:
================
$coord
        2.88807803903655       -1.53650271403889        1.64532880113955      S 
        2.88974157721238       -4.19599174996996        2.18426877517178      O 
        1.09532668034020       -0.06229404544445        3.10336620295177      O 
        2.76031661626518       -0.90902815727106       -1.03981397407202      O 
        5.63441034608667       -0.52857030208029        2.48406381322639      O 
        6.24120784024873       -1.84647811087736        3.54822820057495      H 
        0.53901221775671       -1.71920966522526       -3.02038598964267      H 
       -5.24268670618968       -0.40802287317992        1.74003521616230      O 
       -6.76753377471321       -1.25364780253737        2.22630332372515      H 
       -0.91500331846508       -2.21085854684768       -4.07357547718046      O 
       -0.24745495477303       -2.63312588993490       -5.70284611144653      H 
        4.26891465033954        3.83137880433177       -0.91626333690479      O 
        5.53065101510096        3.82441419132425        0.38568237892998      H 
        3.90798032113407        2.04056310472192       -1.23108193482980      H 
       -3.83390647973381        1.79747083897931       -2.57374786979084      O 
       -4.74290642827365        1.01716175559970       -1.15854042672054      H 
       -1.87641242653744        3.15159924385004       -0.85127819543180      H 
       -2.93646785929008        0.40629853489701       -3.38118904836785      H 
       -2.03568862497082       -4.20932237542190        0.77666916143146      O 
       -1.85646189406918       -4.01768401789124       -1.03104106067143      H 
       -0.34306999188152       -4.39525829089779        1.45553145443819      H 
       -3.94021184603621       -1.73136938088340        1.66814268253736      H 
       -0.59479142044903        3.80496325894360        0.58218580364093      N 
       -0.14365574803468        2.22710710552950        1.74182158488368      H 
       -1.40576941035236        5.19248830566320        1.62545654184324      H 
        1.12638156122577        4.36391879789004       -0.18732057230115      H 
$end
 
 Bond Distances (Angstroems)
 ---------------------------
S1-O2=1.4359         S1-O3=1.4505         S1-O4=1.4608         S1-O5=1.6105         O2-S1=1.4359         O3-S1=1.4505         
O4-S1=1.4608         O5-S1=1.6105         O5-H6=0.9522         H6-O5=0.9522         H7-O10=0.9851        O8-H9=0.9579         
O8-H22=0.9833        H9-O8=0.9579         O10-H7=0.9851        O10-H11=0.9582       H11-O10=0.9582       O12-H13=0.9594       
O12-H14=0.9810       H13-O12=0.9594       H14-O12=0.9810       O15-H16=0.9812       O15-H18=0.9747       H16-O15=0.9812       
H17-N23=1.0747       H18-O15=0.9747       O19-H20=0.9666       O19-H21=0.9701       H20-O19=0.9666       H21-O19=0.9701       
H22-O8=0.9833        N23-H17=1.0747       N23-H24=1.0634       N23-H25=1.0139       N23-H26=1.0406       H24-N23=1.0634       
H25-N23=1.0139       H26-N23=1.0406       
 N  H  Rav=1.0481 sigma=0.0232  Rmin=1.0139  Rmax=1.0747     4
 O  H  Rav=0.9700 sigma=0.0113  Rmin=0.9522  Rmax=0.9851    11
 S  O  Rav=1.4894 sigma=0.0704  Rmin=1.4359  Rmax=1.6105     4
 
 selected bond angles (degree)
 --------------------
O3-S1-O2=114.95                O4-S1-O2=114.58                O4-S1-O3=111.40                O5-S1-O2=105.62                
O5-S1-O3=105.40                O5-S1-O4=103.57                H6-O5-S1=102.99                H22-O8-H9=105.55               
H11-O10-H7=106.42              
 
 selected dihedral angles (degree)
 ---------------------------------
H6-O5-S1-O2=342.72            H6-O5-S1-O3=104.82            H6-O5-S1-O4=221.93            
 
 CMA Distance (Angstroems)
 ---------------------------
R(CMA):  2.8200

========================================================================
 FINAL SINGLEPOINT CALCULATION ON OPTIMIZED GEOMETRY
========================================================================

 Ncao       : 65
 Nao        : 64
 Nshell     : 38
 Nel        : 80
 T(el)      :   300.0
 intcut     :    25.0
 scfconv/Eh :  0.100E-05
   qconv/e  :  0.100E-03
 intneglect :  0.100E-07
 broydamp   :      0.250
 iter      E             dE          RMSdq      gap      omega  full diag
   1    -50.7629063 -0.507629E+02  0.574E-05    9.03       0.0  T
   2    -50.7629063 -0.216716E-11  0.347E-05    9.03     565.0  T
   3    -50.7629063 -0.102318E-11  0.654E-06    9.03    3000.0  T
speedup  1.00
cpu  time for SCC    0.00 s
wall time for SCC    0.00 s

   *** convergence criteria satisfied after 3 iterations ***

          eigenvalues
 #    :          28         29         30         31         32         33         34         35
 occ. :        2.000      2.000      2.000      2.000      2.000      2.000      2.000      2.000
 eps  :       -13.360    -13.241    -12.553    -12.356    -12.292    -12.220    -12.180    -12.102
 #    :          36         37         38         39         40         41         42         43
 occ. :        2.000      2.000      2.000      2.000      2.000      0.000      0.000      0.000
 eps  :       -11.983    -11.935    -11.766    -11.756    -11.608     -2.578     -0.692     -0.503
 #    :          44         45         46         47         48         49         50         51
 occ. :        0.000      0.000      0.000      0.000      0.000      0.000      0.000      0.000
 eps  :         0.601      1.047      1.462      2.672      2.900      3.724      4.635      5.234


   #   Z            q   n(s)   n(p)   n(d)      C6AA      α(0)
   1  16 S      1.689  1.588  1.775  0.948    89.019    15.880
   2   8 O     -0.726  1.772  4.954  0.000    29.424     7.273
   3   8 O     -0.722  1.764  4.958  0.000    29.309     7.259
   4   8 O     -0.753  1.770  4.983  0.000    30.206     7.369
   5   8 O     -0.615  1.751  4.864  0.000    25.516     6.819
   6   1 H      0.343  0.657  0.000  0.000     0.598     1.211
   7   1 H      0.333  0.667  0.000  0.000     0.630     1.247
   8   8 O     -0.617  1.745  4.872  0.000    25.600     6.829
   9   1 H      0.281  0.719  0.000  0.000     0.781     1.388
  10   8 O     -0.624  1.745  4.880  0.000    25.779     6.853
  11   1 H      0.289  0.711  0.000  0.000     0.755     1.365
  12   8 O     -0.610  1.740  4.870  0.000    25.420     6.805
  13   1 H      0.291  0.709  0.000  0.000     0.748     1.358
  14   1 H      0.323  0.677  0.000  0.000     0.656     1.272
  15   8 O     -0.617  1.758  4.859  0.000    25.590     6.828
  16   1 H      0.331  0.669  0.000  0.000     0.634     1.251
  17   1 H      0.301  0.699  0.000  0.000     0.709     1.319
  18   1 H      0.324  0.676  0.000  0.000     0.654     1.271
  19   8 O     -0.624  1.740  4.883  0.000    25.760     6.850
  20   1 H      0.314  0.686  0.000  0.000     0.681     1.296
  21   1 H      0.305  0.695  0.000  0.000     0.707     1.320
  22   1 H      0.333  0.667  0.000  0.000     0.630     1.247
  23   7 N     -0.350  1.277  4.073  0.000    28.988     7.996
  24   1 H      0.296  0.704  0.000  0.000     0.725     1.334
  25   1 H      0.229  0.771  0.000  0.000     0.970     1.543
  26   1 H      0.276  0.724  0.000  0.000     0.790     1.392

 Mol. C6AA /au·bohr⁶  :       5446.928844
 Mol. C8AA /au·bohr⁸  :     117828.130653
 Mol. α(0) /au        :        106.574563

 
 Wiberg/Mayer (AO) data. WBOs > 0.1 written file <wbo>
 largest (>0.05) Wiberg bond orders for each atom
           total WBO             WBO to atom ...
     1  S   4.840    O    2 1.371    O    3 1.307    O    4 1.266    O    5 0.856
     2  O   1.739    S    1 1.371    O    3 0.109    O    4 0.107    O    5 0.078
     3  O   1.759    S    1 1.307    O    4 0.111    H   24 0.109    O    2 0.109    O    5 0.072
     4  O   1.726    S    1 1.266    O    3 0.111    O    2 0.107    H    7 0.067    O    5 0.062    H   14 0.059
     5  O   1.941    H    6 0.866    S    1 0.856    O    2 0.078    O    3 0.072    O    4 0.062
     6  H   0.882    O    5 0.866
     7  H   0.889    O   10 0.817    O    4 0.067
     8  O   1.856    H    9 0.916    H   22 0.827    H   16 0.056
     9  H   0.921    O    8 0.916
    10  O   1.858    H   11 0.909    H    7 0.817
    11  H   0.917    O   10 0.909
    12  O   1.879    H   13 0.910    H   14 0.832    H   26 0.068
    13  H   0.915    O   12 0.910
    14  H   0.896    O   12 0.832    O    4 0.059
    15  O   1.945    H   18 0.849    H   16 0.832    H   17 0.142    N   23 0.067
    16  H   0.890    O   15 0.832    O    8 0.056
    17  H   0.909    N   23 0.764    O   15 0.142
    18  H   0.895    O   15 0.849
    19  O   1.864    H   20 0.875    H   21 0.857    H   22 0.060
    20  H   0.902    O   19 0.875
    21  H   0.907    O   19 0.857
    22  H   0.889    O    8 0.827    O   19 0.060
    23  N   3.520    H   25 0.944    H   26 0.851    H   24 0.795    H   17 0.764    O   15 0.067
    24  H   0.912    N   23 0.795    O    3 0.109
    25  H   0.948    N   23 0.944
    26  H   0.924    N   23 0.851    O   12 0.068
 MOs/occ written to file <molden.input>
 
molecular dipole:
                 x           y           z       tot (Debye)
 q only:       -0.428       1.735      -0.183
   full:        0.367       1.000       0.085       2.717
molecular quadrupole (traceless):
                xx          xy          yy          xz          yz          zz
 q only:        1.453       0.244      -0.763       1.003       8.915      -0.690
  q+dip:        3.862      -0.787      -4.125       1.819      11.134       0.263
   full:        4.294      -0.689      -4.461       2.110      11.068       0.167

SCC energy    :     -50.7629063
rep           :       0.2956407
ES            :       0.2613139
AES           :      -0.0741957
AXC           :      -0.0080318
disp          :      -0.0196123
XB            :       0.0000000
fix           :       0.0000000
total E       :     -50.4669157
atomizationE  :       4.9972199     3135.80
(atE without considering molecular charge,
 total energy contains solvation terms)
H-L gap (eV)  :          9.0295
optimized geometry written to: xtbopt.xyz


------------------------------------------------------------------------
 * finished run on 2019/09/16 at 12:53:31.349     
------------------------------------------------------------------------
 total:
 * wall-time:     0 d,  0 h,  0 min,  5.070 sec
 *  cpu-time:     0 d,  0 h,  0 min,  4.042 sec
 * ratio c/w:     0.797 speedup
 SCF:
 * wall-time:     0 d,  0 h,  0 min,  0.584 sec
 *  cpu-time:     0 d,  0 h,  0 min,  0.520 sec
 * ratio c/w:     0.890 speedup
 ANC optimizer:
 * wall-time:     0 d,  0 h,  0 min,  4.408 sec
 *  cpu-time:     0 d,  0 h,  0 min,  3.469 sec
 * ratio c/w:     0.787 speedup

