      -----------------------------------------------------------      
     |                   =====================                   |     
     |                           x T B                           |     
     |                   =====================                   |     
     |                         S. Grimme                         |     
     |          Mulliken Center for Theoretical Chemistry        |     
     |                    University of Bonn                     |     
     |                 Version 6.0.1 (SAW181210)                 |     
      -----------------------------------------------------------      

   This program is distributed in the hope that it will be useful,
   but WITHOUT ANY WARRANTY; without even the implied warranty of
   MERCHANTABILITY or FITNESS FOR A PARTICULAR PURPOSE.
   
   FOR NON-COMMERCIAL, ACADEMIA USE ONLY.
   
   Cite this work as:
   S. Grimme, C. Bannwarth, P. Shushkov, J. Comput. Theory Chem., 2017,
   13, 1989-2009.
   C. Bannwarth, S. Ehlert and S. Grimme., ChemRxiv, 2018, preprint.
   http://doi.org/10.26434/chemrxiv.7246238.v1
   
   for sTDA-xTB:
   S. Grimme and C. Bannwarth, J. Chem. Phys., 2016, 145, 054103.
   
   in the mass-spec context:
   V. Asgeirsson, C. Bauer and S. Grimme, Chem. Sci., 2017, 8, 4879.
   
   if GBSA is used:
   P. Shushkov, F. März and S. Grimme, unpublished.
   
   for ANC optimizer:
   S. Grimme, unpublished.
   Rational Function algorithm used in ANCopt:
   F. Eckert, P. Pulay, H.-J. Werner, J. Comput. Chem., 1997, 18, 1473.
   
   with help from (in alphabetical order)
   C. Bannwarth, F. Bohle, G. Brandenburg, E. Caldeweyher, M. Checinski,
   S. Dohm, S. Ehlert, S. Ehrlich, F. März, H. Neugebauer, J. Pisarek,
   P. Pracht, P. Shushkov, and S. Spicher.
   
 * started run on 2019/09/16 at 11:43:44.768     
========================================================================
 # omp threads = 1
========================================================================
number of atoms            : 26
number of electrons        : 80
charge                     : 0
spin                       : .0
first test random number   : .3313

########################################################################
# WARNING! Please study the warnings concerning your input carefully
#  - XTBPATH is not set, using XTBHOME instead
#  - the use of '-opt' is discouraged, please use '--opt' next time
#  - the use of '-chrg' is discouraged, please use '--chrg' next time
#  - the use of '-uhf' is discouraged, please use '--uhf' next time
########################################################################

           ------------------------------------------------- 
          |                 G F N 2 - x T B                 |
          | Geometry, Frequencies, Noncovalent interactions |
          |            JCTC 2018 parametrisation            |
           ------------------------------------------------- 
      method parameters     
 k(s)        :  1.8500
 k(p)        :  2.2300
 k(d)        :  2.2300
 k(f)        :  2.0000
 kEN (H0ij)  : -2.0000
 D4 a1       :  0.5200
 D4 a2       :  5.0000
 D4 s6       :  1.0000
 D4 s8       :  2.7000
 D4 s9       :  5.0000
 alphaj      :  2.0000


            Z     q(EN)     CN     RAES       Cart. coordinates
     1  S   6.0    0.61    4.54    4.62    -3.36721    -3.18137     0.04387
     2  O   6.0   -0.31    1.18    1.80    -2.71604    -2.41893     2.67499
     3  O   6.0   -0.27    1.12    1.80    -4.35554    -5.81790     0.04808
     4  O   6.0   -0.26    2.10    1.84    -1.09555    -3.04685    -1.54797
     5  O   6.0   -0.25    2.11    1.84    -5.30633    -1.46746    -0.96353
     6  H   1.0    0.16    1.26    1.48    -4.66766    -0.63274    -2.44218
     7  H   1.0    0.15    1.22    1.47     0.17172    -4.16619    -0.89057
     8  O   6.0   -0.40    1.64    1.81     2.77478     2.79592     2.01291
     9  H   1.0    0.18    0.94    1.42     4.05780     3.66520     3.05309
    10  O   6.0   -0.38    1.51    1.80    -2.39425     1.94650    -2.62569
    11  H   1.0    0.17    0.94    1.42    -3.24079     2.98087    -3.92845
    12  O   6.0   -0.29    2.03    1.83     4.56343    -2.24556    -2.32956
    13  H   1.0    0.15    0.97    1.43     6.05774    -3.24968    -2.60045
    14  H   1.0    0.16    1.04    1.43     4.25682    -2.31273    -0.53621
    15  O   6.0   -0.29    2.05    1.83     2.73935    -1.88909     2.31898
    16  H   1.0    0.16    0.98    1.43     1.37679    -2.27296     3.46384
    17  H   1.0    0.18    1.12    1.45     2.92279    -0.07873     2.37870
    18  O   6.0   -0.23    2.94    2.63     2.16089     2.10165    -2.42371
    19  H   1.0    0.16    1.19    1.46     0.31845     2.05685    -2.72908
    20  H   1.0    0.16    1.20    1.47     2.56850     2.61144    -0.67328
    21  H   1.0    0.14    1.03    1.43     2.98683     0.49264    -2.89321
    22  N   5.0   -0.15    3.98    2.82    -1.96250     2.82583     2.11789
    23  H   1.0    0.12    1.12    1.45    -2.39821     2.70176     0.22601
    24  H   1.0    0.12    1.16    1.46    -0.03889     3.02523     2.32859
    25  H   1.0    0.08    0.99    1.43    -2.86277     4.36738     2.89092
    26  H   1.0    0.11    1.03    1.43    -2.55015     1.20892     3.02604

  Z AO/shell   Hii/eV     exponent
  1     Wed Apr 25 08:07:45 CEST 2018   EN: 2.200 GM2: 0.406  GM3: 0.0800  RAES: 1.40
     1s    -10.707211    1.230000
  7     Wed Apr 25 08:07:45 CEST 2018   EN: 3.040 GM2: 0.461  GM3:-0.0640  RAES: 1.90
     2s    -16.686243    2.339881
     2p    -12.523956    2.014332
  8     Wed Apr 25 08:07:45 CEST 2018   EN: 3.440 GM2: 0.452  GM3:-0.0517  RAES: 1.80
     2s    -20.229985    2.439742
     2p    -15.503117    2.137023
 16     Tue Apr 24 11:44:34 CEST 2018   EN: 2.580 GM2: 0.340  GM3:-0.0502  RAES: 3.10
     3s    -20.029654    1.981333
     3p    -11.377694    2.025643
     3d     -0.420282    1.702555
 no old-style atom pair restraining (fixing) potential

molecular fragmentation (1/2 indicates fragments):
11111112222222222222222222
# atoms in fragment 1/2:     7    19
 fragment masses (1/2) :       98.07      107.11
CMA distance (Bohr)    :   6.219
constraining FC (au)   :  0.0500
           ------------------------------------------------- 
          |        Self-Consistent Charge Iterations        |
           ------------------------------------------------- 

 Ncao       : 65
 Nao        : 64
 Nshell     : 38
 Nel        : 80
 T(el)      :   300.0
 intcut     :    25.0
 scfconv/Eh :  0.100E-05
   qconv/e  :  0.100E-03
 intneglect :  0.100E-07
 broydamp   :      0.250
 iter      E             dE          RMSdq      gap      omega  full diag
   1    -50.5310449 -0.505310E+02  0.711E+00   10.61       0.0  T
   2    -50.5888707 -0.578258E-01  0.513E+00    9.69       1.0  T
   3    -50.6328496 -0.439788E-01  0.145E+00    7.33       1.0  T
   4    -50.6386986 -0.584898E-02  0.621E-01    7.56       1.0  T
   5    -50.6393590 -0.660387E-03  0.369E-01    7.48       1.0  T
   6    -50.6400211 -0.662176E-03  0.164E-01    7.57       1.0  T
   7    -50.6401995 -0.178350E-03  0.571E-02    7.58       1.0  T
   8    -50.6402145 -0.150515E-04  0.364E-02    7.57       1.0  T
   9    -50.6402218 -0.728296E-05  0.152E-02    7.58       1.3  T
  10    -50.6402234 -0.154720E-05  0.283E-03    7.59       6.9  T
  11    -50.6402234 -0.263438E-07  0.144E-03    7.59      13.6  T
  12    -50.6402234 -0.777543E-08  0.480E-04    7.59      40.8  T
  13    -50.6402234 -0.154537E-08  0.145E-04    7.59     135.3  T
speedup  1.01
cpu  time for SCC    0.01 s
wall time for SCC    0.01 s

   *** convergence criteria satisfied after 13 iterations ***

          eigenvalues
 #    :          28         29         30         31         32         33         34         35
 occ. :        2.000      2.000      2.000      2.000      2.000      2.000      2.000      2.000
 eps  :       -12.684    -12.521    -12.486    -12.328    -12.217    -12.098    -11.626    -11.311
 #    :          36         37         38         39         40         41         42         43
 occ. :        2.000      2.000      2.000      2.000      2.000      0.000      0.000      0.000
 eps  :       -11.281    -10.299    -10.046     -9.943     -9.905     -2.316     -1.168     -0.634
 #    :          44         45         46         47         48         49         50         51
 occ. :        0.000      0.000      0.000      0.000      0.000      0.000      0.000      0.000
 eps  :        -0.191      0.631      0.961      2.604      2.818      3.289      4.316      4.626


   #   Z            q   n(s)   n(p)   n(d)      C6AA      α(0)
   1  16 S      1.681  1.576  1.794  0.949    89.202    15.896
   2   8 O     -0.724  1.767  4.958  0.000    29.378     7.267
   3   8 O     -0.707  1.779  4.928  0.000    28.900     7.208
   4   8 O     -0.537  1.709  4.829  0.000    23.707     6.573
   5   8 O     -0.543  1.713  4.830  0.000    23.841     6.592
   6   1 H      0.405  0.595  0.000  0.000     0.468     1.071
   7   1 H      0.403  0.597  0.000  0.000     0.473     1.076
   8   8 O     -0.861  1.824  5.037  0.000    33.466     7.757
   9   1 H      0.199  0.801  0.000  0.000     1.124     1.665
  10   8 O     -0.883  1.839  5.044  0.000    34.216     7.843
  11   1 H      0.186  0.814  0.000  0.000     1.195     1.718
  12   8 O     -0.617  1.738  4.880  0.000    25.600     6.829
  13   1 H      0.283  0.717  0.000  0.000     0.774     1.382
  14   1 H      0.341  0.659  0.000  0.000     0.609     1.226
  15   8 O     -0.677  1.752  4.926  0.000    27.109     7.027
  16   1 H      0.285  0.715  0.000  0.000     0.767     1.376
  17   1 H      0.335  0.665  0.000  0.000     0.622     1.238
  18   8 O     -0.486  1.672  4.814  0.000    22.525     6.410
  19   1 H      0.390  0.610  0.000  0.000     0.497     1.104
  20   1 H      0.399  0.601  0.000  0.000     0.480     1.085
  21   1 H      0.381  0.619  0.000  0.000     0.521     1.134
  22   7 N     -0.327  1.269  4.058  0.000    28.392     7.914
  23   1 H      0.296  0.704  0.000  0.000     0.724     1.332
  24   1 H      0.309  0.691  0.000  0.000     0.684     1.295
  25   1 H      0.212  0.788  0.000  0.000     1.046     1.602
  26   1 H      0.257  0.743  0.000  0.000     0.858     1.451

 Mol. C6AA /au·bohr⁶  :       5508.853181
 Mol. C8AA /au·bohr⁸  :     119149.500316
 Mol. α(0) /au        :        107.070937

 
 Wiberg/Mayer (AO) data. WBOs > 0.1 written file <wbo>
 largest (>0.05) Wiberg bond orders for each atom
           total WBO             WBO to atom ...
     1  S   4.841    O    3 1.389    O    2 1.328    O    5 1.073    O    4 1.020
     2  O   1.698    S    1 1.328    O    3 0.133    O    4 0.087    O    5 0.080
     3  O   1.704    S    1 1.389    O    2 0.133    O    4 0.090    O    5 0.082
     4  O   2.057    S    1 1.020    H    7 0.806    O    3 0.090    O    2 0.087
     5  O   2.061    S    1 1.073    H    6 0.743    O    3 0.082    O    2 0.080
     6  H   0.836    O    5 0.743    O   10 0.069
     7  H   0.838    O    4 0.806
     8  O   1.578    H    9 0.942    H   20 0.181    H   24 0.154    H   17 0.118    N   22 0.066    O   18 0.057
     9  H   0.960    O    8 0.942
    10  O   1.524    H   11 0.958    H   19 0.194    H   23 0.136    H    6 0.069    O   18 0.064    N   22 0.063
    11  H   0.965    O   10 0.958
    12  O   1.850    H   13 0.909    H   14 0.833    H   21 0.057
    13  H   0.920    O   12 0.909
    14  H   0.884    O   12 0.833
    15  O   1.800    H   16 0.898    H   17 0.768
    16  H   0.919    O   15 0.898
    17  H   0.888    O   15 0.768    O    8 0.118
    18  O   2.254    H   21 0.790    H   20 0.654    H   19 0.649    O   10 0.064    O    8 0.057
    19  H   0.848    O   18 0.649    O   10 0.194
    20  H   0.841    O   18 0.654    O    8 0.181
    21  H   0.855    O   18 0.790    O   12 0.057
    22  N   3.525    H   25 0.950    H   26 0.896    H   23 0.771    H   24 0.746    O    8 0.066    O   10 0.063
    23  H   0.912    N   22 0.771    O   10 0.136
    24  H   0.904    N   22 0.746    O    8 0.154
    25  H   0.955    N   22 0.950
    26  H   0.934    N   22 0.896
 MOs/occ written to file <molden.input>
 
molecular dipole:
                 x           y           z       tot (Debye)
 q only:        0.731       1.519      -0.467
   full:        0.861       1.838      -0.491       5.308
molecular quadrupole (traceless):
                xx          xy          yy          xz          yz          zz
 q only:       -0.065     -20.334      -3.755      -4.703       9.736       3.820
  q+dip:        0.823     -24.040      -5.498      -0.075      12.504       4.675
   full:        1.124     -24.539      -5.785      -0.234      12.151       4.661

SCC energy    :     -50.6402234
rep           :       0.2946544
ES            :       0.3185565
AES           :      -0.0604315
AXC           :      -0.0080684
disp          :      -0.0199738
XB            :       0.0000000
fix           :       0.0000000
total E       :     -50.3452049
atomizationE  :       4.8755090     3059.43
(atE without considering molecular charge,
 total energy contains solvation terms)
H-L gap (eV)  :          7.5886
           ------------------------------------------------- 
          |                 ===============                 |
          |                   A N C O P T                   |
          |                 ===============                 |
          |          Approximate Normal Coordinate          |
          |           Rational Function Optimizer           |
           ------------------------------------------------- 
dumping coords to <xtbopt.coord> and <xtbopt.log>
 optlevel               2
 Maxcycle             520
 Maxmicro              25
 Econv         1.000000000000000E-007
 Gconv         2.000000000000000E-004
 Maxdispl       1.00000000000000     
 Hlow          5.000000000000000E-003
 S6             20.0000000000000     
 Nvar               72

generating ANC from model Hessian ...
 Shifting diagonal of input Hessian by   4.999684153862221E-003
 Lowest  eigenvalues of input Hessian
   -0.000000   -0.000000   -0.000000   -0.000000   -0.000000    0.000000
    0.005000    0.005344    0.005629    0.006176    0.006508    0.006863
    0.007285    0.007478    0.007939    0.008593    0.009574    0.010503
 Highest eigenvalues
    1.546177    1.574915    1.605317    3.208594    3.405121    3.457059
 
cpu  time for ANC gen    0.03 s
wall time for ANC gen    0.03 s
................................................................................
.............................. CYCLE    1 ......................................
................................................................................
   1    -50.6402234 -0.506402E+02  0.651E-05    7.59       0.0  T
   2    -50.6402234 -0.120224E-10  0.469E-05    7.59     418.0  T
   3    -50.6402234 -0.834888E-11  0.223E-05    7.59     880.2  T
speedup  1.03
cpu  time for SCC    0.00 s
wall time for SCC    0.00 s
speedup  1.03
cpu  time for grad    0.01 s
wall time for grad    0.01 s
 E :    -50.34520484  G :  0.247711    pred/act E change:  0.000D+00  0.306D-07
Maxdispl :   0.1007   ||displ|| :   0.3076   Lambda : -0.406D-01
Largest |displ|/coords:  0.1007 (   9)  0.0899 (  55)  0.0674 (  18)
................................................................................
.............................. CYCLE    2 ......................................
................................................................................
   1    -50.6508677 -0.506509E+02  0.381E-01    7.67       0.0  T
   2    -50.6513614 -0.493742E-03  0.284E-01    7.71       1.0  T
   3    -50.6515256 -0.164146E-03  0.148E-01    7.76       1.0  T
   4    -50.6515385 -0.129252E-04  0.301E-02    7.79       1.0  T
   5    -50.6515415 -0.294966E-05  0.887E-03    7.78       2.2  T
   6    -50.6515415 -0.905300E-07  0.342E-03    7.78       5.7  T
   7    -50.6515416 -0.257999E-07  0.146E-03    7.78      13.4  T
speedup  0.95
cpu  time for SCC    0.01 s
wall time for SCC    0.01 s
speedup  1.04
cpu  time for grad    0.01 s
wall time for grad    0.01 s
 E :    -50.37691573  G :  0.152080    pred/act E change:  0.000D+00 -0.317D-01
Maxdispl :   0.1866   ||displ|| :   0.3665   Lambda : -0.199D-01
Largest |displ|/coords:  0.1866 (   9)  0.1004 (  16)  0.0873 (  25)
................................................................................
.............................. CYCLE    3 ......................................
................................................................................
   1    -50.6575728 -0.506576E+02  0.372E-01    7.78       0.0  T
   2    -50.6580290 -0.456186E-03  0.275E-01    7.84       1.0  T
   3    -50.6581802 -0.151188E-03  0.128E-01    7.93       1.0  T
   4    -50.6581925 -0.123271E-04  0.303E-02    7.95       1.0  T
   5    -50.6581952 -0.267683E-05  0.722E-03    7.94       2.7  T
   6    -50.6581953 -0.688259E-07  0.325E-03    7.94       6.0  T
   7    -50.6581953 -0.198861E-07  0.139E-03    7.94      14.1  T
speedup  0.92
cpu  time for SCC    0.01 s
wall time for SCC    0.01 s
speedup  0.90
cpu  time for grad    0.01 s
wall time for grad    0.01 s
 E :    -50.39350486  G :  0.095497    pred/act E change: -0.222D-01 -0.166D-01
Maxdispl :   0.2473   ||displ|| :   0.3982   Lambda : -0.125D-01
Largest |displ|/coords:  0.2473 (   9)  0.1182 (  16)  0.1002 (  25)
................................................................................
.............................. CYCLE    4 ......................................
................................................................................
   1    -50.6635847 -0.506636E+02  0.312E-01    7.92       0.0  T
   2    -50.6639629 -0.378216E-03  0.229E-01    7.98       1.0  T
   3    -50.6640928 -0.129952E-03  0.108E-01    8.08       1.0  T
   4    -50.6641022 -0.936532E-05  0.281E-02    8.10       1.0  T
   5    -50.6641038 -0.160946E-05  0.644E-03    8.09       3.0  T
   6    -50.6641039 -0.719470E-07  0.341E-03    8.09       5.7  T
   7    -50.6641039 -0.197658E-07  0.145E-03    8.09      13.6  T
speedup  0.95
cpu  time for SCC    0.01 s
wall time for SCC    0.01 s
speedup  0.97
cpu  time for grad    0.01 s
wall time for grad    0.01 s
 E :    -50.40399127  G :  0.055103    pred/act E change: -0.113D-01 -0.105D-01
Maxdispl :   0.2357   ||displ|| :   0.4183   Lambda : -0.779D-02
Largest |displ|/coords:  0.2357 (   9)  0.1511 (  16)  0.1007 (  11)
................................................................................
.............................. CYCLE    5 ......................................
................................................................................
   1    -50.6644652 -0.506645E+02  0.317E-01    7.98       0.0  T
   2    -50.6647284 -0.263205E-03  0.235E-01    8.05       1.0  T
   3    -50.6648206 -0.921529E-04  0.951E-02    8.15       1.0  T
   4    -50.6648346 -0.140677E-04  0.275E-02    8.17       1.0  T
   5    -50.6648363 -0.165030E-05  0.645E-03    8.16       3.0  T
   6    -50.6648364 -0.750471E-07  0.364E-03    8.16       5.4  T
   7    -50.6648364 -0.237867E-07  0.151E-03    8.15      13.0  T
speedup  1.06
cpu  time for SCC    0.01 s
wall time for SCC    0.01 s
speedup  1.01
cpu  time for grad    0.01 s
wall time for grad    0.01 s
 E :    -50.41019076  G :  0.040208    pred/act E change: -0.724D-02 -0.620D-02
Maxdispl :   0.2114   ||displ|| :   0.5467   Lambda : -0.946D-02
Largest |displ|/coords:  0.2114 (   9)  0.2069 (  16)  0.1455 (  35)
................................................................................
.............................. CYCLE    6 ......................................
................................................................................
   1    -50.6729863 -0.506730E+02  0.506E-01    8.07       0.0  T
   2    -50.6738133 -0.827016E-03  0.374E-01    8.18       1.0  T
   3    -50.6741209 -0.307576E-03  0.162E-01    8.38       1.0  T
   4    -50.6741591 -0.381863E-04  0.498E-02    8.41       1.0  T
   5    -50.6741636 -0.452626E-05  0.114E-02    8.41       1.7  T
   6    -50.6741638 -0.199486E-06  0.693E-03    8.40       2.8  T
   7    -50.6741639 -0.905814E-07  0.246E-03    8.40       8.0  T
   8    -50.6741639 -0.108504E-07  0.731E-04    8.40      26.8  T
speedup  0.99
cpu  time for SCC    0.01 s
wall time for SCC    0.01 s
speedup  0.98
cpu  time for grad    0.01 s
wall time for grad    0.02 s
 E :    -50.41271320  G :  0.068128    pred/act E change: -0.458D-02 -0.252D-02
Maxdispl :   0.1831   ||displ|| :   0.4265   Lambda : -0.945D-02
Largest |displ|/coords:  0.1831 (   1)  0.1536 (  18)  0.1404 (  10)
................................................................................
.............................. CYCLE    7 ......................................
................................................................................
   1    -50.6617919 -0.506618E+02  0.552E-01    8.22       0.0  T
   2    -50.6621302 -0.338284E-03  0.411E-01    8.19       1.0  T
   3    -50.6622758 -0.145598E-03  0.101E-01    8.11       1.0  T
   4    -50.6623194 -0.436330E-04  0.326E-02    8.11       1.0  T
   5    -50.6623227 -0.323627E-05  0.867E-03    8.11       2.3  T
   6    -50.6623228 -0.736549E-07  0.515E-03    8.11       3.8  T
   7    -50.6623228 -0.427602E-07  0.122E-03    8.11      16.1  T
speedup  0.91
cpu  time for SCC    0.01 s
wall time for SCC    0.01 s
speedup  0.95
cpu  time for grad    0.01 s
wall time for grad    0.01 s
 E :    -50.41418969  G :  0.062023    pred/act E change: -0.614D-02 -0.148D-02
Maxdispl :   0.1466   ||displ|| :   0.4244   Lambda : -0.110D-01
Largest |displ|/coords:  0.1466 (  10)  0.1405 (  12)  0.1239 (   7)
................................................................................
.............................. CYCLE    8 ......................................
................................................................................
   1    -50.6749320 -0.506749E+02  0.550E-01    8.23       0.0  T
   2    -50.6752695 -0.337565E-03  0.410E-01    8.30       1.0  T
   3    -50.6754300 -0.160481E-03  0.106E-01    8.45       1.0  T
   4    -50.6754707 -0.407091E-04  0.351E-02    8.44       1.0  T
   5    -50.6754737 -0.301191E-05  0.916E-03    8.44       2.1  T
   6    -50.6754738 -0.701639E-07  0.567E-03    8.43       3.5  T
   7    -50.6754739 -0.556418E-07  0.131E-03    8.43      15.0  T
speedup  1.11
cpu  time for SCC    0.01 s
wall time for SCC    0.01 s
speedup  1.03
cpu  time for grad    0.01 s
wall time for grad    0.01 s
 E :    -50.41623309  G :  0.058750    pred/act E change: -0.558D-02 -0.204D-02
Maxdispl :   0.1258   ||displ|| :   0.2892   Lambda : -0.526D-02
Largest |displ|/coords:  0.1258 (  15)  0.0968 (   1)  0.0851 (   9)
................................................................................
.............................. CYCLE    9 ......................................
................................................................................
   1    -50.6723452 -0.506723E+02  0.350E-01    8.38       0.0  T
   2    -50.6723956 -0.504407E-04  0.263E-01    8.39       1.0  T
   3    -50.6724333 -0.377042E-04  0.384E-02    8.43       1.0  T
   4    -50.6724407 -0.735370E-05  0.112E-02    8.42       1.8  T
   5    -50.6724409 -0.208724E-06  0.458E-03    8.42       4.3  T
   6    -50.6724409 -0.245361E-07  0.205E-03    8.42       9.6  T
speedup  0.91
cpu  time for SCC    0.01 s
wall time for SCC    0.01 s
speedup  1.01
cpu  time for grad    0.01 s
wall time for grad    0.01 s
 E :    -50.41961989  G :  0.042455    pred/act E change: -0.651D-02 -0.339D-02
Maxdispl :   0.1608   ||displ|| :   0.3599   Lambda : -0.337D-02
Largest |displ|/coords:  0.1608 (  15)  0.1286 (  16)  0.1178 (   1)
................................................................................
.............................. CYCLE   10 ......................................
................................................................................
   1    -50.6686180 -0.506686E+02  0.311E-01    8.38       0.0  T
   2    -50.6687010 -0.830934E-04  0.235E-01    8.44       1.0  T
   3    -50.6687528 -0.517181E-04  0.524E-02    8.59       1.0  T
   4    -50.6687649 -0.121420E-04  0.161E-02    8.57       1.2  T
   5    -50.6687656 -0.659154E-06  0.609E-03    8.56       3.2  T
   6    -50.6687656 -0.449280E-07  0.364E-03    8.56       5.4  T
   7    -50.6687656 -0.194174E-07  0.794E-04    8.56      24.7  T
speedup  1.11
cpu  time for SCC    0.01 s
wall time for SCC    0.01 s
speedup  1.03
cpu  time for grad    0.01 s
wall time for grad    0.01 s
 E :    -50.42237985  G :  0.056645    pred/act E change: -0.285D-02 -0.276D-02
Maxdispl :   0.1291   ||displ|| :   0.2880   Lambda : -0.398D-02
Largest |displ|/coords:  0.1291 (  16)  0.1269 (  15)  0.0831 (   4)
................................................................................
.............................. CYCLE   11 ......................................
................................................................................
   1    -50.6779384 -0.506779E+02  0.234E-01    8.61       0.0  T
   2    -50.6780575 -0.119044E-03  0.175E-01    8.65       1.0  T
   3    -50.6781197 -0.622228E-04  0.624E-02    8.70       1.0  T
   4    -50.6781300 -0.102962E-04  0.200E-02    8.70       1.0  T
   5    -50.6781311 -0.105301E-05  0.553E-03    8.70       3.5  T
   6    -50.6781311 -0.322884E-07  0.318E-03    8.70       6.2  T
speedup  0.91
cpu  time for SCC    0.00 s
wall time for SCC    0.01 s
speedup  0.94
cpu  time for grad    0.01 s
wall time for grad    0.01 s
 E :    -50.42571472  G :  0.061416    pred/act E change: -0.190D-02 -0.333D-02
Maxdispl :   0.1455   ||displ|| :   0.2659   Lambda : -0.484D-02
Largest |displ|/coords:  0.1455 (   2)  0.0748 (  26)  0.0711 (  16)
................................................................................
.............................. CYCLE   12 ......................................
................................................................................
   1    -50.6832313 -0.506832E+02  0.216E-01    8.73       0.0  T
   2    -50.6832890 -0.577390E-04  0.162E-01    8.73       1.0  T
   3    -50.6833277 -0.386526E-04  0.413E-02    8.73       1.0  T
   4    -50.6833351 -0.736175E-05  0.119E-02    8.73       1.6  T
   5    -50.6833354 -0.336887E-06  0.509E-03    8.73       3.9  T
   6    -50.6833354 -0.264787E-07  0.273E-03    8.73       7.2  T
speedup  1.09
cpu  time for SCC    0.01 s
wall time for SCC    0.01 s
speedup  1.02
cpu  time for grad    0.01 s
wall time for grad    0.01 s
 E :    -50.43014776  G :  0.055597    pred/act E change: -0.215D-02 -0.443D-02
Maxdispl :   0.1098   ||displ|| :   0.3083   Lambda : -0.596D-02
Largest |displ|/coords:  0.1098 (  16)  0.1013 (  15)  0.0871 (   2)
................................................................................
.............................. CYCLE   13 ......................................
................................................................................
   1    -50.6963968 -0.506964E+02  0.248E-01    8.73       0.0  T
   2    -50.6965339 -0.137186E-03  0.186E-01    8.73       1.0  T
   3    -50.6966211 -0.871373E-04  0.631E-02    8.73       1.0  T
   4    -50.6966351 -0.139791E-04  0.194E-02    8.73       1.0  T
   5    -50.6966359 -0.810928E-06  0.762E-03    8.73       2.6  T
   6    -50.6966359 -0.597411E-07  0.374E-03    8.73       5.2  T
   7    -50.6966359 -0.123143E-07  0.909E-04    8.73      21.6  T
speedup  0.95
cpu  time for SCC    0.01 s
wall time for SCC    0.01 s
speedup  1.01
cpu  time for grad    0.01 s
wall time for grad    0.01 s
 E :    -50.43552042  G :  0.056123    pred/act E change: -0.259D-02 -0.537D-02
Maxdispl :   0.1098   ||displ|| :   0.2873   Lambda : -0.634D-02
Largest |displ|/coords:  0.1098 (   2)  0.0736 (  69)  0.0729 (  49)
................................................................................
.............................. CYCLE   14 ......................................
................................................................................
   1    -50.7101542 -0.507102E+02  0.210E-01    8.75       0.0  T
   2    -50.7102153 -0.610035E-04  0.156E-01    8.74       1.0  T
   3    -50.7102519 -0.366174E-04  0.402E-02    8.73       1.0  T
   4    -50.7102596 -0.772784E-05  0.132E-02    8.73       1.5  T
   5    -50.7102599 -0.296926E-06  0.507E-03    8.73       3.9  T
   6    -50.7102599 -0.246910E-07  0.218E-03    8.73       9.0  T
speedup  0.93
cpu  time for SCC    0.01 s
wall time for SCC    0.01 s
speedup  0.96
cpu  time for grad    0.01 s
wall time for grad    0.01 s
 E :    -50.44070402  G :  0.042026    pred/act E change: -0.326D-02 -0.518D-02
Maxdispl :   0.1859   ||displ|| :   0.5831   Lambda : -0.117D-01
Largest |displ|/coords:  0.1859 (   2)  0.1851 (  24)  0.1737 (  49)
................................................................................
.............................. CYCLE   15 ......................................
................................................................................
   1    -50.7483290 -0.507483E+02  0.495E-01    8.79       0.0  T
   2    -50.7486983 -0.369383E-03  0.368E-01    8.78       1.0  T
   3    -50.7489632 -0.264831E-03  0.105E-01    8.75       1.0  T
   4    -50.7490025 -0.392782E-04  0.296E-02    8.76       1.0  T
   5    -50.7490035 -0.100517E-05  0.124E-02    8.75       1.6  T
   6    -50.7490036 -0.132105E-06  0.522E-03    8.76       3.8  T
   7    -50.7490036 -0.331091E-07  0.137E-03    8.76      14.3  T
speedup  0.95
cpu  time for SCC    0.01 s
wall time for SCC    0.01 s
speedup  1.03
cpu  time for grad    0.01 s
wall time for grad    0.01 s
 E :    -50.43916210  G :  0.114053    pred/act E change: -0.343D-02  0.154D-02
Maxdispl :   0.1537   ||displ|| :   0.4739   Lambda : -0.416D-01
Largest |displ|/coords:  0.1537 (  16)  0.1481 (  20)  0.1246 (  38)
................................................................................
.............................. CYCLE   16 ......................................
................................................................................
   1    -50.7016431 -0.507016E+02  0.547E-01    8.64       0.0  T
   2    -50.7023024 -0.659344E-03  0.405E-01    8.69       1.0  T
   3    -50.7027521 -0.449627E-03  0.144E-01    8.76       1.0  T
   4    -50.7028027 -0.506650E-04  0.538E-02    8.76       1.0  T
   5    -50.7028084 -0.564257E-05  0.156E-02    8.76       1.3  T
   6    -50.7028087 -0.370816E-06  0.882E-03    8.76       2.2  T
   7    -50.7028088 -0.747331E-07  0.228E-03    8.76       8.6  T
   8    -50.7028088 -0.169231E-07  0.725E-04    8.76      27.0  T
speedup  0.96
cpu  time for SCC    0.01 s
wall time for SCC    0.01 s
speedup  0.97
cpu  time for grad    0.01 s
wall time for grad    0.02 s
 E :    -50.43716242  G :  0.081387    pred/act E change: -0.785D-02  0.200D-02
Maxdispl :   0.1041   ||displ|| :   0.3386   Lambda : -0.210D-01
Largest |displ|/coords:  0.1041 (  20)  0.1027 (  27)  0.0957 (  31)
................................................................................
.............................. CYCLE   17 ......................................
................................................................................
   1    -50.7400695 -0.507401E+02  0.407E-01    8.95       0.0  T
   2    -50.7403090 -0.239462E-03  0.305E-01    8.93       1.0  T
   3    -50.7404690 -0.160070E-03  0.942E-02    8.89       1.0  T
   4    -50.7404907 -0.216263E-04  0.323E-02    8.90       1.0  T
   5    -50.7404922 -0.157330E-05  0.906E-03    8.90       2.2  T
   6    -50.7404923 -0.811706E-07  0.486E-03    8.90       4.0  T
   7    -50.7404923 -0.384888E-07  0.139E-03    8.90      14.1  T
speedup  0.95
cpu  time for SCC    0.01 s
wall time for SCC    0.01 s
speedup  0.97
cpu  time for grad    0.01 s
wall time for grad    0.01 s
 E :    -50.44585521  G :  0.073732    pred/act E change: -0.255D-01 -0.869D-02
Maxdispl :   0.2030   ||displ|| :   0.4087   Lambda : -0.130D-01
Largest |displ|/coords:  0.2030 (  24)  0.1248 (  23)  0.1150 (  16)
................................................................................
.............................. CYCLE   18 ......................................
................................................................................
   1    -50.7187685 -0.507188E+02  0.460E-01    8.83       0.0  T
   2    -50.7192330 -0.464486E-03  0.329E-01    8.82       1.0  T
   3    -50.7194865 -0.253499E-03  0.114E-01    8.81       1.0  T
   4    -50.7195214 -0.348810E-04  0.308E-02    8.81       1.0  T
   5    -50.7195233 -0.192267E-05  0.111E-02    8.81       1.8  T
   6    -50.7195236 -0.324890E-06  0.644E-03    8.81       3.0  T
   7    -50.7195237 -0.430855E-07  0.117E-03    8.81      16.8  T
   8    -50.7195237 -0.347226E-08  0.303E-04    8.81      64.7  T
speedup  0.97
cpu  time for SCC    0.01 s
wall time for SCC    0.01 s
speedup  0.97
cpu  time for grad    0.01 s
wall time for grad    0.02 s
 E :    -50.44362623  G :  0.088583    pred/act E change: -0.117D-01  0.223D-02
Maxdispl :   0.1683   ||displ|| :   0.3593   Lambda : -0.183D-01
Largest |displ|/coords:  0.1683 (  24)  0.1669 (  23)  0.1247 (  17)
................................................................................
.............................. CYCLE   19 ......................................
................................................................................
   1    -50.7446060 -0.507446E+02  0.441E-01    8.86       0.0  T
   2    -50.7449644 -0.358399E-03  0.320E-01    8.87       1.0  T
   3    -50.7452094 -0.245003E-03  0.979E-02    8.89       1.0  T
   4    -50.7452364 -0.270539E-04  0.248E-02    8.88       1.0  T
   5    -50.7452375 -0.109569E-05  0.108E-02    8.89       1.8  T
   6    -50.7452376 -0.496597E-07  0.476E-03    8.89       4.1  T
   7    -50.7452376 -0.761986E-07  0.104E-03    8.89      18.8  T
speedup  0.95
cpu  time for SCC    0.01 s
wall time for SCC    0.01 s
speedup  1.03
cpu  time for grad    0.01 s
wall time for grad    0.01 s
 E :    -50.44717077  G :  0.078028    pred/act E change: -0.761D-02 -0.354D-02
Maxdispl :   0.1015   ||displ|| :   0.2490   Lambda : -0.961D-02
Largest |displ|/coords:  0.1015 (   2)  0.0949 (  24)  0.0735 (  26)
................................................................................
.............................. CYCLE   20 ......................................
................................................................................
   1    -50.7280206 -0.507280E+02  0.295E-01    8.90       0.0  T
   2    -50.7281987 -0.178038E-03  0.210E-01    8.89       1.0  T
   3    -50.7283009 -0.102266E-03  0.681E-02    8.87       1.0  T
   4    -50.7283134 -0.124911E-04  0.181E-02    8.88       1.1  T
   5    -50.7283140 -0.594428E-06  0.640E-03    8.88       3.1  T
   6    -50.7283141 -0.102952E-06  0.364E-03    8.88       5.4  T
   7    -50.7283142 -0.149050E-07  0.784E-04    8.88      25.0  T
speedup  1.09
cpu  time for SCC    0.01 s
wall time for SCC    0.01 s
speedup  1.03
cpu  time for grad    0.01 s
wall time for grad    0.01 s
 E :    -50.44900067  G :  0.047918    pred/act E change: -0.103D-01 -0.183D-02
Maxdispl :   0.0631   ||displ|| :   0.1717   Lambda : -0.288D-02
Largest |displ|/coords:  0.0631 (   5)  0.0605 (   2)  0.0591 (   3)
................................................................................
.............................. CYCLE   21 ......................................
................................................................................
   1    -50.7365682 -0.507366E+02  0.156E-01    8.88       0.0  T
   2    -50.7365936 -0.253971E-04  0.115E-01    8.88       1.0  T
   3    -50.7366116 -0.179563E-04  0.289E-02    8.88       1.0  T
   4    -50.7366141 -0.251991E-05  0.757E-03    8.88       2.6  T
   5    -50.7366142 -0.989483E-07  0.317E-03    8.88       6.2  T
   6    -50.7366142 -0.854595E-08  0.156E-03    8.88      12.6  T
speedup  0.91
cpu  time for SCC    0.00 s
wall time for SCC    0.01 s
speedup  0.88
cpu  time for grad    0.01 s
wall time for grad    0.01 s
 E :    -50.45056468  G :  0.023888    pred/act E change: -0.510D-02 -0.156D-02
Maxdispl :   0.0679   ||displ|| :   0.1668   Lambda : -0.147D-02
Largest |displ|/coords:  0.0679 (  15)  0.0522 (   3)  0.0499 (  17)
................................................................................
.............................. CYCLE   22 ......................................
................................................................................
   1    -50.7427224 -0.507427E+02  0.120E-01    8.90       0.0  T
   2    -50.7427411 -0.186312E-04  0.890E-02    8.90       1.0  T
   3    -50.7427553 -0.142639E-04  0.237E-02    8.90       1.0  T
   4    -50.7427572 -0.184072E-05  0.730E-03    8.90       2.7  T
   5    -50.7427572 -0.822431E-07  0.265E-03    8.90       7.4  T
   6    -50.7427573 -0.789985E-08  0.131E-03    8.90      14.9  T
speedup  0.91
cpu  time for SCC    0.00 s
wall time for SCC    0.01 s
speedup  0.96
cpu  time for grad    0.01 s
wall time for grad    0.01 s
 E :    -50.45100153  G :  0.027870    pred/act E change: -0.148D-02 -0.437D-03
Maxdispl :   0.0673   ||displ|| :   0.1543   Lambda : -0.110D-02
Largest |displ|/coords:  0.0673 (   3)  0.0546 (   1)  0.0515 (   9)
................................................................................
.............................. CYCLE   23 ......................................
................................................................................
   1    -50.7395614 -0.507396E+02  0.109E-01    8.90       0.0  T
   2    -50.7395689 -0.752814E-05  0.810E-02    8.89       1.0  T
   3    -50.7395736 -0.465455E-05  0.189E-02    8.89       1.0  T
   4    -50.7395745 -0.879698E-06  0.619E-03    8.89       3.2  T
   5    -50.7395745 -0.647707E-07  0.164E-03    8.89      12.0  T
   6    -50.7395745 -0.302846E-08  0.992E-04    8.89      19.8  T
speedup  0.93
cpu  time for SCC    0.01 s
wall time for SCC    0.01 s
speedup  1.04
cpu  time for grad    0.01 s
wall time for grad    0.01 s
 E :    -50.45179738  G :  0.019418    pred/act E change: -0.753D-03 -0.796D-03
Maxdispl :   0.2338   ||displ|| :   0.4571   Lambda : -0.247D-02
Largest |displ|/coords:  0.2338 (   3)  0.1610 (   5)  0.1211 (   6)
................................................................................
.............................. CYCLE   24 ......................................
................................................................................
   1    -50.7381794 -0.507382E+02  0.297E-01    8.89       0.0  T
   2    -50.7382418 -0.624074E-04  0.217E-01    8.89       1.0  T
   3    -50.7382784 -0.366511E-04  0.500E-02    8.88       1.0  T
   4    -50.7382852 -0.675848E-05  0.140E-02    8.89       1.4  T
   5    -50.7382856 -0.392541E-06  0.489E-03    8.89       4.0  T
   6    -50.7382856 -0.317163E-07  0.281E-03    8.89       7.0  T
   7    -50.7382856 -0.143712E-07  0.725E-04    8.89      27.0  T
speedup  0.97
cpu  time for SCC    0.01 s
wall time for SCC    0.01 s
speedup  1.05
cpu  time for grad    0.01 s
wall time for grad    0.01 s
 E :    -50.45256272  G :  0.032382    pred/act E change: -0.562D-03 -0.765D-03
Maxdispl :   0.1172   ||displ|| :   0.2523   Lambda : -0.166D-02
Largest |displ|/coords:  0.1172 (   3)  0.1090 (   7)  0.0810 (   5)
................................................................................
.............................. CYCLE   25 ......................................
................................................................................
   1    -50.7399570 -0.507400E+02  0.127E-01    8.89       0.0  T
   2    -50.7399668 -0.980736E-05  0.919E-02    8.89       1.0  T
   3    -50.7399736 -0.681929E-05  0.226E-02    8.88       1.0  T
   4    -50.7399745 -0.937618E-06  0.721E-03    8.88       2.7  T
   5    -50.7399746 -0.746989E-07  0.185E-03    8.88      10.6  T
   6    -50.7399746 -0.442652E-08  0.109E-03    8.88      18.0  T
speedup  1.07
cpu  time for SCC    0.01 s
wall time for SCC    0.01 s
speedup  1.02
cpu  time for grad    0.01 s
wall time for grad    0.01 s
 E :    -50.45351897  G :  0.018625    pred/act E change: -0.149D-02 -0.956D-03
Maxdispl :   0.1731   ||displ|| :   0.2945   Lambda : -0.112D-02
Largest |displ|/coords:  0.1731 (   3)  0.1022 (   7)  0.0753 (  19)

generating ANC from model Hessian ...
 Shifting diagonal of input Hessian by   4.534989976209174E-003
 Lowest  eigenvalues of input Hessian
    0.000000    0.000000    0.000000    0.000000    0.000000    0.000000
    0.005000    0.005276    0.005854    0.006130    0.006338    0.006444
    0.007205    0.008223    0.008274    0.009187    0.009682    0.010049
 Highest eigenvalues
    1.402601    1.408216    1.453679    2.439439    3.314309    3.797919
 
cpu  time for ANC gen    0.03 s
wall time for ANC gen    0.03 s
................................................................................
.............................. CYCLE   26 ......................................
................................................................................
   1    -50.7385203 -0.507385E+02  0.159E-01    8.87       0.0  T
   2    -50.7385314 -0.111562E-04  0.118E-01    8.87       1.0  T
   3    -50.7385405 -0.903458E-05  0.207E-02    8.88       1.0  T
   4    -50.7385417 -0.125152E-05  0.598E-03    8.88       3.3  T
   5    -50.7385418 -0.494395E-07  0.241E-03    8.88       8.1  T
   6    -50.7385418 -0.734378E-08  0.126E-03    8.88      15.6  T
   7    -50.7385418 -0.298864E-08  0.311E-04    8.88      63.1  T
   8    -50.7385418 -0.187526E-09  0.614E-05    8.88     319.5  T
speedup  0.99
cpu  time for SCC    0.01 s
wall time for SCC    0.01 s
speedup  1.01
cpu  time for grad    0.02 s
wall time for grad    0.02 s
 E :    -50.45402659  G :  0.018768    pred/act E change:  0.000D+00 -0.508D-03
Maxdispl :   0.1295   ||displ|| :   0.2516   Lambda : -0.107D-02
Largest |displ|/coords:  0.1295 (   5)  0.0972 (   3)  0.0700 (  13)
................................................................................
.............................. CYCLE   27 ......................................
................................................................................
   1    -50.7419532 -0.507420E+02  0.167E-01    8.92       0.0  T
   2    -50.7419601 -0.687062E-05  0.125E-01    8.92       1.0  T
   3    -50.7419678 -0.773574E-05  0.187E-02    8.91       1.0  T
   4    -50.7419684 -0.583920E-06  0.522E-03    8.92       3.8  T
   5    -50.7419684 -0.439350E-07  0.213E-03    8.92       9.2  T
   6    -50.7419684 -0.542889E-08  0.113E-03    8.92      17.3  T
speedup  1.09
cpu  time for SCC    0.01 s
wall time for SCC    0.01 s
speedup  1.04
cpu  time for grad    0.01 s
wall time for grad    0.01 s
 E :    -50.45479318  G :  0.008408    pred/act E change:  0.000D+00 -0.767D-03
Maxdispl :   0.2066   ||displ|| :   0.5002   Lambda : -0.135D-02
Largest |displ|/coords:  0.2066 (   6)  0.1707 (   4)  0.1592 (   1)
................................................................................
.............................. CYCLE   28 ......................................
................................................................................
   1    -50.7455377 -0.507455E+02  0.260E-01    8.95       0.0  T
   2    -50.7455528 -0.150495E-04  0.193E-01    8.95       1.0  T
   3    -50.7455672 -0.144604E-04  0.333E-02    8.94       1.0  T
   4    -50.7455685 -0.127711E-05  0.737E-03    8.95       2.7  T
   5    -50.7455686 -0.992732E-07  0.287E-03    8.95       6.8  T
   6    -50.7455686 -0.102150E-07  0.167E-03    8.95      11.7  T
speedup  1.11
cpu  time for SCC    0.01 s
wall time for SCC    0.01 s
speedup  1.02
cpu  time for grad    0.01 s
wall time for grad    0.01 s
 E :    -50.45541086  G :  0.015050    pred/act E change: -0.568D-03 -0.618D-03
Maxdispl :   0.1953   ||displ|| :   0.3898   Lambda : -0.879D-03
Largest |displ|/coords:  0.1953 (   3)  0.1799 (   5)  0.1308 (   1)
................................................................................
.............................. CYCLE   29 ......................................
................................................................................
   1    -50.7438177 -0.507438E+02  0.206E-01    8.93       0.0  T
   2    -50.7438251 -0.740237E-05  0.153E-01    8.93       1.0  T
   3    -50.7438326 -0.749049E-05  0.223E-02    8.93       1.0  T
   4    -50.7438332 -0.656423E-06  0.685E-03    8.93       2.9  T
   5    -50.7438333 -0.715780E-07  0.234E-03    8.93       8.4  T
   6    -50.7438333 -0.606610E-08  0.143E-03    8.93      13.7  T
speedup  0.93
cpu  time for SCC    0.00 s
wall time for SCC    0.01 s
speedup  0.96
cpu  time for grad    0.01 s
wall time for grad    0.01 s
 E :    -50.45596096  G :  0.012463    pred/act E change: -0.846D-03 -0.550D-03
Maxdispl :   0.1253   ||displ|| :   0.2759   Lambda : -0.453D-03
Largest |displ|/coords:  0.1253 (   9)  0.1052 (   2)  0.1052 (   5)
................................................................................
.............................. CYCLE   30 ......................................
................................................................................
   1    -50.7429743 -0.507430E+02  0.129E-01    8.91       0.0  T
   2    -50.7429783 -0.397523E-05  0.952E-02    8.91       1.0  T
   3    -50.7429815 -0.323773E-05  0.151E-02    8.91       1.3  T
   4    -50.7429819 -0.403391E-06  0.517E-03    8.91       3.8  T
   5    -50.7429819 -0.356866E-07  0.135E-03    8.91      14.5  T
   6    -50.7429819 -0.248412E-08  0.853E-04    8.91      23.0  T
speedup  0.94
cpu  time for SCC    0.00 s
wall time for SCC    0.01 s
speedup  1.02
cpu  time for grad    0.01 s
wall time for grad    0.01 s
 E :    -50.45623739  G :  0.006631    pred/act E change: -0.507D-03 -0.276D-03
Maxdispl :   0.1178   ||displ|| :   0.2281   Lambda : -0.266D-03
Largest |displ|/coords:  0.1178 (   2)  0.0761 (   6)  0.0691 (  10)
................................................................................
.............................. CYCLE   31 ......................................
................................................................................
   1    -50.7432756 -0.507433E+02  0.107E-01    8.92       0.0  T
   2    -50.7432775 -0.188113E-05  0.801E-02    8.92       1.0  T
   3    -50.7432790 -0.151562E-05  0.102E-02    8.92       1.9  T
   4    -50.7432792 -0.202698E-06  0.376E-03    8.92       5.2  T
   5    -50.7432792 -0.153213E-07  0.906E-04    8.92      21.6  T
   6    -50.7432792 -0.739703E-09  0.579E-04    8.92      33.9  T
speedup  1.11
cpu  time for SCC    0.01 s
wall time for SCC    0.01 s
speedup  1.03
cpu  time for grad    0.01 s
wall time for grad    0.01 s
 E :    -50.45639710  G :  0.005941    pred/act E change: -0.244D-03 -0.160D-03
Maxdispl :   0.1094   ||displ|| :   0.2136   Lambda : -0.203D-03
Largest |displ|/coords:  0.1094 (   2)  0.0950 (  12)  0.0705 (   6)
................................................................................
.............................. CYCLE   32 ......................................
................................................................................
   1    -50.7438968 -0.507439E+02  0.132E-01    8.95       0.0  T
   2    -50.7438993 -0.255398E-05  0.997E-02    8.95       1.0  T
   3    -50.7439024 -0.304897E-05  0.980E-03    8.95       2.0  T
   4    -50.7439025 -0.156637E-06  0.314E-03    8.95       6.2  T
   5    -50.7439025 -0.107850E-07  0.118E-03    8.95      16.6  T
   6    -50.7439025 -0.122103E-08  0.590E-04    8.95      33.3  T
speedup  1.11
cpu  time for SCC    0.01 s
wall time for SCC    0.01 s
speedup  1.03
cpu  time for grad    0.01 s
wall time for grad    0.01 s
 E :    -50.45646223  G :  0.008736    pred/act E change: -0.140D-03 -0.651D-04
Maxdispl :   0.0734   ||displ|| :   0.1292   Lambda : -0.173D-03
Largest |displ|/coords:  0.0734 (   2)  0.0574 (   5)  0.0553 (   8)
................................................................................
.............................. CYCLE   33 ......................................
................................................................................
   1    -50.7437870 -0.507438E+02  0.834E-02    8.96       0.0  T
   2    -50.7437880 -0.961047E-06  0.626E-02    8.96       1.0  T
   3    -50.7437887 -0.769431E-06  0.656E-03    8.96       3.0  T
   4    -50.7437889 -0.125043E-06  0.211E-03    8.96       9.3  T
   5    -50.7437889 -0.481923E-08  0.674E-04    8.96      29.1  T
speedup  0.87
cpu  time for SCC    0.00 s
wall time for SCC    0.00 s
speedup  0.94
cpu  time for grad    0.01 s
wall time for grad    0.01 s
 E :    -50.45657926  G :  0.007407    pred/act E change: -0.106D-03 -0.117D-03
Maxdispl :   0.0858   ||displ|| :   0.1298   Lambda : -0.192D-03
Largest |displ|/coords:  0.0858 (   2)  0.0535 (   5)  0.0291 (  37)
................................................................................
.............................. CYCLE   34 ......................................
................................................................................
   1    -50.7464709 -0.507465E+02  0.839E-02    8.99       0.0  T
   2    -50.7464728 -0.191628E-05  0.625E-02    9.00       1.0  T
   3    -50.7464743 -0.149931E-05  0.886E-03    9.00       2.2  T
   4    -50.7464745 -0.217251E-06  0.304E-03    9.00       6.5  T
   5    -50.7464745 -0.122269E-07  0.903E-04    9.00      21.7  T
   6    -50.7464745 -0.104525E-08  0.515E-04    9.00      38.1  T
speedup  0.93
cpu  time for SCC    0.01 s
wall time for SCC    0.01 s
speedup  0.96
cpu  time for grad    0.01 s
wall time for grad    0.01 s
 E :    -50.45665127  G :  0.007801    pred/act E change: -0.882D-04 -0.720D-04
Maxdispl :   0.1867   ||displ|| :   0.2933   Lambda : -0.266D-03
Largest |displ|/coords:  0.1867 (   2)  0.1132 (   5)  0.0887 (  12)
................................................................................
.............................. CYCLE   35 ......................................
................................................................................
   1    -50.7438879 -0.507439E+02  0.236E-01    9.02       0.0  T
   2    -50.7438965 -0.862283E-05  0.178E-01    9.02       1.0  T
   3    -50.7439037 -0.724589E-05  0.164E-02    9.02       1.2  T
   4    -50.7439048 -0.111005E-05  0.528E-03    9.02       3.7  T
   5    -50.7439049 -0.280681E-07  0.234E-03    9.02       8.4  T
   6    -50.7439049 -0.428795E-08  0.986E-04    9.02      19.9  T
speedup  0.93
cpu  time for SCC    0.00 s
wall time for SCC    0.01 s
speedup  1.04
cpu  time for grad    0.01 s
wall time for grad    0.01 s
 E :    -50.45659177  G :  0.020439    pred/act E change: -0.976D-04  0.595D-04
Maxdispl :   0.0657   ||displ|| :   0.1167   Lambda : -0.501D-03
Largest |displ|/coords:  0.0657 (   2)  0.0438 (   5)  0.0336 (   3)
................................................................................
.............................. CYCLE   36 ......................................
................................................................................
   1    -50.7447884 -0.507448E+02  0.116E-01    9.00       0.0  T
   2    -50.7447932 -0.488730E-05  0.870E-02    9.00       1.0  T
   3    -50.7447964 -0.313452E-05  0.125E-02    9.00       1.6  T
   4    -50.7447971 -0.723139E-06  0.250E-03    9.00       7.8  T
   5    -50.7447971 -0.432493E-08  0.145E-03    9.00      13.6  T
speedup  1.09
cpu  time for SCC    0.00 s
wall time for SCC    0.00 s
speedup  1.02
cpu  time for grad    0.01 s
wall time for grad    0.01 s
 E :    -50.45681662  G :  0.006739    pred/act E change: -0.144D-03 -0.225D-03
Maxdispl :   0.0243   ||displ|| :   0.0551   Lambda : -0.109D-03
Largest |displ|/coords:  0.0243 (   2)  0.0178 (   3)  0.0177 (  37)
................................................................................
.............................. CYCLE   37 ......................................
................................................................................
   1    -50.7461238 -0.507461E+02  0.567E-02    9.01       0.0  T
   2    -50.7461248 -0.107767E-05  0.422E-02    9.01       1.0  T
   3    -50.7461256 -0.754772E-06  0.774E-03    9.01       2.5  T
   4    -50.7461257 -0.130144E-06  0.227E-03    9.01       8.6  T
   5    -50.7461257 -0.793188E-08  0.588E-04    9.01      33.4  T
speedup  1.06
cpu  time for SCC    0.00 s
wall time for SCC    0.00 s
speedup  1.01
cpu  time for grad    0.01 s
wall time for grad    0.01 s
 E :    -50.45689072  G :  0.004083    pred/act E change: -0.254D-03 -0.741D-04
Maxdispl :   0.1632   ||displ|| :   0.2876   Lambda : -0.239D-03
Largest |displ|/coords:  0.1632 (   2)  0.1207 (   3)  0.0730 (  37)
................................................................................
.............................. CYCLE   38 ......................................
................................................................................
   1    -50.7446985 -0.507447E+02  0.215E-01    9.00       0.0  T
   2    -50.7447040 -0.554277E-05  0.161E-01    9.00       1.0  T
   3    -50.7447090 -0.499535E-05  0.174E-02    9.00       1.1  T
   4    -50.7447097 -0.621194E-06  0.650E-03    9.00       3.0  T
   5    -50.7447097 -0.363093E-07  0.177E-03    9.00      11.1  T
   6    -50.7447097 -0.240244E-08  0.109E-03    9.00      18.0  T
speedup  0.93
cpu  time for SCC    0.00 s
wall time for SCC    0.01 s
speedup  0.96
cpu  time for grad    0.01 s
wall time for grad    0.01 s
 E :    -50.45704340  G :  0.008271    pred/act E change: -0.549D-04 -0.153D-03
Maxdispl :   0.0486   ||displ|| :   0.1343   Lambda : -0.123D-03
Largest |displ|/coords:  0.0486 (   2)  0.0483 (   3)  0.0470 (  37)
................................................................................
.............................. CYCLE   39 ......................................
................................................................................
   1    -50.7441532 -0.507442E+02  0.124E-01    8.98       0.0  T
   2    -50.7441557 -0.243948E-05  0.933E-02    8.98       1.0  T
   3    -50.7441578 -0.208479E-05  0.127E-02    8.98       1.5  T
   4    -50.7441581 -0.281909E-06  0.440E-03    8.98       4.5  T
   5    -50.7441581 -0.164067E-07  0.974E-04    8.98      20.1  T
   6    -50.7441581 -0.806715E-09  0.633E-04    8.98      31.0  T
speedup  1.11
cpu  time for SCC    0.01 s
wall time for SCC    0.01 s
speedup  1.03
cpu  time for grad    0.01 s
wall time for grad    0.01 s
 E :    -50.45712527  G :  0.009971    pred/act E change: -0.129D-03 -0.819D-04
Maxdispl :   0.0914   ||displ|| :   0.1707   Lambda : -0.191D-03
Largest |displ|/coords:  0.0914 (   3)  0.0830 (  11)  0.0398 (  37)
................................................................................
.............................. CYCLE   40 ......................................
................................................................................
   1    -50.7439652 -0.507440E+02  0.110E-01    8.95       0.0  T
   2    -50.7439683 -0.313538E-05  0.820E-02    8.95       1.0  T
   3    -50.7439709 -0.253668E-05  0.143E-02    8.95       1.4  T
   4    -50.7439712 -0.365863E-06  0.470E-03    8.95       4.2  T
   5    -50.7439713 -0.245724E-07  0.104E-03    8.95      18.8  T
   6    -50.7439713 -0.131759E-08  0.668E-04    8.95      29.4  T
speedup  0.93
cpu  time for SCC    0.00 s
wall time for SCC    0.01 s
speedup  0.96
cpu  time for grad    0.01 s
wall time for grad    0.01 s
 E :    -50.45721173  G :  0.005530    pred/act E change: -0.626D-04 -0.865D-04
Maxdispl :   0.0450   ||displ|| :   0.1233   Lambda : -0.111D-03
Largest |displ|/coords:  0.0450 (   6)  0.0411 (   3)  0.0349 (  16)
................................................................................
.............................. CYCLE   41 ......................................
................................................................................
   1    -50.7433727 -0.507434E+02  0.111E-01    8.95       0.0  T
   2    -50.7433743 -0.167671E-05  0.837E-02    8.95       1.0  T
   3    -50.7433760 -0.163897E-05  0.835E-03    8.95       2.3  T
   4    -50.7433761 -0.154919E-06  0.280E-03    8.95       7.0  T
   5    -50.7433761 -0.958738E-08  0.827E-04    8.95      23.7  T
speedup  0.89
cpu  time for SCC    0.00 s
wall time for SCC    0.00 s
speedup  0.94
cpu  time for grad    0.01 s
wall time for grad    0.01 s
 E :    -50.45727851  G :  0.007104    pred/act E change: -0.982D-04 -0.668D-04
Maxdispl :   0.0316   ||displ|| :   0.0705   Lambda : -0.805D-04
Largest |displ|/coords:  0.0316 (   2)  0.0277 (  12)  0.0237 (  14)
................................................................................
.............................. CYCLE   42 ......................................
................................................................................
   1    -50.7453648 -0.507454E+02  0.543E-02    8.97       0.0  T
   2    -50.7453654 -0.675450E-06  0.406E-02    8.97       1.0  T
   3    -50.7453660 -0.601327E-06  0.581E-03    8.97       3.4  T
   4    -50.7453661 -0.678059E-07  0.154E-03    8.97      12.8  T
   5    -50.7453661 -0.372822E-08  0.540E-04    8.97      36.3  T
speedup  1.09
cpu  time for SCC    0.00 s
wall time for SCC    0.00 s
speedup  1.02
cpu  time for grad    0.01 s
wall time for grad    0.01 s
 E :    -50.45732233  G :  0.005315    pred/act E change: -0.565D-04 -0.438D-04
Maxdispl :   0.0833   ||displ|| :   0.1544   Lambda : -0.864D-04
Largest |displ|/coords:  0.0833 (   3)  0.0485 (   2)  0.0423 (  14)
................................................................................
.............................. CYCLE   43 ......................................
................................................................................
   1    -50.7442850 -0.507443E+02  0.120E-01    8.99       0.0  T
   2    -50.7442874 -0.243588E-05  0.901E-02    8.99       1.0  T
   3    -50.7442894 -0.194786E-05  0.964E-03    8.99       2.0  T
   4    -50.7442897 -0.314380E-06  0.365E-03    8.99       5.4  T
   5    -50.7442897 -0.182744E-07  0.105E-03    8.99      18.7  T
   6    -50.7442897 -0.948347E-09  0.637E-04    8.99      30.8  T
speedup  1.09
cpu  time for SCC    0.01 s
wall time for SCC    0.01 s
speedup  1.01
cpu  time for grad    0.01 s
wall time for grad    0.01 s
 E :    -50.45736055  G :  0.007349    pred/act E change: -0.405D-04 -0.382D-04
Maxdispl :   0.0207   ||displ|| :   0.0386   Lambda : -0.561D-04
Largest |displ|/coords:  0.0207 (   2)  0.0130 (  14)  0.0112 (   1)
................................................................................
.............................. CYCLE   44 ......................................
................................................................................
   1    -50.7447961 -0.507448E+02  0.213E-02    8.98       0.0  T
   2    -50.7447966 -0.499091E-06  0.156E-02    8.98       1.3  T
   3    -50.7447969 -0.303822E-06  0.403E-03    8.99       4.9  T
   4    -50.7447969 -0.488518E-07  0.179E-03    8.98      11.0  T
   5    -50.7447969 -0.516620E-08  0.451E-04    8.98      43.5  T
speedup  0.89
cpu  time for SCC    0.00 s
wall time for SCC    0.00 s
speedup  1.02
cpu  time for grad    0.01 s
wall time for grad    0.01 s
 E :    -50.45739209  G :  0.003560    pred/act E change: -0.442D-04 -0.315D-04
Maxdispl :   0.0346   ||displ|| :   0.0742   Lambda : -0.441D-04
Largest |displ|/coords:  0.0346 (   3)  0.0263 (   1)  0.0243 (   7)
................................................................................
.............................. CYCLE   45 ......................................
................................................................................
   1    -50.7449181 -0.507449E+02  0.653E-02    8.98       0.0  T
   2    -50.7449186 -0.528749E-06  0.493E-02    8.98       1.0  T
   3    -50.7449192 -0.592211E-06  0.472E-03    8.98       4.2  T
   4    -50.7449193 -0.415318E-07  0.181E-03    8.98      10.8  T
   5    -50.7449193 -0.335068E-08  0.528E-04    8.98      37.2  T
   6    -50.7449193 -0.297412E-09  0.335E-04    8.98      58.6  T
speedup  0.93
cpu  time for SCC    0.00 s
wall time for SCC    0.01 s
speedup  0.99
cpu  time for grad    0.01 s
wall time for grad    0.01 s
 E :    -50.45742191  G :  0.003515    pred/act E change: -0.281D-04 -0.298D-04
Maxdispl :   0.0469   ||displ|| :   0.1038   Lambda : -0.524D-04
Largest |displ|/coords:  0.0469 (   3)  0.0345 (  16)  0.0334 (  14)
................................................................................
.............................. CYCLE   46 ......................................
................................................................................
   1    -50.7441751 -0.507442E+02  0.104E-01    8.97       0.0  T
   2    -50.7441763 -0.122382E-05  0.786E-02    8.97       1.0  T
   3    -50.7441777 -0.136466E-05  0.684E-03    8.97       2.9  T
   4    -50.7441778 -0.969256E-07  0.254E-03    8.97       7.7  T
   5    -50.7441778 -0.655150E-08  0.798E-04    8.97      24.6  T
   6    -50.7441778 -0.718877E-09  0.492E-04    8.97      39.8  T
speedup  0.93
cpu  time for SCC    0.00 s
wall time for SCC    0.01 s
speedup  0.90
cpu  time for grad    0.01 s
wall time for grad    0.01 s
 E :    -50.45745718  G :  0.004728    pred/act E change: -0.222D-04 -0.353D-04
Maxdispl :   0.0546   ||displ|| :   0.1000   Lambda : -0.621D-04
Largest |displ|/coords:  0.0546 (   1)  0.0332 (   2)  0.0249 (   3)
................................................................................
.............................. CYCLE   47 ......................................
................................................................................
   1    -50.7442811 -0.507443E+02  0.894E-02    8.98       0.0  T
   2    -50.7442820 -0.922482E-06  0.675E-02    8.98       1.0  T
   3    -50.7442829 -0.895313E-06  0.600E-03    8.97       3.3  T
   4    -50.7442830 -0.958972E-07  0.223E-03    8.97       8.8  T
   5    -50.7442830 -0.483382E-08  0.674E-04    8.97      29.1  T
speedup  1.09
cpu  time for SCC    0.00 s
wall time for SCC    0.00 s
speedup  1.02
cpu  time for grad    0.01 s
wall time for grad    0.01 s
 E :    -50.45749725  G :  0.004884    pred/act E change: -0.265D-04 -0.401D-04
Maxdispl :   0.0513   ||displ|| :   0.0984   Lambda : -0.667D-04
Largest |displ|/coords:  0.0513 (   1)  0.0342 (   2)  0.0282 (  16)
................................................................................
.............................. CYCLE   48 ......................................
................................................................................
   1    -50.7435727 -0.507436E+02  0.997E-02    8.97       0.0  T
   2    -50.7435739 -0.123587E-05  0.753E-02    8.97       1.0  T
   3    -50.7435752 -0.129478E-05  0.763E-03    8.97       2.6  T
   4    -50.7435753 -0.118082E-06  0.228E-03    8.97       8.6  T
   5    -50.7435753 -0.617195E-08  0.825E-04    8.97      23.8  T
speedup  1.11
cpu  time for SCC    0.00 s
wall time for SCC    0.00 s
speedup  1.02
cpu  time for grad    0.01 s
wall time for grad    0.01 s
 E :    -50.45753956  G :  0.004923    pred/act E change: -0.314D-04 -0.423D-04
Maxdispl :   0.0524   ||displ|| :   0.1188   Lambda : -0.823D-04
Largest |displ|/coords:  0.0524 (   1)  0.0449 (  10)  0.0443 (   6)
................................................................................
.............................. CYCLE   49 ......................................
................................................................................
   1    -50.7440834 -0.507441E+02  0.908E-02    8.96       0.0  T
   2    -50.7440847 -0.132456E-05  0.681E-02    8.96       1.0  T
   3    -50.7440861 -0.133287E-05  0.896E-03    8.96       2.2  T
   4    -50.7440862 -0.118993E-06  0.235E-03    8.96       8.3  T
   5    -50.7440862 -0.778013E-08  0.791E-04    8.96      24.8  T
speedup  0.87
cpu  time for SCC    0.00 s
wall time for SCC    0.00 s
speedup  1.02
cpu  time for grad    0.01 s
wall time for grad    0.01 s
 E :    -50.45757927  G :  0.004816    pred/act E change: -0.337D-04 -0.397D-04
Maxdispl :   0.1011   ||displ|| :   0.1695   Lambda : -0.859D-04
Largest |displ|/coords:  0.1011 (   1)  0.0715 (   2)  0.0450 (  12)
................................................................................
.............................. CYCLE   50 ......................................
................................................................................
   1    -50.7424475 -0.507424E+02  0.149E-01    8.96       0.0  T
   2    -50.7424517 -0.417367E-05  0.112E-01    8.96       1.0  T
   3    -50.7424548 -0.308339E-05  0.128E-02    8.96       1.5  T
   4    -50.7424554 -0.605066E-06  0.370E-03    8.95       5.3  T
   5    -50.7424554 -0.200724E-07  0.143E-03    8.95      13.7  T
   6    -50.7424554 -0.157360E-08  0.770E-04    8.95      25.5  T
speedup  1.07
cpu  time for SCC    0.01 s
wall time for SCC    0.01 s
speedup  1.01
cpu  time for grad    0.01 s
wall time for grad    0.01 s
 E :    -50.45759102  G :  0.008865    pred/act E change: -0.417D-04 -0.117D-04
Maxdispl :   0.0375   ||displ|| :   0.0768   Lambda : -0.927D-04
Largest |displ|/coords:  0.0375 (   1)  0.0261 (  13)  0.0248 (  16)
................................................................................
.............................. CYCLE   51 ......................................
................................................................................
   1    -50.7439354 -0.507439E+02  0.743E-02    8.96       0.0  T
   2    -50.7439366 -0.120638E-05  0.560E-02    8.96       1.0  T
   3    -50.7439376 -0.945659E-06  0.633E-03    8.96       3.1  T
   4    -50.7439377 -0.165478E-06  0.167E-03    8.96      11.7  T
   5    -50.7439377 -0.329005E-08  0.749E-04    8.96      26.2  T
speedup  0.87
cpu  time for SCC    0.00 s
wall time for SCC    0.00 s
speedup  0.94
cpu  time for grad    0.01 s
wall time for grad    0.01 s
 E :    -50.45763842  G :  0.003141    pred/act E change: -0.442D-04 -0.474D-04
Maxdispl :   0.0139   ||displ|| :   0.0399   Lambda : -0.285D-04
Largest |displ|/coords:  0.0139 (   4)  0.0124 (   1)  0.0110 (  15)
................................................................................
.............................. CYCLE   52 ......................................
................................................................................
   1    -50.7439283 -0.507439E+02  0.370E-02    8.96       0.0  T
   2    -50.7439286 -0.311614E-06  0.279E-02    8.96       1.0  T
   3    -50.7439288 -0.206443E-06  0.340E-03    8.96       5.8  T
   4    -50.7439288 -0.472661E-07  0.821E-04    8.96      23.9  T
   5    -50.7439288 -0.111821E-08  0.352E-04    8.96      55.7  T
speedup  1.09
cpu  time for SCC    0.00 s
wall time for SCC    0.00 s
speedup  1.05
cpu  time for grad    0.01 s
wall time for grad    0.01 s
 E :    -50.45766059  G :  0.002385    pred/act E change: -0.466D-04 -0.222D-04
Maxdispl :   0.0656   ||displ|| :   0.1417   Lambda : -0.694D-04
Largest |displ|/coords:  0.0656 (   1)  0.0536 (   2)  0.0448 (  12)

generating ANC from model Hessian ...
 Shifting diagonal of input Hessian by   4.389875598708474E-003
 Lowest  eigenvalues of input Hessian
   -0.000000   -0.000000   -0.000000    0.000000    0.000000    0.000000
    0.005000    0.005216    0.006208    0.006297    0.007021    0.007441
    0.007870    0.008345    0.008669    0.010000    0.010113    0.011027
 Highest eigenvalues
    1.399159    1.402131    1.467159    2.522235    3.308278    3.792422
 
cpu  time for ANC gen    0.03 s
wall time for ANC gen    0.03 s
................................................................................
.............................. CYCLE   53 ......................................
................................................................................
   1    -50.7438507 -0.507439E+02  0.129E-01    8.96       0.0  T
   2    -50.7438528 -0.209618E-05  0.975E-02    8.96       1.0  T
   3    -50.7438550 -0.219754E-05  0.862E-03    8.96       2.3  T
   4    -50.7438552 -0.191011E-06  0.313E-03    8.96       6.3  T
   5    -50.7438552 -0.100965E-07  0.102E-03    8.96      19.2  T
   6    -50.7438552 -0.128599E-08  0.598E-04    8.96      32.8  T
   7    -50.7438552 -0.515342E-09  0.133E-04    8.96     147.3  T
speedup  0.95
cpu  time for SCC    0.01 s
wall time for SCC    0.01 s
speedup  1.01
cpu  time for grad    0.01 s
wall time for grad    0.01 s
 E :    -50.45770244  G :  0.003996    pred/act E change:  0.000D+00 -0.418D-04
Maxdispl :   0.0353   ||displ|| :   0.0599   Lambda : -0.535D-04
Largest |displ|/coords:  0.0353 (   6)  0.0219 (   9)  0.0191 (  10)
................................................................................
.............................. CYCLE   54 ......................................
................................................................................
   1    -50.7439891 -0.507440E+02  0.519E-02    8.97       0.0  T
   2    -50.7439893 -0.211969E-06  0.390E-02    8.97       1.0  T
   3    -50.7439895 -0.224142E-06  0.324E-03    8.97       6.0  T
   4    -50.7439896 -0.167172E-07  0.831E-04    8.97      23.6  T
   5    -50.7439896 -0.726999E-09  0.417E-04    8.97      47.0  T
speedup  0.87
cpu  time for SCC    0.00 s
wall time for SCC    0.00 s
speedup  0.98
cpu  time for grad    0.01 s
wall time for grad    0.01 s
 E :    -50.45773968  G :  0.001941    pred/act E change:  0.000D+00 -0.372D-04
Maxdispl :   0.0567   ||displ|| :   0.1278   Lambda : -0.749D-04
Largest |displ|/coords:  0.0567 (   2)  0.0500 (   6)  0.0466 (   3)
................................................................................
.............................. CYCLE   55 ......................................
................................................................................
   1    -50.7439859 -0.507440E+02  0.116E-01    8.98       0.0  T
   2    -50.7439876 -0.170907E-05  0.873E-02    8.98       1.0  T
   3    -50.7439895 -0.183499E-05  0.792E-03    8.98       2.5  T
   4    -50.7439896 -0.135327E-06  0.223E-03    8.98       8.8  T
   5    -50.7439896 -0.567888E-08  0.975E-04    8.98      20.1  T
   6    -50.7439896 -0.109532E-08  0.542E-04    8.98      36.2  T
speedup  1.07
cpu  time for SCC    0.01 s
wall time for SCC    0.01 s
speedup  0.97
cpu  time for grad    0.01 s
wall time for grad    0.01 s
 E :    -50.45777583  G :  0.003660    pred/act E change: -0.269D-04 -0.362D-04
Maxdispl :   0.0384   ||displ|| :   0.0720   Lambda : -0.352D-04
Largest |displ|/coords:  0.0384 (   6)  0.0258 (   2)  0.0257 (   5)
................................................................................
.............................. CYCLE   56 ......................................
................................................................................
   1    -50.7440683 -0.507441E+02  0.508E-02    8.98       0.0  T
   2    -50.7440685 -0.216130E-06  0.380E-02    8.98       1.0  T
   3    -50.7440688 -0.220755E-06  0.337E-03    8.98       5.8  T
   4    -50.7440688 -0.183529E-07  0.868E-04    8.98      22.6  T
   5    -50.7440688 -0.126438E-08  0.393E-04    8.98      49.9  T
speedup  1.09
cpu  time for SCC    0.00 s
wall time for SCC    0.00 s
speedup  1.05
cpu  time for grad    0.01 s
wall time for grad    0.01 s
 E :    -50.45780025  G :  0.003333    pred/act E change: -0.380D-04 -0.244D-04
Maxdispl :   0.0646   ||displ|| :   0.1223   Lambda : -0.512D-04
Largest |displ|/coords:  0.0646 (   2)  0.0483 (   6)  0.0465 (   9)
................................................................................
.............................. CYCLE   57 ......................................
................................................................................
   1    -50.7443977 -0.507444E+02  0.696E-02    8.99       0.0  T
   2    -50.7443984 -0.657740E-06  0.520E-02    8.98       1.0  T
   3    -50.7443990 -0.603154E-06  0.608E-03    8.98       3.2  T
   4    -50.7443990 -0.575839E-07  0.111E-03    8.98      17.7  T
   5    -50.7443990 -0.223353E-08  0.558E-04    8.98      35.2  T
   6    -50.7443990 -0.455501E-09  0.256E-04    8.98      76.6  T
speedup  0.89
cpu  time for SCC    0.00 s
wall time for SCC    0.01 s
speedup  0.97
cpu  time for grad    0.01 s
wall time for grad    0.01 s
 E :    -50.45783187  G :  0.001664    pred/act E change: -0.177D-04 -0.316D-04
Maxdispl :   0.0784   ||displ|| :   0.1596   Lambda : -0.363D-04
Largest |displ|/coords:  0.0784 (   2)  0.0660 (   6)  0.0584 (  11)
................................................................................
.............................. CYCLE   58 ......................................
................................................................................
   1    -50.7440835 -0.507441E+02  0.101E-01    8.99       0.0  T
   2    -50.7440848 -0.131895E-05  0.757E-02    8.99       1.0  T
   3    -50.7440863 -0.146584E-05  0.731E-03    8.98       2.7  T
   4    -50.7440864 -0.924828E-07  0.163E-03    8.98      12.0  T
   5    -50.7440864 -0.385145E-08  0.892E-04    8.98      22.0  T
   6    -50.7440864 -0.116842E-08  0.435E-04    8.98      45.1  T
speedup  0.91
cpu  time for SCC    0.01 s
wall time for SCC    0.01 s
speedup  0.98
cpu  time for grad    0.01 s
wall time for grad    0.01 s
 E :    -50.45784777  G :  0.003548    pred/act E change: -0.260D-04 -0.159D-04
Maxdispl :   0.0235   ||displ|| :   0.0433   Lambda : -0.223D-04
Largest |displ|/coords:  0.0235 (   2)  0.0152 (  11)  0.0146 (   8)
................................................................................
.............................. CYCLE   59 ......................................
................................................................................
   1    -50.7444877 -0.507445E+02  0.221E-02    8.98       0.0  T
   2    -50.7444878 -0.142048E-06  0.163E-02    8.98       1.2  T
   3    -50.7444879 -0.104993E-06  0.275E-03    8.98       7.1  T
   4    -50.7444879 -0.135495E-07  0.708E-04    8.98      27.7  T
   5    -50.7444879 -0.793122E-09  0.216E-04    8.98      91.0  T
speedup  1.11
cpu  time for SCC    0.00 s
wall time for SCC    0.00 s
speedup  1.04
cpu  time for grad    0.01 s
wall time for grad    0.01 s
 E :    -50.45785955  G :  0.001562    pred/act E change: -0.186D-04 -0.118D-04
Maxdispl :   0.0438   ||displ|| :   0.0898   Lambda : -0.153D-04
Largest |displ|/coords:  0.0438 (   2)  0.0327 (   9)  0.0314 (   6)
................................................................................
.............................. CYCLE   60 ......................................
................................................................................
   1    -50.7441471 -0.507441E+02  0.608E-02    8.98       0.0  T
   2    -50.7441477 -0.528043E-06  0.458E-02    8.98       1.0  T
   3    -50.7441483 -0.574754E-06  0.444E-03    8.98       4.4  T
   4    -50.7441483 -0.455243E-07  0.128E-03    8.98      15.3  T
   5    -50.7441483 -0.203715E-08  0.592E-04    8.98      33.1  T
   6    -50.7441483 -0.446477E-09  0.273E-04    8.98      71.7  T
speedup  1.09
cpu  time for SCC    0.01 s
wall time for SCC    0.01 s
speedup  0.97
cpu  time for grad    0.01 s
wall time for grad    0.01 s
 E :    -50.45786276  G :  0.002362    pred/act E change: -0.112D-04 -0.322D-05
Maxdispl :   0.0123   ||displ|| :   0.0236   Lambda : -0.141D-04
Largest |displ|/coords:  0.0123 (   8)  0.0085 (   3)  0.0077 (  11)
................................................................................
.............................. CYCLE   61 ......................................
................................................................................
   1    -50.7444880 -0.507445E+02  0.181E-02    8.99       0.0  T
   2    -50.7444881 -0.931120E-07  0.136E-02    8.99       1.4  T
   3    -50.7444882 -0.850064E-07  0.209E-03    8.99       9.4  T
   4    -50.7444882 -0.966772E-08  0.647E-04    8.99      30.3  T
   5    -50.7444882 -0.664755E-09  0.198E-04    8.99      99.2  T
speedup  1.09
cpu  time for SCC    0.00 s
wall time for SCC    0.00 s
speedup  1.04
cpu  time for grad    0.01 s
wall time for grad    0.01 s
 E :    -50.45787028  G :  0.001025    pred/act E change: -0.770D-05 -0.751D-05
Maxdispl :   0.0165   ||displ|| :   0.0325   Lambda : -0.557D-05
Largest |displ|/coords:  0.0165 (  11)  0.0125 (   6)  0.0107 (   9)
................................................................................
.............................. CYCLE   62 ......................................
................................................................................
   1    -50.7444728 -0.507445E+02  0.227E-02    8.99       0.0  T
   2    -50.7444729 -0.624620E-07  0.170E-02    8.99       1.2  T
   3    -50.7444729 -0.643105E-07  0.170E-03    8.99      11.6  T
   4    -50.7444729 -0.576090E-08  0.524E-04    8.99      37.4  T
   5    -50.7444729 -0.447898E-09  0.185E-04    8.99     106.0  T
speedup  0.85
cpu  time for SCC    0.00 s
wall time for SCC    0.00 s
speedup  0.98
cpu  time for grad    0.01 s
wall time for grad    0.01 s
 E :    -50.45787434  G :  0.000900    pred/act E change: -0.705D-05 -0.406D-05
Maxdispl :   0.0335   ||displ|| :   0.0672   Lambda : -0.762D-05
Largest |displ|/coords:  0.0335 (  11)  0.0231 (   9)  0.0199 (   6)
................................................................................
.............................. CYCLE   63 ......................................
................................................................................
   1    -50.7444035 -0.507444E+02  0.474E-02    8.99       0.0  T
   2    -50.7444039 -0.328666E-06  0.357E-02    8.99       1.0  T
   3    -50.7444042 -0.328342E-06  0.373E-03    8.99       5.3  T
   4    -50.7444042 -0.334295E-07  0.123E-03    8.99      15.9  T
   5    -50.7444042 -0.224613E-08  0.413E-04    8.99      47.5  T
   6    -50.7444042 -0.284778E-09  0.249E-04    8.99      78.7  T
speedup  1.09
cpu  time for SCC    0.01 s
wall time for SCC    0.01 s
speedup  0.99
cpu  time for grad    0.01 s
wall time for grad    0.01 s
 E :    -50.45787977  G :  0.001009    pred/act E change: -0.279D-05 -0.543D-05
Maxdispl :   0.0285   ||displ|| :   0.0561   Lambda : -0.550D-05
Largest |displ|/coords:  0.0285 (  11)  0.0198 (   9)  0.0192 (  10)
................................................................................
.............................. CYCLE   64 ......................................
................................................................................
   1    -50.7444025 -0.507444E+02  0.385E-02    8.99       0.0  T
   2    -50.7444028 -0.249970E-06  0.290E-02    8.99       1.0  T
   3    -50.7444030 -0.238819E-06  0.335E-03    8.99       5.8  T
   4    -50.7444031 -0.271615E-07  0.120E-03    8.99      16.3  T
   5    -50.7444031 -0.150023E-08  0.328E-04    8.99      59.7  T
   6    -50.7444031 -0.185516E-09  0.205E-04    8.99      95.6  T
speedup  1.11
cpu  time for SCC    0.01 s
wall time for SCC    0.01 s
speedup  0.99
cpu  time for grad    0.01 s
wall time for grad    0.01 s
 E :    -50.45788358  G :  0.000874    pred/act E change: -0.383D-05 -0.381D-05
Maxdispl :   0.0255   ||displ|| :   0.0498   Lambda : -0.337D-05
Largest |displ|/coords:  0.0255 (  11)  0.0175 (   9)  0.0166 (  10)
................................................................................
.............................. CYCLE   65 ......................................
................................................................................
   1    -50.7443473 -0.507443E+02  0.315E-02    8.99       0.0  T
   2    -50.7443474 -0.162324E-06  0.237E-02    8.99       1.0  T
   3    -50.7443476 -0.172685E-06  0.256E-03    8.99       7.6  T
   4    -50.7443476 -0.140788E-07  0.974E-04    8.99      20.1  T
   5    -50.7443476 -0.937881E-09  0.247E-04    8.99      79.4  T
speedup  1.09
cpu  time for SCC    0.00 s
wall time for SCC    0.00 s
speedup  1.04
cpu  time for grad    0.01 s
wall time for grad    0.01 s
 E :    -50.45788595  G :  0.000708    pred/act E change: -0.276D-05 -0.237D-05
Maxdispl :   0.0153   ||displ|| :   0.0298   Lambda : -0.230D-05
Largest |displ|/coords:  0.0153 (  11)  0.0124 (  10)  0.0099 (   9)
................................................................................
.............................. CYCLE   66 ......................................
................................................................................
   1    -50.7444203 -0.507444E+02  0.183E-02    8.99       0.0  T
   2    -50.7444204 -0.655977E-07  0.137E-02    8.99       1.4  T
   3    -50.7444205 -0.594159E-07  0.180E-03    8.99      10.9  T
   4    -50.7444205 -0.685123E-08  0.656E-04    8.99      29.9  T
   5    -50.7444205 -0.443272E-09  0.121E-04    8.99     162.6  T
speedup  0.87
cpu  time for SCC    0.00 s
wall time for SCC    0.00 s
speedup  0.98
cpu  time for grad    0.01 s
wall time for grad    0.01 s
 E :    -50.45788732  G :  0.000619    pred/act E change: -0.169D-05 -0.137D-05
Maxdispl :   0.0201   ||displ|| :   0.0414   Lambda : -0.132D-05
Largest |displ|/coords:  0.0201 (  11)  0.0155 (   9)  0.0128 (   2)
................................................................................
.............................. CYCLE   67 ......................................
................................................................................
   1    -50.7442660 -0.507443E+02  0.248E-02    8.99       0.0  T
   2    -50.7442661 -0.115895E-06  0.187E-02    8.99       1.0  T
   3    -50.7442662 -0.114658E-06  0.200E-03    8.99       9.8  T
   4    -50.7442662 -0.113828E-07  0.716E-04    8.99      27.4  T
   5    -50.7442662 -0.656151E-09  0.213E-04    8.99      92.2  T
speedup  1.11
cpu  time for SCC    0.01 s
wall time for SCC    0.00 s
speedup  1.04
cpu  time for grad    0.01 s
wall time for grad    0.01 s
 E :    -50.45788792  G :  0.000605    pred/act E change: -0.115D-05 -0.598D-06
Maxdispl :   0.0035   ||displ|| :   0.0081   Lambda : -0.750D-06
Largest |displ|/coords:  0.0035 (   2)  0.0034 (   6)  0.0029 (  12)
................................................................................
.............................. CYCLE   68 ......................................
................................................................................
   1    -50.7443468 -0.507443E+02  0.642E-03    8.99       0.0  T
   2    -50.7443468 -0.130245E-07  0.484E-03    8.99       4.1  T
   3    -50.7443468 -0.800986E-08  0.625E-04    8.99      31.4  T
   4    -50.7443468 -0.232630E-08  0.201E-04    8.99      97.6  T
speedup  0.81
cpu  time for SCC    0.00 s
wall time for SCC    0.00 s
speedup  0.97
cpu  time for grad    0.01 s
wall time for grad    0.01 s
 E :    -50.45788844  G :  0.000352    pred/act E change: -0.659D-06 -0.519D-06
Maxdispl :   0.0042   ||displ|| :   0.0104   Lambda : -0.566D-06
Largest |displ|/coords:  0.0042 (  11)  0.0034 (  15)  0.0031 (   4)
................................................................................
.............................. CYCLE   69 ......................................
................................................................................
   1    -50.7443705 -0.507444E+02  0.752E-03    8.99       0.0  T
   2    -50.7443705 -0.135562E-07  0.564E-03    8.99       3.5  T
   3    -50.7443705 -0.946837E-08  0.818E-04    8.99      24.0  T
   4    -50.7443705 -0.196183E-08  0.223E-04    8.99      87.9  T
speedup  1.05
cpu  time for SCC    0.00 s
wall time for SCC    0.00 s
speedup  0.96
cpu  time for grad    0.01 s
wall time for grad    0.01 s
 E :    -50.45788880  G :  0.000281    pred/act E change: -0.375D-06 -0.358D-06
Maxdispl :   0.0046   ||displ|| :   0.0094   Lambda : -0.279D-06
Largest |displ|/coords:  0.0046 (  11)  0.0032 (   1)  0.0027 (   9)
................................................................................
.............................. CYCLE   70 ......................................
................................................................................
   1    -50.7443652 -0.507444E+02  0.602E-03    8.99       0.0  T
   2    -50.7443652 -0.683522E-08  0.449E-03    8.99       4.4  T
   3    -50.7443652 -0.609107E-08  0.624E-04    8.99      31.4  T
   4    -50.7443652 -0.646978E-09  0.177E-04    8.99     110.9  T
speedup  1.05
cpu  time for SCC    0.00 s
wall time for SCC    0.00 s
speedup  1.04
cpu  time for grad    0.01 s
wall time for grad    0.01 s
 E :    -50.45788899  G :  0.000244    pred/act E change: -0.283D-06 -0.193D-06
Maxdispl :   0.0039   ||displ|| :   0.0081   Lambda : -0.175D-06
Largest |displ|/coords:  0.0039 (  11)  0.0025 (   1)  0.0023 (  10)
................................................................................
.............................. CYCLE   71 ......................................
................................................................................
   1    -50.7443542 -0.507444E+02  0.514E-03    8.99       0.0  T
   2    -50.7443542 -0.579966E-08  0.384E-03    8.99       5.1  T
   3    -50.7443542 -0.491811E-08  0.572E-04    8.99      34.3  T
   4    -50.7443542 -0.604373E-09  0.214E-04    8.99      91.6  T
speedup  1.08
cpu  time for SCC    0.00 s
wall time for SCC    0.00 s
speedup  0.97
cpu  time for grad    0.01 s
wall time for grad    0.01 s
 E :    -50.45788911  G :  0.000159    pred/act E change: -0.139D-06 -0.118D-06
Maxdispl :   0.0021   ||displ|| :   0.0045   Lambda : -0.751D-07
Largest |displ|/coords:  0.0021 (  11)  0.0015 (   1)  0.0012 (  16)
................................................................................
.............................. CYCLE   72 ......................................
................................................................................
   1    -50.7443475 -0.507443E+02  0.273E-03    8.99       0.0  T
   2    -50.7443475 -0.247686E-08  0.202E-03    8.99       9.7  T
   3    -50.7443475 -0.156243E-08  0.399E-04    8.99      49.2  T
   4    -50.7443475 -0.312966E-09  0.148E-04    8.99     132.8  T
speedup  1.05
cpu  time for SCC    0.00 s
wall time for SCC    0.00 s
speedup  1.04
cpu  time for grad    0.01 s
wall time for grad    0.01 s
 E :    -50.45788916  G :  0.000081    pred/act E change: -0.873D-07 -0.537D-07
Maxdispl :   0.0014   ||displ|| :   0.0035   Lambda : -0.417D-07
Largest |displ|/coords:  0.0014 (  11)  0.0010 (  16)  0.0010 (   3)

   *** GEOMETRY OPTIMIZATION CONVERGED AFTER 72 ITERATIONS ***

------------------------------------------------------------------------
 total energy gain (kcal):     -0.1172
------------------------------------------------------------------------
================
 final structure:
================
$coord
       -2.86253868259682       -3.17495596027904       -0.26138280721876      S 
       -1.60654536264394       -2.14340592369745        2.04758610642119      O 
       -3.11887028265799       -5.85143151989072       -0.16777557026895      O 
       -1.00070369225828       -2.44837049100404       -2.49352874280392      O 
       -5.10031653867395       -1.68982784099772       -0.81915868371216      O 
       -3.98189555057877        0.68503069361813       -2.14838843495568      H 
        0.69482131497781       -3.11878365364821       -2.13620895769702      H 
        2.89124745926746        3.43598327140765        1.93800893307310      O 
        4.15155903287801        4.73307869771003        1.99712286870722      H 
       -3.24775598879249        2.35016382583760       -2.68258459581038      O 
       -4.22411424036730        2.89256476672002       -4.10711044841651      H 
        3.77624862167220       -3.41070161877021       -1.55263220004778      O 
        4.23687293653865       -5.16182276662924       -1.56176311793157      H 
        3.85243598975000       -2.85368317300684        0.24539834781863      H 
        3.30334752904576       -1.78296338801825        3.09117616428794      O 
        1.49201827329216       -2.15275340437579        3.03106452517651      H 
        3.42615862213028        0.04194093517007        3.03860488090055      H 
        2.12749123787690        1.96967944297716       -2.71113321615014      O 
        0.31117735116292        1.85226270499424       -2.97268539747002      H 
        2.73556111133110        2.92555836678938        0.12615821824858      H 
        2.77173328532001        0.27643360966651       -2.90600458298605      H 
       -2.14868743358717        2.59543687165434        2.23914822829846      N 
       -2.76894796849616        3.04586274509816        0.43404540927382      H 
       -0.32828530929214        3.27024340084306        2.49303762500761      H 
       -3.35750772483944        3.21987566814254        3.58595780027739      H 
       -2.02450400882894        0.49458479589837        2.25304768536330      H 
$end
 
 Bond Distances (Angstroems)
 ---------------------------
S1-O2=1.4942         S1-O3=1.4237         S1-O4=1.5855         S1-O5=1.4516         O2-S1=1.4942         O3-S1=1.4237         
O4-S1=1.5855         O4-H7=0.9832         O5-S1=1.4516         H6-O10=1.0036        H7-O4=0.9832         O8-H9=0.9576         
O8-H20=0.9995        H9-O8=0.9576         O10-H6=1.0036        O10-H11=0.9579       H11-O10=0.9579       O12-H13=0.9582       
O12-H14=0.9969       H13-O12=0.9582       H14-O12=0.9969       O15-H16=0.9788       O15-H17=0.9683       H16-O15=0.9788       
H17-O15=0.9683       O18-H19=0.9731       O18-H21=0.9642       H19-O18=0.9731       H20-O8=0.9995        H21-O18=0.9642       
N22-H23=1.0378       N22-H24=1.0361       N22-H25=1.0131       N22-H26=1.1137       H23-N22=1.0378       H24-N22=1.0361       
H25-N22=1.0131       H26-N22=1.1137       
 N  H  Rav=1.0502 sigma=0.0380  Rmin=1.0131  Rmax=1.1137     4
 O  H  Rav=0.9765 sigma=0.0165  Rmin=0.9576  Rmax=1.0036    11
 S  O  Rav=1.4887 sigma=0.0612  Rmin=1.4237  Rmax=1.5855     4
 
 selected bond angles (degree)
 --------------------
O3-S1-O2=112.17                O4-S1-O2=104.13                O4-S1-O3=109.05                O5-S1-O2=109.35                
O5-S1-O3=117.90                O5-S1-O4=102.95                H7-O4-S1=109.65                H20-O8-H9=106.41               
H11-O10-H6=106.02              
 
 selected dihedral angles (degree)
 ---------------------------------
H7-O4-S1-O2= 55.79            H7-O4-S1-O3=295.88            H7-O4-S1-O5=169.90            
 
 CMA Distance (Angstroems)
 ---------------------------
R(CMA):  2.9109

========================================================================
 FINAL SINGLEPOINT CALCULATION ON OPTIMIZED GEOMETRY
========================================================================

 Ncao       : 65
 Nao        : 64
 Nshell     : 38
 Nel        : 80
 T(el)      :   300.0
 intcut     :    25.0
 scfconv/Eh :  0.100E-05
   qconv/e  :  0.100E-03
 intneglect :  0.100E-07
 broydamp   :      0.250
 iter      E             dE          RMSdq      gap      omega  full diag
   1    -50.7443475 -0.507443E+02  0.563E-05    8.99       0.0  T
   2    -50.7443475 -0.135714E-11  0.364E-05    8.99     539.4  T
   3    -50.7443475 -0.866862E-12  0.432E-06    8.99    4536.8  T
speedup  1.07
cpu  time for SCC    0.00 s
wall time for SCC    0.00 s

   *** convergence criteria satisfied after 3 iterations ***

          eigenvalues
 #    :          28         29         30         31         32         33         34         35
 occ. :        2.000      2.000      2.000      2.000      2.000      2.000      2.000      2.000
 eps  :       -13.371    -12.832    -12.703    -12.404    -12.334    -12.242    -12.148    -11.989
 #    :          36         37         38         39         40         41         42         43
 occ. :        2.000      2.000      2.000      2.000      2.000      0.000      0.000      0.000
 eps  :       -11.857    -11.745    -11.624    -11.389    -11.232     -2.238     -1.192     -0.136
 #    :          44         45         46         47         48         49         50         51
 occ. :        0.000      0.000      0.000      0.000      0.000      0.000      0.000      0.000
 eps  :         0.627      1.114      1.618      2.205      2.240      3.545      4.468      4.951


   #   Z            q   n(s)   n(p)   n(d)      C6AA      α(0)
   1  16 S      1.629  1.586  1.819  0.967    90.408    16.003
   2   8 O     -0.750  1.773  4.977  0.000    30.049     7.352
   3   8 O     -0.676  1.761  4.915  0.000    28.063     7.102
   4   8 O     -0.632  1.756  4.877  0.000    25.941     6.876
   5   8 O     -0.723  1.769  4.955  0.000    29.343     7.263
   6   1 H      0.339  0.661  0.000  0.000     0.613     1.230
   7   1 H      0.368  0.632  0.000  0.000     0.546     1.159
   8   8 O     -0.633  1.748  4.885  0.000    25.993     6.881
   9   1 H      0.285  0.715  0.000  0.000     0.769     1.377
  10   8 O     -0.639  1.744  4.895  0.000    26.136     6.900
  11   1 H      0.289  0.711  0.000  0.000     0.756     1.366
  12   8 O     -0.631  1.755  4.876  0.000    25.953     6.876
  13   1 H      0.290  0.710  0.000  0.000     0.751     1.362
  14   1 H      0.340  0.660  0.000  0.000     0.612     1.229
  15   8 O     -0.624  1.759  4.865  0.000    25.774     6.852
  16   1 H      0.325  0.675  0.000  0.000     0.651     1.268
  17   1 H      0.312  0.688  0.000  0.000     0.687     1.302
  18   8 O     -0.611  1.746  4.865  0.000    25.442     6.808
  19   1 H      0.328  0.672  0.000  0.000     0.643     1.260
  20   1 H      0.344  0.656  0.000  0.000     0.602     1.219
  21   1 H      0.320  0.680  0.000  0.000     0.664     1.280
  22   7 N     -0.351  1.276  4.075  0.000    29.031     8.002
  23   1 H      0.283  0.717  0.000  0.000     0.765     1.370
  24   1 H      0.280  0.720  0.000  0.000     0.776     1.380
  25   1 H      0.226  0.774  0.000  0.000     0.983     1.553
  26   1 H      0.314  0.686  0.000  0.000     0.670     1.280

 Mol. C6AA /au·bohr⁶  :       5443.729099
 Mol. C8AA /au·bohr⁸  :     117966.170639
 Mol. α(0) /au        :        106.548623

 
 Wiberg/Mayer (AO) data. WBOs > 0.1 written file <wbo>
 largest (>0.05) Wiberg bond orders for each atom
           total WBO             WBO to atom ...
     1  S   4.912    O    3 1.466    O    5 1.329    O    2 1.163    O    4 0.918
     2  O   1.772    S    1 1.163    H   26 0.198    O    3 0.099    O    5 0.097    O    4 0.073    N   22 0.071
     3  O   1.777    S    1 1.466    O    5 0.113    O    2 0.099    O    4 0.086
     4  O   1.950    S    1 0.918    H    7 0.759    O    3 0.086    O    2 0.073    O    5 0.064
     5  O   1.756    S    1 1.329    O    3 0.113    H    6 0.100    O    2 0.097    O    4 0.064
     6  H   0.885    O   10 0.777    O    5 0.100
     7  H   0.865    O    4 0.759    O   12 0.086
     8  O   1.872    H    9 0.910    H   20 0.785    H   24 0.061
     9  H   0.919    O    8 0.910
    10  O   1.868    H   11 0.906    H    6 0.777    H   23 0.063
    11  H   0.917    O   10 0.906
    12  O   1.878    H   13 0.911    H   14 0.790    H    7 0.086
    13  H   0.916    O   12 0.911
    14  H   0.884    O   12 0.790    O   15 0.093
    15  O   1.894    H   17 0.872    H   16 0.841    H   14 0.093
    16  H   0.895    O   15 0.841
    17  H   0.903    O   15 0.872
    18  O   1.903    H   21 0.883    H   19 0.855    H   20 0.095
    19  H   0.893    O   18 0.855
    20  H   0.881    O    8 0.785    O   18 0.095
    21  H   0.898    O   18 0.883
    22  N   3.509    H   25 0.946    H   24 0.857    H   23 0.851    H   26 0.694    O    2 0.071
    23  H   0.920    N   22 0.851    O   10 0.063
    24  H   0.922    N   22 0.857    O    8 0.061
    25  H   0.949    N   22 0.946
    26  H   0.902    N   22 0.694    O    2 0.198
 MOs/occ written to file <molden.input>
 
molecular dipole:
                 x           y           z       tot (Debye)
 q only:        0.847       3.118       0.635
   full:        0.667       2.912       0.401       7.661
molecular quadrupole (traceless):
                xx          xy          yy          xz          yz          zz
 q only:       -3.052     -16.649      -1.457      -3.717       7.747       4.509
  q+dip:       -2.520     -17.243      -0.770      -2.549       9.214       3.291
   full:       -2.434     -17.160      -0.658      -2.509       9.228       3.093

SCC energy    :     -50.7443475
rep           :       0.2860890
ES            :       0.2697049
AES           :      -0.0689490
AXC           :      -0.0083235
disp          :      -0.0200948
XB            :       0.0000000
fix           :       0.0000000
total E       :     -50.4578892
atomizationE  :       4.9881933     3130.14
(atE without considering molecular charge,
 total energy contains solvation terms)
H-L gap (eV)  :          8.9944
optimized geometry written to: xtbopt.xyz


------------------------------------------------------------------------
 * finished run on 2019/09/16 at 11:43:46.587     
------------------------------------------------------------------------
 total:
 * wall-time:     0 d,  0 h,  0 min,  1.817 sec
 *  cpu-time:     0 d,  0 h,  0 min,  1.795 sec
 * ratio c/w:     0.988 speedup
 SCF:
 * wall-time:     0 d,  0 h,  0 min,  0.147 sec
 *  cpu-time:     0 d,  0 h,  0 min,  0.143 sec
 * ratio c/w:     0.975 speedup
 ANC optimizer:
 * wall-time:     0 d,  0 h,  0 min,  1.645 sec
 *  cpu-time:     0 d,  0 h,  0 min,  1.629 sec
 * ratio c/w:     0.990 speedup

