      -----------------------------------------------------------      
     |                   =====================                   |     
     |                           x T B                           |     
     |                   =====================                   |     
     |                         S. Grimme                         |     
     |          Mulliken Center for Theoretical Chemistry        |     
     |                    University of Bonn                     |     
     |                 Version 6.0.1 (SAW181210)                 |     
      -----------------------------------------------------------      

   This program is distributed in the hope that it will be useful,
   but WITHOUT ANY WARRANTY; without even the implied warranty of
   MERCHANTABILITY or FITNESS FOR A PARTICULAR PURPOSE.
   
   FOR NON-COMMERCIAL, ACADEMIA USE ONLY.
   
   Cite this work as:
   S. Grimme, C. Bannwarth, P. Shushkov, J. Comput. Theory Chem., 2017,
   13, 1989-2009.
   C. Bannwarth, S. Ehlert and S. Grimme., ChemRxiv, 2018, preprint.
   http://doi.org/10.26434/chemrxiv.7246238.v1
   
   for sTDA-xTB:
   S. Grimme and C. Bannwarth, J. Chem. Phys., 2016, 145, 054103.
   
   in the mass-spec context:
   V. Asgeirsson, C. Bauer and S. Grimme, Chem. Sci., 2017, 8, 4879.
   
   if GBSA is used:
   P. Shushkov, F. März and S. Grimme, unpublished.
   
   for ANC optimizer:
   S. Grimme, unpublished.
   Rational Function algorithm used in ANCopt:
   F. Eckert, P. Pulay, H.-J. Werner, J. Comput. Chem., 1997, 18, 1473.
   
   with help from (in alphabetical order)
   C. Bannwarth, F. Bohle, G. Brandenburg, E. Caldeweyher, M. Checinski,
   S. Dohm, S. Ehlert, S. Ehrlich, F. März, H. Neugebauer, J. Pisarek,
   P. Pracht, P. Shushkov, and S. Spicher.
   
 * started run on 2019/09/16 at 11:29:12.995     
========================================================================
 # omp threads = 1
========================================================================
number of atoms            : 26
number of electrons        : 80
charge                     : 0
spin                       : .0
first test random number   : .7350

########################################################################
# WARNING! Please study the warnings concerning your input carefully
#  - XTBPATH is not set, using XTBHOME instead
#  - the use of '-opt' is discouraged, please use '--opt' next time
#  - the use of '-chrg' is discouraged, please use '--chrg' next time
#  - the use of '-uhf' is discouraged, please use '--uhf' next time
########################################################################

           ------------------------------------------------- 
          |                 G F N 2 - x T B                 |
          | Geometry, Frequencies, Noncovalent interactions |
          |            JCTC 2018 parametrisation            |
           ------------------------------------------------- 
      method parameters     
 k(s)        :  1.8500
 k(p)        :  2.2300
 k(d)        :  2.2300
 k(f)        :  2.0000
 kEN (H0ij)  : -2.0000
 D4 a1       :  0.5200
 D4 a2       :  5.0000
 D4 s6       :  1.0000
 D4 s8       :  2.7000
 D4 s9       :  5.0000
 alphaj      :  2.0000


            Z     q(EN)     CN     RAES       Cart. coordinates
     1  S   6.0    0.68    4.10    3.85     0.60983     2.64903     2.34243
     2  O   6.0   -0.34    1.29    1.80     2.46422     2.20061     0.27161
     3  O   6.0   -0.31    1.22    1.80    -1.76875     3.69865     1.26132
     4  O   6.0   -0.33    1.25    1.80     0.05428     0.21684     3.64778
     5  O   6.0   -0.26    1.11    1.80     1.68955     4.48001     4.18899
     6  O   6.0   -0.40    1.69    1.81    -2.42516    -1.73333    -2.36793
     7  H   1.0    0.17    0.95    1.42    -3.20221    -2.92074    -3.58036
     8  O   6.0   -0.29    2.04    1.83     2.64749     3.87335    -4.47328
     9  H   1.0    0.15    0.97    1.43     4.05350     4.88147    -5.04023
    10  H   1.0    0.17    1.04    1.43     2.99198     3.50753    -2.72339
    11  O   6.0   -0.22    2.92    2.58    -4.28137    -1.05608     1.76940
    12  H   1.0    0.13    0.96    1.43    -5.36420     0.46613     1.78393
    13  H   1.0    0.16    1.17    1.46    -3.74146    -1.51504     0.04085
    14  H   1.0    0.15    1.07    1.44    -2.82981    -0.89278     2.93464
    15  O   6.0   -0.23    2.93    2.60     1.92412    -2.49023    -1.09625
    16  H   1.0    0.15    1.07    1.44     2.61772    -0.78980    -0.75377
    17  H   1.0    0.12    1.06    1.44     2.06745    -3.61688     0.38703
    18  H   1.0    0.16    1.17    1.46     0.17497    -2.41348    -1.74902
    19  O   6.0   -0.22    2.92    2.60    -2.02705     2.70010    -3.51491
    20  H   1.0    0.15    1.06    1.44    -2.23076     3.57551    -1.87723
    21  H   1.0    0.14    1.04    1.43    -0.40668     3.12736    -4.34067
    22  H   1.0    0.16    1.16    1.46    -2.26430     0.85358    -3.35501
    23  N   5.0   -0.22    3.04    1.93     2.29330    -4.75893     3.50052
    24  H   1.0    0.11    0.99    1.43     4.07672    -4.90646     4.21376
    25  H   1.0    0.10    0.99    1.43     1.24724    -6.08342     4.42925
    26  H   1.0    0.13    1.02    1.43     1.62939    -3.05298     4.10054

  Z AO/shell   Hii/eV     exponent
  1     Wed Apr 25 08:07:45 CEST 2018   EN: 2.200 GM2: 0.406  GM3: 0.0800  RAES: 1.40
     1s    -10.707211    1.230000
  7     Wed Apr 25 08:07:45 CEST 2018   EN: 3.040 GM2: 0.461  GM3:-0.0640  RAES: 1.90
     2s    -16.686243    2.339881
     2p    -12.523956    2.014332
  8     Wed Apr 25 08:07:45 CEST 2018   EN: 3.440 GM2: 0.452  GM3:-0.0517  RAES: 1.80
     2s    -20.229985    2.439742
     2p    -15.503117    2.137023
 16     Tue Apr 24 11:44:34 CEST 2018   EN: 2.580 GM2: 0.340  GM3:-0.0502  RAES: 3.10
     3s    -20.029654    1.981333
     3p    -11.377694    2.025643
     3d     -0.420282    1.702555
 no old-style atom pair restraining (fixing) potential

molecular fragmentation (1/2 indicates fragments):
11111222222222222222222222
# atoms in fragment 1/2:     5    21
 fragment masses (1/2) :       96.06      109.12
CMA distance (Bohr)    :   4.710
constraining FC (au)   :  0.0500
           ------------------------------------------------- 
          |        Self-Consistent Charge Iterations        |
           ------------------------------------------------- 

 Ncao       : 65
 Nao        : 64
 Nshell     : 38
 Nel        : 80
 T(el)      :   300.0
 intcut     :    25.0
 scfconv/Eh :  0.100E-05
   qconv/e  :  0.100E-03
 intneglect :  0.100E-07
 broydamp   :      0.250
 iter      E             dE          RMSdq      gap      omega  full diag
   1    -50.5457146 -0.505457E+02  0.697E+00   10.18       0.0  T
   2    -50.5861069 -0.403922E-01  0.501E+00    9.62       1.0  T
   3    -50.6185353 -0.324284E-01  0.113E+00    6.77       1.0  T
   4    -50.6234233 -0.488808E-02  0.477E-01    6.95       1.0  T
   5    -50.6237872 -0.363849E-03  0.293E-01    6.75       1.0  T
   6    -50.6241855 -0.398311E-03  0.128E-01    6.78       1.0  T
   7    -50.6242822 -0.967393E-04  0.526E-02    6.87       1.0  T
   8    -50.6242950 -0.127776E-04  0.315E-02    6.87       1.0  T
   9    -50.6243009 -0.588914E-05  0.126E-02    6.87       1.6  T
  10    -50.6243018 -0.894165E-06  0.217E-03    6.87       9.0  T
  11    -50.6243018 -0.208203E-07  0.877E-04    6.87      22.4  T
  12    -50.6243018 -0.218377E-08  0.397E-04    6.87      49.4  T
speedup  1.00
cpu  time for SCC    0.01 s
wall time for SCC    0.01 s

   *** convergence criteria satisfied after 12 iterations ***

          eigenvalues
 #    :          28         29         30         31         32         33         34         35
 occ. :        2.000      2.000      2.000      2.000      2.000      2.000      2.000      2.000
 eps  :       -12.185    -11.975    -11.895    -11.828    -11.449    -10.722    -10.660    -10.084
 #    :          36         37         38         39         40         41         42         43
 occ. :        2.000      2.000      2.000      2.000      2.000      0.000      0.000      0.000
 eps  :        -9.963     -9.881     -9.454     -8.645     -8.616     -1.748     -0.251      0.170
 #    :          44         45         46         47         48         49         50         51
 occ. :        0.000      0.000      0.000      0.000      0.000      0.000      0.000      0.000
 eps  :         0.565      1.821      2.250      2.672      2.965      3.613      4.349      4.963


   #   Z            q   n(s)   n(p)   n(d)      C6AA      α(0)
   1  16 S      1.476  1.607  1.915  1.003    94.049    16.322
   2   8 O     -0.802  1.774  5.028  0.000    31.646     7.542
   3   8 O     -0.803  1.775  5.028  0.000    31.662     7.544
   4   8 O     -0.803  1.775  5.028  0.000    31.679     7.546
   5   8 O     -0.750  1.795  4.956  0.000    30.117     7.358
   6   8 O     -0.833  1.825  5.008  0.000    32.543     7.650
   7   1 H      0.223  0.777  0.000  0.000     1.009     1.578
   8   8 O     -0.622  1.729  4.893  0.000    25.716     6.844
   9   1 H      0.288  0.712  0.000  0.000     0.759     1.368
  10   1 H      0.339  0.661  0.000  0.000     0.615     1.231
  11   8 O     -0.423  1.648  4.775  0.000    21.236     6.224
  12   1 H      0.379  0.621  0.000  0.000     0.525     1.138
  13   1 H      0.407  0.593  0.000  0.000     0.468     1.072
  14   1 H      0.409  0.591  0.000  0.000     0.469     1.076
  15   8 O     -0.453  1.652  4.801  0.000    21.857     6.314
  16   1 H      0.400  0.600  0.000  0.000     0.485     1.094
  17   1 H      0.380  0.620  0.000  0.000     0.523     1.136
  18   1 H      0.398  0.602  0.000  0.000     0.485     1.091
  19   8 O     -0.453  1.655  4.799  0.000    21.857     6.314
  20   1 H      0.402  0.598  0.000  0.000     0.481     1.090
  21   1 H      0.402  0.598  0.000  0.000     0.482     1.091
  22   1 H      0.398  0.602  0.000  0.000     0.485     1.092
  23   7 N     -0.464  1.383  4.081  0.000    32.239     8.433
  24   1 H      0.152  0.848  0.000  0.000     1.384     1.843
  25   1 H      0.147  0.853  0.000  0.000     1.420     1.867
  26   1 H      0.208  0.792  0.000  0.000     1.067     1.618

 Mol. C6AA /au·bohr⁶  :       5548.251592
 Mol. C8AA /au·bohr⁸  :     120627.321802
 Mol. α(0) /au        :        107.477648

 
 Wiberg/Mayer (AO) data. WBOs > 0.1 written file <wbo>
 largest (>0.05) Wiberg bond orders for each atom
           total WBO             WBO to atom ...
     1  S   5.022    O    5 1.366    O    3 1.228    O    4 1.202    O    2 1.192
     2  O   1.683    S    1 1.192    H   16 0.102    O    5 0.094    O    3 0.092    O    4 0.086    H   10 0.054
     3  O   1.660    S    1 1.228    H   20 0.100    O    5 0.099    O    2 0.092    O    4 0.091
     4  O   1.676    S    1 1.202    H   14 0.110    O    5 0.096    O    3 0.091    O    2 0.086
     5  O   1.671    S    1 1.366    O    3 0.099    O    4 0.096    O    2 0.094
     6  O   1.671    H    7 0.944    H   13 0.186    H   18 0.175    H   22 0.172    O   11 0.060    O   15 0.058    O   19 0.057
     7  H   0.950    O    6 0.944
     8  O   1.849    H    9 0.904    H   10 0.827    H   21 0.067
     9  H   0.917    O    8 0.904
    10  H   0.885    O    8 0.827    O    2 0.054
    11  O   2.311    H   12 0.844    H   14 0.713    H   13 0.644    O    6 0.060
    12  H   0.856    O   11 0.844
    13  H   0.835    O   11 0.644    O    6 0.186
    14  H   0.833    O   11 0.713    O    4 0.110
    15  O   2.291    H   17 0.758    H   16 0.729    H   18 0.663    O    6 0.058
    16  H   0.840    O   15 0.729    O    2 0.102
    17  H   0.855    O   15 0.758    N   23 0.090
    18  H   0.842    O   15 0.663    O    6 0.175
    19  O   2.292    H   21 0.763    H   20 0.728    H   22 0.666    O    6 0.057
    20  H   0.838    O   19 0.728    O    3 0.100
    21  H   0.839    O   19 0.763    O    8 0.067
    22  H   0.842    O   19 0.666    O    6 0.172
    23  N   3.019    H   24 0.974    H   25 0.973    H   26 0.923    H   17 0.090
    24  H   0.977    N   23 0.974
    25  H   0.978    N   23 0.973
    26  H   0.957    N   23 0.923
 MOs/occ written to file <molden.input>
 
molecular dipole:
                 x           y           z       tot (Debye)
 q only:       -1.962      -3.521      -3.187
   full:       -1.651      -3.332      -2.583      11.508
molecular quadrupole (traceless):
                xx          xy          yy          xz          yz          zz
 q only:       15.874      -6.409      -8.243      -8.811     -25.858      -7.630
  q+dip:       15.438      -3.862      -8.764      -7.348     -27.088      -6.674
   full:       15.543      -3.683      -8.737      -7.336     -27.159      -6.806

SCC energy    :     -50.6243018
rep           :       0.2763984
ES            :       0.3633108
AES           :      -0.0807527
AXC           :      -0.0084533
disp          :      -0.0197368
XB            :       0.0000000
fix           :       0.0000000
total E       :     -50.3475880
atomizationE  :       4.8778922     3060.92
(atE without considering molecular charge,
 total energy contains solvation terms)
H-L gap (eV)  :          6.8680
           ------------------------------------------------- 
          |                 ===============                 |
          |                   A N C O P T                   |
          |                 ===============                 |
          |          Approximate Normal Coordinate          |
          |           Rational Function Optimizer           |
           ------------------------------------------------- 
dumping coords to <xtbopt.coord> and <xtbopt.log>
 optlevel               2
 Maxcycle             520
 Maxmicro              25
 Econv         1.000000000000000E-007
 Gconv         2.000000000000000E-004
 Maxdispl       1.00000000000000     
 Hlow          5.000000000000000E-003
 S6             20.0000000000000     
 Nvar               72

generating ANC from model Hessian ...
 Shifting diagonal of input Hessian by   4.784415063779446E-003
 Lowest  eigenvalues of input Hessian
   -0.000000   -0.000000   -0.000000    0.000000    0.000000    0.000000
    0.005000    0.005044    0.005842    0.006135    0.006601    0.006669
    0.007605    0.008123    0.008545    0.008853    0.009974    0.010681
 Highest eigenvalues
    1.577457    1.578254    1.579314    3.082759    3.083087    3.084328
 
cpu  time for ANC gen    0.02 s
wall time for ANC gen    0.02 s
................................................................................
.............................. CYCLE    1 ......................................
................................................................................
   1    -50.6243018 -0.506243E+02  0.132E-04    6.87       0.0  T
   2    -50.6243018 -0.374598E-10  0.935E-05    6.87     209.7  T
   3    -50.6243018 -0.236824E-10  0.578E-05    6.87     339.2  T
speedup  0.97
cpu  time for SCC    0.00 s
wall time for SCC    0.00 s
speedup  1.00
cpu  time for grad    0.01 s
wall time for grad    0.01 s
 E :    -50.34758798  G :  0.204127    pred/act E change:  0.000D+00  0.265D-07
Maxdispl :   0.2529   ||displ|| :   0.4636   Lambda : -0.497D-01
Largest |displ|/coords:  0.2529 (  32)  0.1649 (  21)  0.1298 (  54)
................................................................................
.............................. CYCLE    2 ......................................
................................................................................
   1    -50.6419778 -0.506420E+02  0.380E-01    7.11       0.0  T
   2    -50.6424125 -0.434717E-03  0.283E-01    7.29       1.0  T
   3    -50.6426172 -0.204689E-03  0.107E-01    7.59       1.0  T
   4    -50.6426355 -0.183123E-04  0.315E-02    7.61       1.0  T
   5    -50.6426403 -0.473978E-05  0.990E-03    7.59       2.0  T
   6    -50.6426405 -0.189686E-06  0.486E-03    7.59       4.0  T
   7    -50.6426406 -0.111212E-06  0.208E-03    7.59       9.4  T
speedup  1.04
cpu  time for SCC    0.01 s
wall time for SCC    0.01 s
speedup  0.99
cpu  time for grad    0.01 s
wall time for grad    0.02 s
 E :    -50.38936224  G :  0.130479    pred/act E change:  0.000D+00 -0.418D-01
Maxdispl :   0.3360   ||displ|| :   0.5028   Lambda : -0.326D-01
Largest |displ|/coords:  0.3360 (  32)  0.1739 (  21)  0.1364 (  27)
................................................................................
.............................. CYCLE    3 ......................................
................................................................................
   1    -50.6520414 -0.506520E+02  0.397E-01    7.84       0.0  T
   2    -50.6528139 -0.772494E-03  0.287E-01    8.01       1.0  T
   3    -50.6531871 -0.373170E-03  0.122E-01    8.27       1.0  T
   4    -50.6532088 -0.216794E-04  0.343E-02    8.30       1.0  T
   5    -50.6532129 -0.415270E-05  0.117E-02    8.30       1.7  T
   6    -50.6532133 -0.346277E-06  0.593E-03    8.29       3.3  T
   7    -50.6532134 -0.148675E-06  0.250E-03    8.29       7.9  T
speedup  1.04
cpu  time for SCC    0.01 s
wall time for SCC    0.01 s
speedup  0.99
cpu  time for grad    0.01 s
wall time for grad    0.02 s
 E :    -50.41472045  G :  0.079002    pred/act E change: -0.302D-01 -0.254D-01
Maxdispl :   0.2210   ||displ|| :   0.4350   Lambda : -0.133D-01
Largest |displ|/coords:  0.2210 (  32)  0.1423 (   8)  0.1362 (  21)
................................................................................
.............................. CYCLE    4 ......................................
................................................................................
   1    -50.6553603 -0.506554E+02  0.333E-01    8.44       0.0  T
   2    -50.6559939 -0.633600E-03  0.235E-01    8.55       1.0  T
   3    -50.6562916 -0.297737E-03  0.104E-01    8.70       1.0  T
   4    -50.6563062 -0.145141E-04  0.280E-02    8.73       1.0  T
   5    -50.6563084 -0.223961E-05  0.954E-03    8.73       2.1  T
   6    -50.6563086 -0.234560E-06  0.500E-03    8.72       3.9  T
   7    -50.6563087 -0.867813E-07  0.198E-03    8.72       9.9  T
speedup  1.04
cpu  time for SCC    0.01 s
wall time for SCC    0.01 s
speedup  1.05
cpu  time for grad    0.02 s
wall time for grad    0.02 s
 E :    -50.42350225  G :  0.048591    pred/act E change: -0.204D-01 -0.878D-02
Maxdispl :   0.1552   ||displ|| :   0.3816   Lambda : -0.507D-02
Largest |displ|/coords:  0.1552 (   5)  0.1481 (  15)  0.1374 (   6)
................................................................................
.............................. CYCLE    5 ......................................
................................................................................
   1    -50.6566808 -0.506567E+02  0.307E-01    8.75       0.0  T
   2    -50.6568906 -0.209814E-03  0.226E-01    8.81       1.0  T
   3    -50.6569762 -0.855551E-04  0.782E-02    8.91       1.0  T
   4    -50.6569886 -0.124087E-04  0.188E-02    8.90       1.0  T
   5    -50.6569902 -0.163740E-05  0.571E-03    8.90       3.4  T
   6    -50.6569903 -0.527869E-07  0.271E-03    8.90       7.2  T
speedup  0.88
cpu  time for SCC    0.00 s
wall time for SCC    0.01 s
speedup  0.99
cpu  time for grad    0.01 s
wall time for grad    0.01 s
 E :    -50.42654334  G :  0.030166    pred/act E change: -0.788D-02 -0.304D-02
Maxdispl :   0.1766   ||displ|| :   0.3707   Lambda : -0.294D-02
Largest |displ|/coords:  0.1766 (   8)  0.1184 (   7)  0.1174 (   5)
................................................................................
.............................. CYCLE    6 ......................................
................................................................................
   1    -50.6629931 -0.506630E+02  0.304E-01    8.90       0.0  T
   2    -50.6631991 -0.206052E-03  0.224E-01    8.94       1.0  T
   3    -50.6632816 -0.825022E-04  0.758E-02    9.01       1.0  T
   4    -50.6632974 -0.157802E-04  0.189E-02    9.00       1.0  T
   5    -50.6632985 -0.115073E-05  0.569E-03    9.00       3.4  T
   6    -50.6632986 -0.458442E-07  0.291E-03    9.00       6.7  T
speedup  1.07
cpu  time for SCC    0.01 s
wall time for SCC    0.01 s
speedup  1.00
cpu  time for grad    0.01 s
wall time for grad    0.01 s
 E :    -50.42725791  G :  0.032248    pred/act E change: -0.291D-02 -0.715D-03
Maxdispl :   0.1286   ||displ|| :   0.2520   Lambda : -0.225D-02
Largest |displ|/coords:  0.1286 (  15)  0.1002 (  12)  0.0868 (   1)
................................................................................
.............................. CYCLE    7 ......................................
................................................................................
   1    -50.6658567 -0.506659E+02  0.326E-01    9.03       0.0  T
   2    -50.6659004 -0.436787E-04  0.247E-01    9.03       1.0  T
   3    -50.6659280 -0.275587E-04  0.353E-02    9.03       1.0  T
   4    -50.6659355 -0.754640E-05  0.875E-03    9.04       2.2  T
   5    -50.6659357 -0.163846E-06  0.369E-03    9.04       5.3  T
   6    -50.6659357 -0.897059E-08  0.191E-03    9.04      10.3  T
speedup  1.05
cpu  time for SCC    0.01 s
wall time for SCC    0.01 s
speedup  0.99
cpu  time for grad    0.01 s
wall time for grad    0.01 s
 E :    -50.42826083  G :  0.029606    pred/act E change: -0.167D-02 -0.100D-02
Maxdispl :   0.0694   ||displ|| :   0.1871   Lambda : -0.143D-02
Largest |displ|/coords:  0.0694 (   4)  0.0612 (  32)  0.0573 (  16)
................................................................................
.............................. CYCLE    8 ......................................
................................................................................
   1    -50.6663457 -0.506663E+02  0.117E-01    8.95       0.0  T
   2    -50.6663864 -0.407413E-04  0.840E-02    8.93       1.0  T
   3    -50.6664038 -0.174283E-04  0.289E-02    8.91       1.0  T
   4    -50.6664061 -0.224610E-05  0.627E-03    8.91       3.1  T
   5    -50.6664062 -0.642023E-07  0.220E-03    8.91       8.9  T
   6    -50.6664062 -0.893451E-08  0.103E-03    8.91      19.0  T
speedup  1.03
cpu  time for SCC    0.01 s
wall time for SCC    0.01 s
speedup  1.06
cpu  time for grad    0.01 s
wall time for grad    0.01 s
 E :    -50.42870776  G :  0.017770    pred/act E change: -0.120D-02 -0.447D-03
Maxdispl :   0.0778   ||displ|| :   0.1719   Lambda : -0.889D-03
Largest |displ|/coords:  0.0778 (   1)  0.0653 (  11)  0.0633 (   2)
................................................................................
.............................. CYCLE    9 ......................................
................................................................................
   1    -50.6642196 -0.506642E+02  0.136E-01    8.89       0.0  T
   2    -50.6642390 -0.194097E-04  0.101E-01    8.89       1.0  T
   3    -50.6642476 -0.861172E-05  0.226E-02    8.90       1.0  T
   4    -50.6642503 -0.266553E-05  0.592E-03    8.90       3.3  T
   5    -50.6642504 -0.641208E-07  0.248E-03    8.90       7.9  T
   6    -50.6642504 -0.727548E-08  0.134E-03    8.90      14.7  T
speedup  0.89
cpu  time for SCC    0.00 s
wall time for SCC    0.01 s
speedup  0.99
cpu  time for grad    0.01 s
wall time for grad    0.01 s
 E :    -50.42927422  G :  0.018136    pred/act E change: -0.741D-03 -0.566D-03
Maxdispl :   0.1337   ||displ|| :   0.2431   Lambda : -0.142D-02
Largest |displ|/coords:  0.1337 (   1)  0.0712 (  24)  0.0669 (  14)
................................................................................
.............................. CYCLE   10 ......................................
................................................................................
   1    -50.6698270 -0.506698E+02  0.198E-01    8.93       0.0  T
   2    -50.6700105 -0.183489E-03  0.140E-01    8.94       1.0  T
   3    -50.6700983 -0.877672E-04  0.593E-02    8.95       1.0  T
   4    -50.6701047 -0.645643E-05  0.154E-02    8.96       1.3  T
   5    -50.6701053 -0.529152E-06  0.602E-03    8.96       3.3  T
   6    -50.6701053 -0.501691E-07  0.315E-03    8.96       6.2  T
   7    -50.6701053 -0.168895E-07  0.715E-04    8.96      27.4  T
   8    -50.6701053 -0.240162E-08  0.266E-04    8.96      73.6  T
speedup  0.95
cpu  time for SCC    0.01 s
wall time for SCC    0.01 s
speedup  0.99
cpu  time for grad    0.02 s
wall time for grad    0.02 s
 E :    -50.42944371  G :  0.025845    pred/act E change: -0.457D-03 -0.169D-03
Maxdispl :   0.1356   ||displ|| :   0.2434   Lambda : -0.142D-02
Largest |displ|/coords:  0.1356 (   2)  0.0948 (   1)  0.0923 (  15)
................................................................................
.............................. CYCLE   11 ......................................
................................................................................
   1    -50.6679210 -0.506679E+02  0.244E-01    8.95       0.0  T
   2    -50.6679525 -0.315104E-04  0.182E-01    8.95       1.0  T
   3    -50.6679695 -0.170038E-04  0.313E-02    8.95       1.0  T
   4    -50.6679744 -0.491677E-05  0.105E-02    8.95       1.9  T
   5    -50.6679746 -0.206310E-06  0.346E-03    8.95       5.7  T
   6    -50.6679746 -0.138046E-07  0.210E-03    8.95       9.3  T
speedup  1.07
cpu  time for SCC    0.01 s
wall time for SCC    0.01 s
speedup  1.00
cpu  time for grad    0.01 s
wall time for grad    0.01 s
 E :    -50.43001372  G :  0.024231    pred/act E change: -0.750D-03 -0.570D-03
Maxdispl :   0.0930   ||displ|| :   0.2007   Lambda : -0.108D-02
Largest |displ|/coords:  0.0930 (  10)  0.0771 (   6)  0.0711 (   8)
................................................................................
.............................. CYCLE   12 ......................................
................................................................................
   1    -50.6674167 -0.506674E+02  0.121E-01    8.95       0.0  T
   2    -50.6674324 -0.157445E-04  0.893E-02    8.95       1.0  T
   3    -50.6674409 -0.851241E-05  0.213E-02    8.94       1.0  T
   4    -50.6674429 -0.198792E-05  0.514E-03    8.94       3.8  T
   5    -50.6674430 -0.328041E-07  0.204E-03    8.94       9.6  T
speedup  1.00
cpu  time for SCC    0.00 s
wall time for SCC    0.01 s
speedup  1.02
cpu  time for grad    0.01 s
wall time for grad    0.01 s
 E :    -50.43027902  G :  0.015683    pred/act E change: -0.750D-03 -0.265D-03
Maxdispl :   0.0707   ||displ|| :   0.1504   Lambda : -0.720D-03
Largest |displ|/coords:  0.0707 (   1)  0.0522 (  11)  0.0507 (  10)
................................................................................
.............................. CYCLE   13 ......................................
................................................................................
   1    -50.6703520 -0.506704E+02  0.889E-02    8.93       0.0  T
   2    -50.6703642 -0.122292E-04  0.649E-02    8.94       1.0  T
   3    -50.6703699 -0.573588E-05  0.202E-02    8.95       1.0  T
   4    -50.6703709 -0.100826E-05  0.580E-03    8.95       3.4  T
   5    -50.6703710 -0.839310E-07  0.193E-03    8.95      10.1  T
   6    -50.6703710 -0.419745E-08  0.114E-03    8.95      17.2  T
speedup  1.02
cpu  time for SCC    0.01 s
wall time for SCC    0.01 s
speedup  1.03
cpu  time for grad    0.01 s
wall time for grad    0.01 s
 E :    -50.43072315  G :  0.013657    pred/act E change: -0.562D-03 -0.444D-03
Maxdispl :   0.1933   ||displ|| :   0.2895   Lambda : -0.900D-03
Largest |displ|/coords:  0.1933 (   1)  0.0817 (   7)  0.0731 (   2)
................................................................................
.............................. CYCLE   14 ......................................
................................................................................
   1    -50.6740585 -0.506741E+02  0.205E-01    9.00       0.0  T
   2    -50.6741766 -0.118064E-03  0.152E-01    9.00       1.0  T
   3    -50.6742341 -0.574781E-04  0.596E-02    8.96       1.0  T
   4    -50.6742420 -0.790712E-05  0.177E-02    8.95       1.1  T
   5    -50.6742427 -0.757462E-06  0.603E-03    8.96       3.3  T
   6    -50.6742428 -0.366445E-07  0.316E-03    8.96       6.2  T
   7    -50.6742428 -0.163485E-07  0.685E-04    8.96      28.6  T
   8    -50.6742428 -0.222916E-08  0.212E-04    8.96      92.4  T
speedup  1.03
cpu  time for SCC    0.01 s
wall time for SCC    0.01 s
speedup  0.98
cpu  time for grad    0.02 s
wall time for grad    0.02 s
 E :    -50.43121563  G :  0.020082    pred/act E change: -0.368D-03 -0.492D-03
Maxdispl :   0.1799   ||displ|| :   0.2902   Lambda : -0.967D-03
Largest |displ|/coords:  0.1799 (   1)  0.0730 (   4)  0.0717 (  15)
................................................................................
.............................. CYCLE   15 ......................................
................................................................................
   1    -50.6791619 -0.506792E+02  0.177E-01    8.98       0.0  T
   2    -50.6792039 -0.420208E-04  0.134E-01    8.95       1.0  T
   3    -50.6792289 -0.249647E-04  0.406E-02    8.88       1.0  T
   4    -50.6792338 -0.492595E-05  0.128E-02    8.88       1.5  T
   5    -50.6792342 -0.381307E-06  0.402E-03    8.89       4.9  T
   6    -50.6792342 -0.188279E-07  0.234E-03    8.89       8.4  T
speedup  0.85
cpu  time for SCC    0.00 s
wall time for SCC    0.01 s
speedup  0.97
cpu  time for grad    0.01 s
wall time for grad    0.01 s
 E :    -50.43200247  G :  0.025411    pred/act E change: -0.487D-03 -0.787D-03
Maxdispl :   0.3390   ||displ|| :   0.5938   Lambda : -0.315D-02
Largest |displ|/coords:  0.3390 (   1)  0.1731 (  15)  0.1579 (  24)
................................................................................
.............................. CYCLE   16 ......................................
................................................................................
   1    -50.6854816 -0.506855E+02  0.387E-01    8.95       0.0  T
   2    -50.6857263 -0.244673E-03  0.287E-01    8.94       1.0  T
   3    -50.6858709 -0.144585E-03  0.915E-02    8.91       1.0  T
   4    -50.6858979 -0.270241E-04  0.239E-02    8.90       1.0  T
   5    -50.6858991 -0.124780E-05  0.100E-02    8.91       2.0  T
   6    -50.6858992 -0.895039E-07  0.493E-03    8.91       4.0  T
   7    -50.6858993 -0.437757E-07  0.124E-03    8.91      15.8  T
speedup  1.03
cpu  time for SCC    0.01 s
wall time for SCC    0.01 s
speedup  1.03
cpu  time for grad    0.02 s
wall time for grad    0.02 s
 E :    -50.43422251  G :  0.040912    pred/act E change: -0.524D-03 -0.222D-02
Maxdispl :   0.2517   ||displ|| :   0.4650   Lambda : -0.411D-02
Largest |displ|/coords:  0.2517 (  24)  0.1260 (  26)  0.1248 (   4)
................................................................................
.............................. CYCLE   17 ......................................
................................................................................
   1    -50.7034531 -0.507035E+02  0.371E-01    9.01       0.0  T
   2    -50.7038837 -0.430644E-03  0.268E-01    9.08       1.0  T
   3    -50.7041270 -0.243283E-03  0.103E-01    9.06       1.0  T
   4    -50.7041597 -0.326962E-04  0.224E-02    9.06       1.0  T
   5    -50.7041604 -0.740388E-06  0.108E-02    9.06       1.8  T
   6    -50.7041605 -0.930622E-07  0.446E-03    9.06       4.4  T
   7    -50.7041606 -0.277699E-07  0.124E-03    9.06      15.8  T
speedup  1.03
cpu  time for SCC    0.01 s
wall time for SCC    0.01 s
speedup  0.98
cpu  time for grad    0.01 s
wall time for grad    0.02 s
 E :    -50.43564391  G :  0.074262    pred/act E change: -0.213D-02 -0.142D-02
Maxdispl :   0.1415   ||displ|| :   0.3286   Lambda : -0.805D-02
Largest |displ|/coords:  0.1415 (   1)  0.0997 (  17)  0.0926 (  16)
................................................................................
.............................. CYCLE   18 ......................................
................................................................................
   1    -50.6860349 -0.506860E+02  0.344E-01    8.92       0.0  T
   2    -50.6862489 -0.214025E-03  0.247E-01    8.93       1.0  T
   3    -50.6863650 -0.116029E-03  0.738E-02    8.91       1.0  T
   4    -50.6863818 -0.168666E-04  0.180E-02    8.90       1.1  T
   5    -50.6863823 -0.488891E-06  0.751E-03    8.91       2.6  T
   6    -50.6863824 -0.858331E-07  0.349E-03    8.91       5.6  T
   7    -50.6863824 -0.203234E-07  0.102E-03    8.91      19.2  T
speedup  1.04
cpu  time for SCC    0.01 s
wall time for SCC    0.01 s
speedup  1.05
cpu  time for grad    0.02 s
wall time for grad    0.02 s
 E :    -50.43629026  G :  0.064279    pred/act E change: -0.250D-02 -0.646D-03
Maxdispl :   0.1798   ||displ|| :   0.3727   Lambda : -0.113D-01
Largest |displ|/coords:  0.1798 (  24)  0.1280 (  16)  0.0985 (   1)
................................................................................
.............................. CYCLE   19 ......................................
................................................................................
   1    -50.7062793 -0.507063E+02  0.444E-01    8.94       0.0  T
   2    -50.7067015 -0.422202E-03  0.321E-01    8.91       1.0  T
   3    -50.7069412 -0.239685E-03  0.103E-01    8.82       1.0  T
   4    -50.7069740 -0.327216E-04  0.230E-02    8.84       1.0  T
   5    -50.7069749 -0.977419E-06  0.103E-02    8.84       1.9  T
   6    -50.7069750 -0.943571E-07  0.439E-03    8.83       4.5  T
   7    -50.7069751 -0.373464E-07  0.132E-03    8.83      14.9  T
speedup  0.91
cpu  time for SCC    0.01 s
wall time for SCC    0.01 s
speedup  0.99
cpu  time for grad    0.01 s
wall time for grad    0.02 s
 E :    -50.43818689  G :  0.078441    pred/act E change: -0.446D-02 -0.190D-02
Maxdispl :   0.1125   ||displ|| :   0.2921   Lambda : -0.929D-02
Largest |displ|/coords:  0.1125 (   1)  0.0976 (  29)  0.0728 (  16)
................................................................................
.............................. CYCLE   20 ......................................
................................................................................
   1    -50.7075042 -0.507075E+02  0.353E-01    8.84       0.0  T
   2    -50.7076707 -0.166525E-03  0.259E-01    8.82       1.0  T
   3    -50.7077786 -0.107960E-03  0.725E-02    8.77       1.0  T
   4    -50.7077947 -0.160678E-04  0.239E-02    8.77       1.0  T
   5    -50.7077958 -0.104220E-05  0.834E-03    8.77       2.4  T
   6    -50.7077958 -0.959081E-07  0.457E-03    8.77       4.3  T
   7    -50.7077959 -0.293049E-07  0.115E-03    8.77      17.0  T
speedup  0.91
cpu  time for SCC    0.01 s
wall time for SCC    0.01 s
speedup  0.99
cpu  time for grad    0.01 s
wall time for grad    0.02 s
 E :    -50.44087356  G :  0.057084    pred/act E change: -0.645D-02 -0.269D-02
Maxdispl :   0.1126   ||displ|| :   0.2536   Lambda : -0.687D-02
Largest |displ|/coords:  0.1126 (  23)  0.1079 (  29)  0.0759 (  24)
................................................................................
.............................. CYCLE   21 ......................................
................................................................................
   1    -50.7022710 -0.507023E+02  0.267E-01    8.63       0.0  T
   2    -50.7023876 -0.116628E-03  0.197E-01    8.62       1.0  T
   3    -50.7024635 -0.759122E-04  0.598E-02    8.60       1.0  T
   4    -50.7024743 -0.107360E-04  0.205E-02    8.60       1.0  T
   5    -50.7024751 -0.820720E-06  0.746E-03    8.60       2.6  T
   6    -50.7024752 -0.747214E-07  0.359E-03    8.60       5.5  T
   7    -50.7024752 -0.186680E-07  0.103E-03    8.60      19.1  T
speedup  0.90
cpu  time for SCC    0.01 s
wall time for SCC    0.01 s
speedup  0.99
cpu  time for grad    0.01 s
wall time for grad    0.02 s
 E :    -50.44239465  G :  0.044796    pred/act E change: -0.504D-02 -0.152D-02
Maxdispl :   0.1061   ||displ|| :   0.2269   Lambda : -0.378D-02
Largest |displ|/coords:  0.1061 (  24)  0.0850 (   1)  0.0697 (  48)
................................................................................
.............................. CYCLE   22 ......................................
................................................................................
   1    -50.7214400 -0.507214E+02  0.170E-01    8.65       0.0  T
   2    -50.7215372 -0.971765E-04  0.126E-01    8.60       1.0  T
   3    -50.7215987 -0.614978E-04  0.535E-02    8.52       1.0  T
   4    -50.7216070 -0.828517E-05  0.172E-02    8.52       1.1  T
   5    -50.7216076 -0.676930E-06  0.636E-03    8.52       3.1  T
   6    -50.7216077 -0.273421E-07  0.278E-03    8.52       7.1  T
   7    -50.7216077 -0.693718E-08  0.701E-04    8.52      28.0  T
speedup  1.03
cpu  time for SCC    0.01 s
wall time for SCC    0.01 s
speedup  0.97
cpu  time for grad    0.01 s
wall time for grad    0.02 s
 E :    -50.44472050  G :  0.048686    pred/act E change: -0.366D-02 -0.233D-02
Maxdispl :   0.0844   ||displ|| :   0.2598   Lambda : -0.480D-02
Largest |displ|/coords:  0.0844 (  21)  0.0839 (  33)  0.0758 (  24)
................................................................................
.............................. CYCLE   23 ......................................
................................................................................
   1    -50.7307201 -0.507307E+02  0.217E-01    8.54       0.0  T
   2    -50.7307810 -0.609402E-04  0.158E-01    8.49       1.0  T
   3    -50.7308174 -0.363788E-04  0.468E-02    8.42       1.0  T
   4    -50.7308232 -0.580332E-05  0.186E-02    8.42       1.1  T
   5    -50.7308237 -0.521987E-06  0.498E-03    8.42       3.9  T
   6    -50.7308238 -0.324833E-07  0.282E-03    8.42       7.0  T
speedup  1.07
cpu  time for SCC    0.01 s
wall time for SCC    0.01 s
speedup  1.00
cpu  time for grad    0.01 s
wall time for grad    0.01 s
 E :    -50.44656711  G :  0.039197    pred/act E change: -0.199D-02 -0.185D-02
Maxdispl :   0.1788   ||displ|| :   0.3191   Lambda : -0.348D-02
Largest |displ|/coords:  0.1788 (  24)  0.0899 (   5)  0.0896 (   1)
................................................................................
.............................. CYCLE   24 ......................................
................................................................................
   1    -50.7309941 -0.507310E+02  0.234E-01    8.30       0.0  T
   2    -50.7310943 -0.100188E-03  0.174E-01    8.28       1.0  T
   3    -50.7311598 -0.655082E-04  0.535E-02    8.22       1.0  T
   4    -50.7311700 -0.101957E-04  0.129E-02    8.21       1.5  T
   5    -50.7311702 -0.243381E-06  0.625E-03    8.22       3.1  T
   6    -50.7311703 -0.317635E-07  0.253E-03    8.22       7.7  T
   7    -50.7311703 -0.109880E-07  0.633E-04    8.22      31.0  T
speedup  1.03
cpu  time for SCC    0.01 s
wall time for SCC    0.01 s
speedup  1.05
cpu  time for grad    0.02 s
wall time for grad    0.02 s
 E :    -50.44767783  G :  0.041390    pred/act E change: -0.256D-02 -0.111D-02
Maxdispl :   0.0854   ||displ|| :   0.2615   Lambda : -0.445D-02
Largest |displ|/coords:  0.0854 (  33)  0.0814 (   5)  0.0770 (   3)
................................................................................
.............................. CYCLE   25 ......................................
................................................................................
   1    -50.7237563 -0.507238E+02  0.217E-01    8.13       0.0  T
   2    -50.7238163 -0.599994E-04  0.160E-01    8.14       1.0  T
   3    -50.7238601 -0.438220E-04  0.426E-02    8.16       1.0  T
   4    -50.7238659 -0.579635E-05  0.161E-02    8.15       1.2  T
   5    -50.7238663 -0.425335E-06  0.498E-03    8.15       3.9  T
   6    -50.7238664 -0.290421E-07  0.272E-03    8.15       7.2  T
speedup  0.88
cpu  time for SCC    0.00 s
wall time for SCC    0.01 s
speedup  0.99
cpu  time for grad    0.01 s
wall time for grad    0.01 s
 E :    -50.44853368  G :  0.033860    pred/act E change: -0.192D-02 -0.856D-03
Maxdispl :   0.0886   ||displ|| :   0.1714   Lambda : -0.202D-02
Largest |displ|/coords:  0.0886 (   4)  0.0583 (   1)  0.0509 (  17)

generating ANC from model Hessian ...
 Shifting diagonal of input Hessian by   4.873178917352990E-003
 Lowest  eigenvalues of input Hessian
   -0.000000   -0.000000    0.000000    0.000000    0.000000    0.000000
    0.005000    0.005068    0.005388    0.006133    0.006213    0.006464
    0.006778    0.006977    0.007450    0.008882    0.009330    0.010074
 Highest eigenvalues
    1.392446    1.406759    1.430032    2.626661    3.247058    3.801839
 
cpu  time for ANC gen    0.02 s
wall time for ANC gen    0.02 s
................................................................................
.............................. CYCLE   26 ......................................
................................................................................
   1    -50.7343622 -0.507344E+02  0.117E-01    8.23       0.0  T
   2    -50.7343827 -0.205545E-04  0.845E-02    8.20       1.0  T
   3    -50.7343926 -0.985794E-05  0.256E-02    8.16       1.0  T
   4    -50.7343944 -0.183086E-05  0.686E-03    8.17       2.9  T
   5    -50.7343945 -0.833040E-07  0.275E-03    8.17       7.1  T
   6    -50.7343945 -0.868567E-08  0.121E-03    8.17      16.2  T
   7    -50.7343945 -0.275078E-08  0.431E-04    8.17      45.5  T
   8    -50.7343945 -0.428784E-09  0.112E-04    8.17     175.1  T
speedup  1.05
cpu  time for SCC    0.01 s
wall time for SCC    0.01 s
speedup  1.02
cpu  time for grad    0.02 s
wall time for grad    0.02 s
 E :    -50.44945591  G :  0.018057    pred/act E change:  0.000D+00 -0.922D-03
Maxdispl :   0.0527   ||displ|| :   0.1512   Lambda : -0.671D-03
Largest |displ|/coords:  0.0527 (   2)  0.0479 (   7)  0.0465 (   9)
................................................................................
.............................. CYCLE   27 ......................................
................................................................................
   1    -50.7326259 -0.507326E+02  0.705E-02    8.17       0.0  T
   2    -50.7326308 -0.493064E-05  0.522E-02    8.18       1.0  T
   3    -50.7326332 -0.236341E-05  0.129E-02    8.18       1.5  T
   4    -50.7326338 -0.626326E-06  0.380E-03    8.18       5.2  T
   5    -50.7326339 -0.353529E-07  0.133E-03    8.18      14.8  T
   6    -50.7326339 -0.228119E-08  0.702E-04    8.18      27.9  T
speedup  1.03
cpu  time for SCC    0.01 s
wall time for SCC    0.01 s
speedup  0.97
cpu  time for grad    0.01 s
wall time for grad    0.01 s
 E :    -50.44988400  G :  0.009042    pred/act E change:  0.000D+00 -0.428D-03
Maxdispl :   0.0754   ||displ|| :   0.1650   Lambda : -0.336D-03
Largest |displ|/coords:  0.0754 (   6)  0.0700 (   9)  0.0633 (   3)
................................................................................
.............................. CYCLE   28 ......................................
................................................................................
   1    -50.7318952 -0.507319E+02  0.740E-02    8.18       0.0  T
   2    -50.7318989 -0.371125E-05  0.552E-02    8.18       1.0  T
   3    -50.7319006 -0.168605E-05  0.115E-02    8.19       1.7  T
   4    -50.7319011 -0.583885E-06  0.368E-03    8.18       5.3  T
   5    -50.7319012 -0.243711E-07  0.121E-03    8.18      16.3  T
   6    -50.7319012 -0.213144E-08  0.657E-04    8.18      29.9  T
speedup  1.05
cpu  time for SCC    0.01 s
wall time for SCC    0.01 s
speedup  0.99
cpu  time for grad    0.01 s
wall time for grad    0.01 s
 E :    -50.45004204  G :  0.009095    pred/act E change: -0.343D-03 -0.158D-03
Maxdispl :   0.0581   ||displ|| :   0.1419   Lambda : -0.196D-03
Largest |displ|/coords:  0.0581 (   7)  0.0579 (   1)  0.0513 (   8)
................................................................................
.............................. CYCLE   29 ......................................
................................................................................
   1    -50.7327086 -0.507327E+02  0.592E-02    8.21       0.0  T
   2    -50.7327106 -0.196672E-05  0.448E-02    8.21       1.0  T
   3    -50.7327117 -0.106812E-05  0.821E-03    8.20       2.4  T
   4    -50.7327120 -0.341496E-06  0.308E-03    8.20       6.4  T
   5    -50.7327120 -0.173917E-07  0.999E-04    8.20      19.6  T
   6    -50.7327120 -0.147107E-08  0.544E-04    8.20      36.0  T
speedup  1.05
cpu  time for SCC    0.01 s
wall time for SCC    0.01 s
speedup  1.06
cpu  time for grad    0.01 s
wall time for grad    0.01 s
 E :    -50.45017458  G :  0.008787    pred/act E change: -0.173D-03 -0.133D-03
Maxdispl :   0.0835   ||displ|| :   0.1783   Lambda : -0.210D-03
Largest |displ|/coords:  0.0835 (   1)  0.0792 (   3)  0.0553 (   8)
................................................................................
.............................. CYCLE   30 ......................................
................................................................................
   1    -50.7348753 -0.507349E+02  0.703E-02    8.22       0.0  T
   2    -50.7348804 -0.507640E-05  0.534E-02    8.22       1.0  T
   3    -50.7348834 -0.307035E-05  0.130E-02    8.21       1.5  T
   4    -50.7348842 -0.747379E-06  0.516E-03    8.21       3.8  T
   5    -50.7348842 -0.556156E-07  0.166E-03    8.21      11.8  T
   6    -50.7348842 -0.374276E-08  0.857E-04    8.21      22.9  T
speedup  1.03
cpu  time for SCC    0.01 s
wall time for SCC    0.01 s
speedup  0.99
cpu  time for grad    0.01 s
wall time for grad    0.01 s
 E :    -50.45032450  G :  0.005816    pred/act E change: -0.998D-04 -0.150D-03
Maxdispl :   0.0964   ||displ|| :   0.1999   Lambda : -0.160D-03
Largest |displ|/coords:  0.0964 (   3)  0.0911 (   1)  0.0649 (   5)
................................................................................
.............................. CYCLE   31 ......................................
................................................................................
   1    -50.7368273 -0.507368E+02  0.822E-02    8.21       0.0  T
   2    -50.7368339 -0.663222E-05  0.623E-02    8.20       1.0  T
   3    -50.7368381 -0.417773E-05  0.150E-02    8.19       1.3  T
   4    -50.7368390 -0.951343E-06  0.561E-03    8.19       3.5  T
   5    -50.7368391 -0.681881E-07  0.195E-03    8.19      10.0  T
   6    -50.7368391 -0.526830E-08  0.102E-03    8.19      19.3  T
speedup  1.03
cpu  time for SCC    0.01 s
wall time for SCC    0.01 s
speedup  0.99
cpu  time for grad    0.01 s
wall time for grad    0.01 s
 E :    -50.45042315  G :  0.004159    pred/act E change: -0.108D-03 -0.986D-04
Maxdispl :   0.0739   ||displ|| :   0.1072   Lambda : -0.609D-04
Largest |displ|/coords:  0.0739 (   3)  0.0388 (   1)  0.0234 (   5)
................................................................................
.............................. CYCLE   32 ......................................
................................................................................
   1    -50.7376471 -0.507376E+02  0.540E-02    8.18       0.0  T
   2    -50.7376488 -0.165870E-05  0.409E-02    8.17       1.0  T
   3    -50.7376501 -0.127783E-05  0.752E-03    8.16       2.6  T
   4    -50.7376503 -0.243516E-06  0.271E-03    8.17       7.2  T
   5    -50.7376503 -0.139567E-07  0.103E-03    8.17      19.1  T
speedup  1.02
cpu  time for SCC    0.00 s
wall time for SCC    0.00 s
speedup  1.05
cpu  time for grad    0.01 s
wall time for grad    0.01 s
 E :    -50.45046493  G :  0.003533    pred/act E change: -0.833D-04 -0.418D-04
Maxdispl :   0.0546   ||displ|| :   0.0881   Lambda : -0.484D-04
Largest |displ|/coords:  0.0546 (   3)  0.0288 (  10)  0.0214 (   4)
................................................................................
.............................. CYCLE   33 ......................................
................................................................................
   1    -50.7382540 -0.507383E+02  0.554E-02    8.15       0.0  T
   2    -50.7382552 -0.115687E-05  0.418E-02    8.15       1.0  T
   3    -50.7382560 -0.859651E-06  0.642E-03    8.14       3.1  T
   4    -50.7382562 -0.173559E-06  0.229E-03    8.14       8.6  T
   5    -50.7382562 -0.797025E-08  0.777E-04    8.14      25.2  T
   6    -50.7382562 -0.911562E-09  0.468E-04    8.14      41.9  T
speedup  1.03
cpu  time for SCC    0.01 s
wall time for SCC    0.01 s
speedup  1.01
cpu  time for grad    0.01 s
wall time for grad    0.01 s
 E :    -50.45049804  G :  0.002591    pred/act E change: -0.308D-04 -0.331D-04
Maxdispl :   0.0492   ||displ|| :   0.0791   Lambda : -0.308D-04
Largest |displ|/coords:  0.0492 (   3)  0.0257 (  10)  0.0247 (   9)
................................................................................
.............................. CYCLE   34 ......................................
................................................................................
   1    -50.7380203 -0.507380E+02  0.557E-02    8.13       0.0  T
   2    -50.7380209 -0.629065E-06  0.420E-02    8.13       1.0  T
   3    -50.7380215 -0.621390E-06  0.455E-03    8.12       4.3  T
   4    -50.7380216 -0.677214E-07  0.201E-03    8.12       9.7  T
   5    -50.7380216 -0.452137E-08  0.553E-04    8.12      35.5  T
   6    -50.7380216 -0.414929E-09  0.360E-04    8.12      54.5  T
speedup  1.03
cpu  time for SCC    0.01 s
wall time for SCC    0.01 s
speedup  1.01
cpu  time for grad    0.01 s
wall time for grad    0.01 s
 E :    -50.45051931  G :  0.002129    pred/act E change: -0.244D-04 -0.213D-04
Maxdispl :   0.0334   ||displ|| :   0.0774   Lambda : -0.251D-04
Largest |displ|/coords:  0.0334 (   3)  0.0333 (  10)  0.0301 (   9)
................................................................................
.............................. CYCLE   35 ......................................
................................................................................
   1    -50.7380273 -0.507380E+02  0.519E-02    8.12       0.0  T
   2    -50.7380278 -0.454737E-06  0.389E-02    8.12       1.0  T
   3    -50.7380282 -0.492374E-06  0.392E-03    8.12       5.0  T
   4    -50.7380283 -0.347597E-07  0.155E-03    8.12      12.7  T
   5    -50.7380283 -0.279189E-08  0.442E-04    8.12      44.4  T
   6    -50.7380283 -0.253728E-09  0.278E-04    8.12      70.5  T
speedup  1.03
cpu  time for SCC    0.01 s
wall time for SCC    0.01 s
speedup  1.01
cpu  time for grad    0.01 s
wall time for grad    0.01 s
 E :    -50.45053524  G :  0.002153    pred/act E change: -0.155D-04 -0.159D-04
Maxdispl :   0.0402   ||displ|| :   0.0777   Lambda : -0.182D-04
Largest |displ|/coords:  0.0402 (   3)  0.0355 (   7)  0.0218 (   6)
................................................................................
.............................. CYCLE   36 ......................................
................................................................................
   1    -50.7376556 -0.507377E+02  0.469E-02    8.12       0.0  T
   2    -50.7376560 -0.422305E-06  0.353E-02    8.12       1.0  T
   3    -50.7376565 -0.448879E-06  0.380E-03    8.12       5.2  T
   4    -50.7376565 -0.381851E-07  0.144E-03    8.12      13.6  T
   5    -50.7376565 -0.265909E-08  0.447E-04    8.12      43.9  T
   6    -50.7376565 -0.277488E-09  0.258E-04    8.12      76.1  T
speedup  0.86
cpu  time for SCC    0.01 s
wall time for SCC    0.01 s
speedup  0.94
cpu  time for grad    0.01 s
wall time for grad    0.01 s
 E :    -50.45054750  G :  0.002042    pred/act E change: -0.126D-04 -0.123D-04
Maxdispl :   0.0344   ||displ|| :   0.0724   Lambda : -0.164D-04
Largest |displ|/coords:  0.0344 (   7)  0.0307 (   3)  0.0235 (   5)
................................................................................
.............................. CYCLE   37 ......................................
................................................................................
   1    -50.7377159 -0.507377E+02  0.375E-02    8.13       0.0  T
   2    -50.7377163 -0.379271E-06  0.283E-02    8.13       1.0  T
   3    -50.7377166 -0.296230E-06  0.376E-03    8.14       5.2  T
   4    -50.7377167 -0.541394E-07  0.128E-03    8.14      15.3  T
   5    -50.7377167 -0.198515E-08  0.341E-04    8.14      57.5  T
   6    -50.7377167 -0.145342E-09  0.192E-04    8.14     102.3  T
speedup  1.02
cpu  time for SCC    0.01 s
wall time for SCC    0.01 s
speedup  1.01
cpu  time for grad    0.01 s
wall time for grad    0.01 s
 E :    -50.45055933  G :  0.001720    pred/act E change: -0.917D-05 -0.118D-04
Maxdispl :   0.0436   ||displ|| :   0.0855   Lambda : -0.154D-04
Largest |displ|/coords:  0.0436 (   7)  0.0404 (   3)  0.0255 (   5)
................................................................................
.............................. CYCLE   38 ......................................
................................................................................
   1    -50.7378164 -0.507378E+02  0.434E-02    8.15       0.0  T
   2    -50.7378170 -0.521352E-06  0.329E-02    8.15       1.0  T
   3    -50.7378174 -0.393499E-06  0.411E-03    8.15       4.8  T
   4    -50.7378174 -0.824572E-07  0.152E-03    8.15      12.9  T
   5    -50.7378174 -0.281563E-08  0.360E-04    8.15      54.5  T
   6    -50.7378174 -0.143601E-09  0.214E-04    8.15      91.5  T
speedup  0.98
cpu  time for SCC    0.01 s
wall time for SCC    0.01 s
speedup  0.99
cpu  time for grad    0.01 s
wall time for grad    0.02 s
 E :    -50.45057042  G :  0.001570    pred/act E change: -0.824D-05 -0.111D-04
Maxdispl :   0.0429   ||displ|| :   0.0846   Lambda : -0.124D-04
Largest |displ|/coords:  0.0429 (   7)  0.0406 (   3)  0.0218 (  14)
................................................................................
.............................. CYCLE   39 ......................................
................................................................................
   1    -50.7379676 -0.507380E+02  0.422E-02    8.16       0.0  T
   2    -50.7379681 -0.457645E-06  0.321E-02    8.16       1.0  T
   3    -50.7379685 -0.384250E-06  0.354E-03    8.16       5.5  T
   4    -50.7379685 -0.658187E-07  0.145E-03    8.16      13.5  T
   5    -50.7379685 -0.267083E-08  0.330E-04    8.16      59.5  T
   6    -50.7379685 -0.112351E-09  0.203E-04    8.16      96.4  T
speedup  0.98
cpu  time for SCC    0.01 s
wall time for SCC    0.01 s
speedup  0.97
cpu  time for grad    0.01 s
wall time for grad    0.02 s
 E :    -50.45057917  G :  0.001416    pred/act E change: -0.774D-05 -0.876D-05
Maxdispl :   0.0328   ||displ|| :   0.0651   Lambda : -0.785D-05
Largest |displ|/coords:  0.0328 (   7)  0.0327 (   3)  0.0175 (  14)
................................................................................
.............................. CYCLE   40 ......................................
................................................................................
   1    -50.7381168 -0.507381E+02  0.325E-02    8.17       0.0  T
   2    -50.7381170 -0.234266E-06  0.245E-02    8.17       1.0  T
   3    -50.7381173 -0.227752E-06  0.269E-03    8.16       7.3  T
   4    -50.7381173 -0.261790E-07  0.107E-03    8.16      18.3  T
   5    -50.7381173 -0.124476E-08  0.255E-04    8.16      77.0  T
   6    -50.7381173 -0.786216E-10  0.160E-04    8.16     122.3  T
speedup  1.00
cpu  time for SCC    0.01 s
wall time for SCC    0.01 s
speedup  0.99
cpu  time for grad    0.01 s
wall time for grad    0.02 s
 E :    -50.45058461  G :  0.001075    pred/act E change: -0.626D-05 -0.543D-05
Maxdispl :   0.0211   ||displ|| :   0.0416   Lambda : -0.431D-05
Largest |displ|/coords:  0.0211 (   3)  0.0197 (   7)  0.0131 (   6)
................................................................................
.............................. CYCLE   41 ......................................
................................................................................
   1    -50.7382581 -0.507383E+02  0.213E-02    8.17       0.0  T
   2    -50.7382582 -0.854353E-07  0.159E-02    8.17       1.2  T
   3    -50.7382583 -0.894230E-07  0.213E-03    8.17       9.2  T
   4    -50.7382583 -0.674622E-08  0.478E-04    8.17      41.1  T
   5    -50.7382583 -0.434689E-09  0.172E-04    8.17     114.4  T
speedup  1.00
cpu  time for SCC    0.00 s
wall time for SCC    0.00 s
speedup  0.99
cpu  time for grad    0.01 s
wall time for grad    0.01 s
 E :    -50.45058761  G :  0.000740    pred/act E change: -0.394D-05 -0.300D-05
Maxdispl :   0.0176   ||displ|| :   0.0332   Lambda : -0.260D-05
Largest |displ|/coords:  0.0176 (   3)  0.0144 (   7)  0.0105 (   6)
................................................................................
.............................. CYCLE   42 ......................................
................................................................................
   1    -50.7383212 -0.507383E+02  0.186E-02    8.17       0.0  T
   2    -50.7383212 -0.524237E-07  0.138E-02    8.16       1.4  T
   3    -50.7383213 -0.548822E-07  0.184E-03    8.16      10.6  T
   4    -50.7383213 -0.336266E-08  0.432E-04    8.16      45.4  T
   5    -50.7383213 -0.303132E-09  0.141E-04    8.16     139.1  T
speedup  0.96
cpu  time for SCC    0.00 s
wall time for SCC    0.01 s
speedup  0.98
cpu  time for grad    0.01 s
wall time for grad    0.01 s
 E :    -50.45058946  G :  0.000587    pred/act E change: -0.216D-05 -0.185D-05
Maxdispl :   0.0149   ||displ|| :   0.0284   Lambda : -0.185D-05
Largest |displ|/coords:  0.0149 (   3)  0.0104 (   7)  0.0086 (   6)
................................................................................
.............................. CYCLE   43 ......................................
................................................................................
   1    -50.7383788 -0.507384E+02  0.174E-02    8.16       0.0  T
   2    -50.7383788 -0.404813E-07  0.129E-02    8.16       1.5  T
   3    -50.7383789 -0.415378E-07  0.157E-03    8.16      12.5  T
   4    -50.7383789 -0.255339E-08  0.436E-04    8.16      45.0  T
   5    -50.7383789 -0.264748E-09  0.131E-04    8.16     150.3  T
speedup  0.98
cpu  time for SCC    0.00 s
wall time for SCC    0.01 s
speedup  1.06
cpu  time for grad    0.01 s
wall time for grad    0.01 s
 E :    -50.45059076  G :  0.000484    pred/act E change: -0.130D-05 -0.131D-05
Maxdispl :   0.0162   ||displ|| :   0.0268   Lambda : -0.126D-05
Largest |displ|/coords:  0.0162 (   3)  0.0090 (   7)  0.0079 (   2)
................................................................................
.............................. CYCLE   44 ......................................
................................................................................
   1    -50.7383684 -0.507384E+02  0.164E-02    8.16       0.0  T
   2    -50.7383684 -0.311400E-07  0.123E-02    8.16       1.6  T
   3    -50.7383684 -0.347567E-07  0.120E-03    8.16      16.3  T
   4    -50.7383684 -0.169659E-08  0.391E-04    8.16      50.2  T
   5    -50.7383684 -0.200124E-09  0.118E-04    8.16     166.9  T
speedup  0.98
cpu  time for SCC    0.00 s
wall time for SCC    0.01 s
speedup  0.99
cpu  time for grad    0.01 s
wall time for grad    0.01 s
 E :    -50.45059166  G :  0.000390    pred/act E change: -0.926D-06 -0.894D-06
Maxdispl :   0.0121   ||displ|| :   0.0207   Lambda : -0.888D-06
Largest |displ|/coords:  0.0121 (   3)  0.0067 (   2)  0.0060 (   5)
................................................................................
.............................. CYCLE   45 ......................................
................................................................................
   1    -50.7384018 -0.507384E+02  0.134E-02    8.16       0.0  T
   2    -50.7384018 -0.194040E-07  0.101E-02    8.16       2.0  T
   3    -50.7384019 -0.201057E-07  0.946E-04    8.16      20.7  T
   4    -50.7384019 -0.168828E-08  0.367E-04    8.16      53.4  T
speedup  1.19
cpu  time for SCC    0.00 s
wall time for SCC    0.00 s
speedup  1.04
cpu  time for grad    0.01 s
wall time for grad    0.01 s
 E :    -50.45059227  G :  0.000312    pred/act E change: -0.631D-06 -0.617D-06
Maxdispl :   0.0129   ||displ|| :   0.0187   Lambda : -0.557D-06
Largest |displ|/coords:  0.0129 (   3)  0.0074 (   2)  0.0056 (   5)
................................................................................
.............................. CYCLE   46 ......................................
................................................................................
   1    -50.7383682 -0.507384E+02  0.101E-02    8.16       0.0  T
   2    -50.7383682 -0.152920E-07  0.761E-03    8.16       2.6  T
   3    -50.7383682 -0.124043E-07  0.847E-04    8.16      23.1  T
   4    -50.7383682 -0.216185E-08  0.276E-04    8.16      71.0  T
speedup  0.95
cpu  time for SCC    0.00 s
wall time for SCC    0.00 s
speedup  1.05
cpu  time for grad    0.01 s
wall time for grad    0.01 s
 E :    -50.45059267  G :  0.000257    pred/act E change: -0.444D-06 -0.397D-06
Maxdispl :   0.0069   ||displ|| :   0.0143   Lambda : -0.391D-06
Largest |displ|/coords:  0.0069 (   1)  0.0065 (   3)  0.0058 (   2)
................................................................................
.............................. CYCLE   47 ......................................
................................................................................
   1    -50.7384105 -0.507384E+02  0.787E-03    8.17       0.0  T
   2    -50.7384105 -0.949888E-08  0.588E-03    8.17       3.3  T
   3    -50.7384105 -0.794677E-08  0.706E-04    8.17      27.8  T
   4    -50.7384105 -0.115710E-08  0.206E-04    8.17      95.3  T
speedup  0.95
cpu  time for SCC    0.00 s
wall time for SCC    0.00 s
speedup  0.98
cpu  time for grad    0.01 s
wall time for grad    0.01 s
 E :    -50.45059294  G :  0.000218    pred/act E change: -0.278D-06 -0.263D-06
Maxdispl :   0.0092   ||displ|| :   0.0148   Lambda : -0.238D-06
Largest |displ|/coords:  0.0092 (   3)  0.0067 (   2)  0.0067 (   1)
................................................................................
.............................. CYCLE   48 ......................................
................................................................................
   1    -50.7383789 -0.507384E+02  0.690E-03    8.17       0.0  T
   2    -50.7383789 -0.659349E-08  0.518E-03    8.17       3.8  T
   3    -50.7383789 -0.694741E-08  0.519E-04    8.17      37.8  T
   4    -50.7383789 -0.604061E-09  0.168E-04    8.17     116.8  T
speedup  0.95
cpu  time for SCC    0.00 s
wall time for SCC    0.00 s
speedup  0.98
cpu  time for grad    0.01 s
wall time for grad    0.01 s
 E :    -50.45059310  G :  0.000202    pred/act E change: -0.196D-06 -0.168D-06
Maxdispl :   0.0094   ||displ|| :   0.0142   Lambda : -0.234D-06
Largest |displ|/coords:  0.0094 (   1)  0.0060 (   2)  0.0052 (   5)
................................................................................
.............................. CYCLE   49 ......................................
................................................................................
   1    -50.7383965 -0.507384E+02  0.624E-03    8.17       0.0  T
   2    -50.7383965 -0.533142E-08  0.466E-03    8.17       4.2  T
   3    -50.7383965 -0.542884E-08  0.405E-04    8.17      48.5  T
   4    -50.7383965 -0.376978E-09  0.174E-04    8.17     113.0  T
speedup  1.00
cpu  time for SCC    0.00 s
wall time for SCC    0.00 s
speedup  0.99
cpu  time for grad    0.01 s
wall time for grad    0.01 s
 E :    -50.45059329  G :  0.000205    pred/act E change: -0.119D-06 -0.182D-06
Maxdispl :   0.0143   ||displ|| :   0.0205   Lambda : -0.277D-06
Largest |displ|/coords:  0.0143 (   1)  0.0085 (   2)  0.0076 (   3)
................................................................................
.............................. CYCLE   50 ......................................
................................................................................
   1    -50.7383900 -0.507384E+02  0.870E-03    8.17       0.0  T
   2    -50.7383900 -0.996403E-08  0.649E-03    8.17       3.0  T
   3    -50.7383900 -0.949192E-08  0.594E-04    8.17      33.0  T
   4    -50.7383900 -0.904365E-09  0.235E-04    8.17      83.5  T
speedup  0.98
cpu  time for SCC    0.00 s
wall time for SCC    0.00 s
speedup  0.99
cpu  time for grad    0.01 s
wall time for grad    0.01 s
 E :    -50.45059349  G :  0.000248    pred/act E change: -0.117D-06 -0.207D-06
Maxdispl :   0.0149   ||displ|| :   0.0197   Lambda : -0.244D-06
Largest |displ|/coords:  0.0149 (   1)  0.0072 (   2)  0.0070 (   5)
................................................................................
.............................. CYCLE   51 ......................................
................................................................................
   1    -50.7383917 -0.507384E+02  0.825E-03    8.17       0.0  T
   2    -50.7383917 -0.105446E-07  0.614E-03    8.17       3.2  T
   3    -50.7383917 -0.894953E-08  0.655E-04    8.17      29.9  T
   4    -50.7383917 -0.115706E-08  0.244E-04    8.17      80.5  T
speedup  1.19
cpu  time for SCC    0.00 s
wall time for SCC    0.00 s
speedup  1.06
cpu  time for grad    0.01 s
wall time for grad    0.01 s
 E :    -50.45059369  G :  0.000263    pred/act E change: -0.139D-06 -0.196D-06
Maxdispl :   0.0227   ||displ|| :   0.0296   Lambda : -0.313D-06
Largest |displ|/coords:  0.0227 (   1)  0.0105 (   5)  0.0103 (   2)
................................................................................
.............................. CYCLE   52 ......................................
................................................................................
   1    -50.7383725 -0.507384E+02  0.125E-02    8.17       0.0  T
   2    -50.7383725 -0.209504E-07  0.929E-03    8.17       2.1  T
   3    -50.7383725 -0.190841E-07  0.102E-03    8.17      19.2  T
   4    -50.7383725 -0.200922E-08  0.344E-04    8.17      57.0  T
   5    -50.7383725 -0.154188E-09  0.972E-05    8.17     201.7  T
speedup  0.98
cpu  time for SCC    0.00 s
wall time for SCC    0.01 s
speedup  0.99
cpu  time for grad    0.01 s
wall time for grad    0.01 s
 E :    -50.45059392  G :  0.000279    pred/act E change: -0.126D-06 -0.234D-06
Maxdispl :   0.0254   ||displ|| :   0.0321   Lambda : -0.312D-06
Largest |displ|/coords:  0.0254 (   1)  0.0118 (   5)  0.0101 (   2)

generating ANC from model Hessian ...
 Shifting diagonal of input Hessian by   4.917770650104550E-003
 Lowest  eigenvalues of input Hessian
   -0.000000   -0.000000   -0.000000   -0.000000   -0.000000    0.000000
    0.005000    0.005104    0.005395    0.006016    0.006032    0.006280
    0.006509    0.006718    0.007067    0.008657    0.009417    0.010183
 Highest eigenvalues
    1.390413    1.404855    1.415811    2.659807    3.231668    3.822472
 
cpu  time for ANC gen    0.02 s
wall time for ANC gen    0.02 s
................................................................................
.............................. CYCLE   53 ......................................
................................................................................
   1    -50.7383559 -0.507384E+02  0.140E-02    8.17       0.0  T
   2    -50.7383560 -0.239305E-07  0.104E-02    8.17       1.9  T
   3    -50.7383560 -0.241092E-07  0.115E-03    8.17      17.1  T
   4    -50.7383560 -0.179026E-08  0.359E-04    8.17      54.6  T
   5    -50.7383560 -0.197517E-09  0.110E-04    8.17     178.9  T
speedup  0.98
cpu  time for SCC    0.00 s
wall time for SCC    0.01 s
speedup  1.00
cpu  time for grad    0.01 s
wall time for grad    0.01 s
 E :    -50.45059415  G :  0.000282    pred/act E change:  0.000D+00 -0.232D-06
Maxdispl :   0.0026   ||displ|| :   0.0036   Lambda : -0.191D-06
Largest |displ|/coords:  0.0026 (   5)  0.0010 (  16)  0.0009 (   2)
................................................................................
.............................. CYCLE   54 ......................................
................................................................................
   1    -50.7383695 -0.507384E+02  0.228E-03    8.17       0.0  T
   2    -50.7383695 -0.203736E-08  0.168E-03    8.17      11.6  T
   3    -50.7383695 -0.674412E-09  0.269E-04    8.17      72.8  T
   4    -50.7383695 -0.341437E-09  0.782E-05    8.17     250.9  T
speedup  1.03
cpu  time for SCC    0.00 s
wall time for SCC    0.00 s
speedup  1.01
cpu  time for grad    0.01 s
wall time for grad    0.01 s
 E :    -50.45059430  G :  0.000165    pred/act E change:  0.000D+00 -0.149D-06
Maxdispl :   0.0086   ||displ|| :   0.0107   Lambda : -0.345D-06
Largest |displ|/coords:  0.0086 (   5)  0.0032 (   3)  0.0024 (  16)
................................................................................
.............................. CYCLE   55 ......................................
................................................................................
   1    -50.7383883 -0.507384E+02  0.616E-03    8.17       0.0  T
   2    -50.7383883 -0.988658E-08  0.457E-03    8.17       4.3  T
   3    -50.7383883 -0.454740E-08  0.616E-04    8.17      31.8  T
   4    -50.7383883 -0.166467E-08  0.205E-04    8.17      95.6  T
speedup  1.00
cpu  time for SCC    0.00 s
wall time for SCC    0.00 s
speedup  1.00
cpu  time for grad    0.01 s
wall time for grad    0.01 s
 E :    -50.45059446  G :  0.000178    pred/act E change: -0.955D-07 -0.154D-06
Maxdispl :   0.0043   ||displ|| :   0.0060   Lambda : -0.159D-06
Largest |displ|/coords:  0.0043 (   5)  0.0020 (   2)  0.0013 (  16)
................................................................................
.............................. CYCLE   56 ......................................
................................................................................
   1    -50.7383808 -0.507384E+02  0.341E-03    8.17       0.0  T
   2    -50.7383808 -0.778904E-09  0.254E-03    8.17       7.7  T
   3    -50.7383808 -0.602029E-09  0.218E-04    8.17      90.1  T
   4    -50.7383808 -0.844267E-10  0.820E-05    8.17     239.3  T
speedup  1.00
cpu  time for SCC    0.00 s
wall time for SCC    0.00 s
speedup  1.00
cpu  time for grad    0.01 s
wall time for grad    0.01 s
 E :    -50.45059454  G :  0.000172    pred/act E change: -0.172D-06 -0.857D-07
Maxdispl :   0.0036   ||displ|| :   0.0048   Lambda : -0.896D-07
Largest |displ|/coords:  0.0036 (   5)  0.0017 (   1)  0.0015 (   3)

   *** GEOMETRY OPTIMIZATION CONVERGED AFTER 56 ITERATIONS ***

------------------------------------------------------------------------
 total energy gain (kcal):     -0.0002
------------------------------------------------------------------------
================
 final structure:
================
$coord
        0.81618428083365        2.95930084223725        2.20754347082791      S 
        2.23938222236197        1.90681851564970        0.11479360001336      O 
       -1.70714105240034        3.96336161584281        1.17313876164433      O 
       -0.00996901205352        0.73672607742633        3.93926799413764      O 
        2.08370903033783        4.80231158165585        3.67143900424148      O 
       -2.10251017000460       -2.39445404058621       -2.83160306083771      O 
       -2.55386023439449       -3.69811732036519       -4.00257834166384      H 
        2.38651389613878        4.12149793146659       -4.43117504690715      O 
        2.99075770384202        5.81869274342734       -4.24549428395137      H 
        2.73624221511570        3.26220418960529       -2.83665184814045      H 
       -3.92616118430219       -0.99809136466776        1.66053731690470      O 
       -4.88911145330530        0.50081213419220        1.30536536594683      H 
       -3.39699839464292       -1.68825706817474        0.01867963803977      H 
       -1.54236815996881       -0.04364525132973        3.12710159920474      H 
        2.41308303880074       -3.03570179894200       -1.21010805402447      O 
        2.75610098960683       -1.26871580416061       -0.84071661680176      H 
        2.29832095477812       -3.85871735476566        0.45673018377003      H 
       -0.29055135622343       -2.73134766442702       -2.31049482483938      H 
       -2.32723141301451        2.69951661511552       -3.34363616186944      O 
       -1.97974667935928        3.47077553599230       -0.72161440610031      H 
       -0.75515066249493        3.29068813706355       -4.13561083042569      H 
       -2.25768545525579        0.85227428397750       -3.40046325810553      H 
        1.83709360509415       -4.64595551251537        3.64992464524230      N 
        3.33084837574501       -5.43715094597796        4.54474236123389      H 
        0.28613769351238       -5.68958968950222        4.05558515706273      H 
        1.56411120236124       -2.89523635043516        4.38529757870576      H 
$end
 
 Bond Distances (Angstroems)
 ---------------------------
S1-O2=1.4504         S1-O3=1.5378         S1-O4=1.5538         S1-O5=1.4146         O2-S1=1.4504         O3-S1=1.5378         
O3-H20=1.0460        O4-S1=1.5538         O4-H14=1.0064        O5-S1=1.4146         O6-H7=0.9576         O6-H18=1.0135        
H7-O6=0.9576         O8-H9=0.9584         O8-H10=0.9762        H9-O8=0.9584         H10-O8=0.9762        O11-H12=0.9613       
O11-H13=0.9832       H12-O11=0.9613       H13-O11=0.9832       H14-O4=1.0064        O15-H16=0.9724       O15-H17=0.9856       
H16-O15=0.9724       H17-O15=0.9856       H18-O6=1.0135        O19-H21=0.9826       O19-H22=0.9787       H20-O3=1.0460        
H21-O19=0.9826       H22-O19=0.9787       N23-H24=1.0121       N23-H25=1.0123       N23-H26=1.0152       H24-N23=1.0121       
H25-N23=1.0123       H26-N23=1.0152       
 N  H  Rav=1.0132 sigma=0.0014  Rmin=1.0121  Rmax=1.0152     3
 O  H  Rav=0.9852 sigma=0.0247  Rmin=0.9576  Rmax=1.0460    12
 S  O  Rav=1.4892 sigma=0.0583  Rmin=1.4146  Rmax=1.5538     4
 
 selected bond angles (degree)
 --------------------
O3-S1-O2=108.16                O4-S1-O2=107.80                O4-S1-O3=103.13                O5-S1-O2=115.89                
O5-S1-O3=111.62                O5-S1-O4=109.41                H20-O3-S1=112.02               H14-O4-S1=106.59               
H18-O6-H7=106.58               H10-O8-H9=106.54               
 
 selected dihedral angles (degree)
 ---------------------------------
H20-O3-S1-O2=  7.76           H20-O3-S1-O4=253.74           H20-O3-S1-O5=136.39           H14-O4-S1-O2=279.62           
H14-O4-S1-O3= 33.90           H14-O4-S1-O5=152.80           
 
 CMA Distance (Angstroems)
 ---------------------------
R(CMA):  2.6021

========================================================================
 FINAL SINGLEPOINT CALCULATION ON OPTIMIZED GEOMETRY
========================================================================

 Ncao       : 65
 Nao        : 64
 Nshell     : 38
 Nel        : 80
 T(el)      :   300.0
 intcut     :    25.0
 scfconv/Eh :  0.100E-05
   qconv/e  :  0.100E-03
 intneglect :  0.100E-07
 broydamp   :      0.250
 iter      E             dE          RMSdq      gap      omega  full diag
   1    -50.7383808 -0.507384E+02  0.356E-05    8.17       0.0  T
   2    -50.7383808 -0.589750E-12  0.222E-05    8.17     881.6  T
   3    -50.7383808 -0.198952E-12  0.233E-06    8.17    8433.6  T
speedup  1.00
cpu  time for SCC    0.00 s
wall time for SCC    0.00 s

   *** convergence criteria satisfied after 3 iterations ***

          eigenvalues
 #    :          28         29         30         31         32         33         34         35
 occ. :        2.000      2.000      2.000      2.000      2.000      2.000      2.000      2.000
 eps  :       -13.737    -13.513    -13.113    -12.903    -12.759    -12.634    -12.595    -12.540
 #    :          36         37         38         39         40         41         42         43
 occ. :        2.000      2.000      2.000      2.000      2.000      0.000      0.000      0.000
 eps  :       -12.353    -12.173    -12.166    -11.851    -11.219     -3.049     -0.939     -0.607
 #    :          44         45         46         47         48         49         50         51
 occ. :        0.000      0.000      0.000      0.000      0.000      0.000      0.000      0.000
 eps  :        -0.101      0.788      0.945      1.651      2.535      3.917      4.467      5.136


   #   Z            q   n(s)   n(p)   n(d)      C6AA      α(0)
   1  16 S      1.692  1.576  1.785  0.948    88.952    15.874
   2   8 O     -0.734  1.761  4.973  0.000    29.643     7.300
   3   8 O     -0.642  1.763  4.879  0.000    26.202     6.910
   4   8 O     -0.622  1.758  4.864  0.000    25.690     6.842
   5   8 O     -0.643  1.752  4.891  0.000    27.194     6.992
   6   8 O     -0.647  1.755  4.892  0.000    26.351     6.928
   7   1 H      0.289  0.711  0.000  0.000     0.756     1.366
   8   8 O     -0.603  1.741  4.862  0.000    25.262     6.784
   9   1 H      0.288  0.712  0.000  0.000     0.759     1.368
  10   1 H      0.326  0.674  0.000  0.000     0.649     1.266
  11   8 O     -0.610  1.753  4.856  0.000    25.415     6.804
  12   1 H      0.309  0.691  0.000  0.000     0.694     1.308
  13   1 H      0.344  0.656  0.000  0.000     0.602     1.219
  14   1 H      0.390  0.610  0.000  0.000     0.499     1.108
  15   8 O     -0.621  1.753  4.868  0.000    25.692     6.841
  16   1 H      0.318  0.682  0.000  0.000     0.670     1.285
  17   1 H      0.315  0.685  0.000  0.000     0.676     1.292
  18   1 H      0.348  0.652  0.000  0.000     0.594     1.211
  19   8 O     -0.616  1.761  4.854  0.000    25.538     6.822
  20   1 H      0.396  0.604  0.000  0.000     0.489     1.096
  21   1 H      0.341  0.659  0.000  0.000     0.610     1.227
  22   1 H      0.337  0.663  0.000  0.000     0.621     1.238
  23   7 N     -0.448  1.370  4.078  0.000    31.749     8.368
  24   1 H      0.156  0.844  0.000  0.000     1.363     1.829
  25   1 H      0.158  0.842  0.000  0.000     1.345     1.817
  26   1 H      0.179  0.821  0.000  0.000     1.219     1.729

 Mol. C6AA /au·bohr⁶  :       5456.435313
 Mol. C8AA /au·bohr⁸  :     117818.628942
 Mol. α(0) /au        :        106.822345

 
 Wiberg/Mayer (AO) data. WBOs > 0.1 written file <wbo>
 largest (>0.05) Wiberg bond orders for each atom
           total WBO             WBO to atom ...
     1  S   4.863    O    5 1.512    O    2 1.317    O    3 1.017    O    4 0.973
     2  O   1.727    S    1 1.317    O    5 0.121    O    3 0.090    O    4 0.082
     3  O   1.949    S    1 1.017    H   20 0.626    O    2 0.090    O    5 0.084    O    4 0.063    O   19 0.058
     4  O   1.970    S    1 0.973    H   14 0.702    O    2 0.082    O    5 0.080    O    3 0.063
     5  O   1.817    S    1 1.512    O    2 0.121    O    3 0.084    O    4 0.080
     6  O   1.876    H    7 0.906    H   18 0.751    H   13 0.063    H   22 0.053    O   15 0.052
     7  H   0.917    O    6 0.906
     8  O   1.872    H    9 0.913    H   10 0.846    H   21 0.060
     9  H   0.917    O    8 0.913
    10  H   0.894    O    8 0.846
    11  O   1.926    H   12 0.899    H   13 0.815    H   14 0.128
    12  H   0.904    O   11 0.899
    13  H   0.882    O   11 0.815    O    6 0.063
    14  H   0.848    O    4 0.702    O   11 0.128
    15  O   1.923    H   16 0.859    H   17 0.825    H   18 0.126    O    6 0.052
    16  H   0.899    O   15 0.859
    17  H   0.900    O   15 0.825    N   23 0.073
    18  H   0.879    O    6 0.751    O   15 0.126
    19  O   1.979    H   22 0.831    H   21 0.821    H   20 0.199    O    3 0.058
    20  H   0.844    O    3 0.626    O   19 0.199
    21  H   0.884    O   19 0.821    O    8 0.060
    22  H   0.887    O   19 0.831    O    6 0.053
    23  N   3.018    H   24 0.973    H   25 0.973    H   26 0.954    H   17 0.073
    24  H   0.976    N   23 0.973
    25  H   0.975    N   23 0.973
    26  H   0.968    N   23 0.954
 MOs/occ written to file <molden.input>
 
molecular dipole:
                 x           y           z       tot (Debye)
 q only:       -0.797      -1.337      -0.546
   full:       -0.773      -1.424      -0.156       4.138
molecular quadrupole (traceless):
                xx          xy          yy          xz          yz          zz
 q only:        1.019      -0.487       2.287       0.718     -10.272      -3.306
  q+dip:       -0.282       1.107       2.996       1.959     -12.125      -2.714
   full:       -0.423       1.229       3.353       2.244     -12.277      -2.930

SCC energy    :     -50.7383808
rep           :       0.2874456
ES            :       0.2321510
AES           :      -0.0523346
AXC           :      -0.0066822
disp          :      -0.0190915
XB            :       0.0000000
fix           :       0.0000000
total E       :     -50.4505945
atomizationE  :       4.9808987     3125.56
(atE without considering molecular charge,
 total energy contains solvation terms)
H-L gap (eV)  :          8.1692
optimized geometry written to: xtbopt.xyz


------------------------------------------------------------------------
 * finished run on 2019/09/16 at 11:29:15.107     
------------------------------------------------------------------------
 total:
 * wall-time:     0 d,  0 h,  0 min,  2.110 sec
 *  cpu-time:     0 d,  0 h,  0 min,  1.540 sec
 * ratio c/w:     0.730 speedup
 SCF:
 * wall-time:     0 d,  0 h,  0 min,  0.674 sec
 *  cpu-time:     0 d,  0 h,  0 min,  0.158 sec
 * ratio c/w:     0.234 speedup
 ANC optimizer:
 * wall-time:     0 d,  0 h,  0 min,  1.409 sec
 *  cpu-time:     0 d,  0 h,  0 min,  1.358 sec
 * ratio c/w:     0.964 speedup

