      -----------------------------------------------------------      
     |                   =====================                   |     
     |                           x T B                           |     
     |                   =====================                   |     
     |                         S. Grimme                         |     
     |          Mulliken Center for Theoretical Chemistry        |     
     |                    University of Bonn                     |     
     |                 Version 6.0.1 (SAW181210)                 |     
      -----------------------------------------------------------      

   This program is distributed in the hope that it will be useful,
   but WITHOUT ANY WARRANTY; without even the implied warranty of
   MERCHANTABILITY or FITNESS FOR A PARTICULAR PURPOSE.
   
   FOR NON-COMMERCIAL, ACADEMIA USE ONLY.
   
   Cite this work as:
   S. Grimme, C. Bannwarth, P. Shushkov, J. Comput. Theory Chem., 2017,
   13, 1989-2009.
   C. Bannwarth, S. Ehlert and S. Grimme., ChemRxiv, 2018, preprint.
   http://doi.org/10.26434/chemrxiv.7246238.v1
   
   for sTDA-xTB:
   S. Grimme and C. Bannwarth, J. Chem. Phys., 2016, 145, 054103.
   
   in the mass-spec context:
   V. Asgeirsson, C. Bauer and S. Grimme, Chem. Sci., 2017, 8, 4879.
   
   if GBSA is used:
   P. Shushkov, F. März and S. Grimme, unpublished.
   
   for ANC optimizer:
   S. Grimme, unpublished.
   Rational Function algorithm used in ANCopt:
   F. Eckert, P. Pulay, H.-J. Werner, J. Comput. Chem., 1997, 18, 1473.
   
   with help from (in alphabetical order)
   C. Bannwarth, F. Bohle, G. Brandenburg, E. Caldeweyher, M. Checinski,
   S. Dohm, S. Ehlert, S. Ehrlich, F. März, H. Neugebauer, J. Pisarek,
   P. Pracht, P. Shushkov, and S. Spicher.
   
 * started run on 2019/09/16 at 12:45:48.633     
========================================================================
 # omp threads = 1
========================================================================
number of atoms            : 26
number of electrons        : 80
charge                     : 0
spin                       : .0
first test random number   : .4507

########################################################################
# WARNING! Please study the warnings concerning your input carefully
#  - XTBPATH is not set, using XTBHOME instead
#  - the use of '-opt' is discouraged, please use '--opt' next time
#  - the use of '-chrg' is discouraged, please use '--chrg' next time
#  - the use of '-uhf' is discouraged, please use '--uhf' next time
########################################################################

           ------------------------------------------------- 
          |                 G F N 2 - x T B                 |
          | Geometry, Frequencies, Noncovalent interactions |
          |            JCTC 2018 parametrisation            |
           ------------------------------------------------- 
      method parameters     
 k(s)        :  1.8500
 k(p)        :  2.2300
 k(d)        :  2.2300
 k(f)        :  2.0000
 kEN (H0ij)  : -2.0000
 D4 a1       :  0.5200
 D4 a2       :  5.0000
 D4 s6       :  1.0000
 D4 s8       :  2.7000
 D4 s9       :  5.0000
 alphaj      :  2.0000


            Z     q(EN)     CN     RAES       Cart. coordinates
     1  S   6.0    0.61    4.52    4.58    -3.20970     2.61605    -1.27503
     2  O   6.0   -0.30    1.19    1.80    -4.56746     1.36113     0.84859
     3  O   6.0   -0.32    1.21    1.80    -2.01390     0.66063    -2.91044
     4  O   6.0   -0.27    2.12    1.84    -1.24751     4.29598    -0.25515
     5  O   6.0   -0.25    2.08    1.84    -5.01213     4.10249    -2.77644
     6  H   1.0    0.14    1.22    1.47    -4.51602     5.84743    -2.76459
     7  H   1.0    0.18    1.36    1.52    -0.06962     3.32574     0.72582
     8  O   6.0   -0.42    1.70    1.81     1.46400     1.30314     2.16867
     9  H   1.0    0.17    0.95    1.42     2.64942     1.80643     3.51969
    10  O   6.0   -0.36    1.49    1.80    -0.90499    -5.36628     2.99818
    11  H   1.0    0.18    0.94    1.42    -1.15927    -7.15496     3.46693
    12  O   6.0   -0.27    1.95    1.82     2.37268    -0.56747    -5.29860
    13  H   1.0    0.17    1.02    1.43     0.63770    -0.14895    -4.93901
    14  H   1.0    0.16    1.03    1.43     3.36265     0.51958    -4.22486
    15  O   6.0   -0.29    2.02    1.83     4.35385     2.10701    -1.44573
    16  H   1.0    0.14    0.97    1.43     5.88803     2.83871    -0.79341
    17  H   1.0    0.17    1.13    1.45     3.29367     1.83496     0.00913
    18  O   6.0   -0.22    2.94    2.64    -1.86645    -1.14181     4.19563
    19  H   1.0    0.15    1.02    1.43    -3.43604    -0.56758     3.36107
    20  H   1.0    0.17    1.22    1.47    -1.57770    -2.97250     3.96069
    21  H   1.0    0.16    1.16    1.46    -0.38595    -0.12826     3.67377
    22  N   5.0   -0.14    3.97    2.79     1.18895    -2.91429    -0.44898
    23  H   1.0    0.09    0.99    1.43     2.76983    -3.69371    -1.27224
    24  H   1.0    0.13    1.17    1.46     0.40150    -4.19594     0.78460
    25  H   1.0    0.11    1.09    1.44     1.68997    -1.30419     0.52107
    26  H   1.0    0.11    1.01    1.43    -0.10551    -2.46332    -1.82936

  Z AO/shell   Hii/eV     exponent
  1     Wed Apr 25 08:07:45 CEST 2018   EN: 2.200 GM2: 0.406  GM3: 0.0800  RAES: 1.40
     1s    -10.707211    1.230000
  7     Wed Apr 25 08:07:45 CEST 2018   EN: 3.040 GM2: 0.461  GM3:-0.0640  RAES: 1.90
     2s    -16.686243    2.339881
     2p    -12.523956    2.014332
  8     Wed Apr 25 08:07:45 CEST 2018   EN: 3.440 GM2: 0.452  GM3:-0.0517  RAES: 1.80
     2s    -20.229985    2.439742
     2p    -15.503117    2.137023
 16     Tue Apr 24 11:44:34 CEST 2018   EN: 2.580 GM2: 0.340  GM3:-0.0502  RAES: 3.10
     3s    -20.029654    1.981333
     3p    -11.377694    2.025643
     3d     -0.420282    1.702555
 no old-style atom pair restraining (fixing) potential

molecular fragmentation (1/2 indicates fragments):
11111112222222222222222222
# atoms in fragment 1/2:     7    19
 fragment masses (1/2) :       98.07      107.11
CMA distance (Bohr)    :   5.918
constraining FC (au)   :  0.0500
           ------------------------------------------------- 
          |        Self-Consistent Charge Iterations        |
           ------------------------------------------------- 

 Ncao       : 65
 Nao        : 64
 Nshell     : 38
 Nel        : 80
 T(el)      :   300.0
 intcut     :    25.0
 scfconv/Eh :  0.100E-05
   qconv/e  :  0.100E-03
 intneglect :  0.100E-07
 broydamp   :      0.250
 iter      E             dE          RMSdq      gap      omega  full diag
   1    -50.5226087 -0.505226E+02  0.711E+00   10.36       0.0  T
   2    -50.5836644 -0.610557E-01  0.513E+00    8.98       1.0  T
   3    -50.6292652 -0.456008E-01  0.144E+00    4.79       1.0  T
   4    -50.6356503 -0.638519E-02  0.635E-01    5.11       1.0  T
   5    -50.6363945 -0.744138E-03  0.371E-01    4.96       1.0  T
   6    -50.6370891 -0.694620E-03  0.167E-01    5.10       1.0  T
   7    -50.6372828 -0.193716E-03  0.538E-02    5.15       1.0  T
   8    -50.6372960 -0.131392E-04  0.357E-02    5.14       1.0  T
   9    -50.6373042 -0.824762E-05  0.107E-02    5.16       1.8  T
  10    -50.6373049 -0.737327E-06  0.244E-03    5.16       8.0  T
  11    -50.6373050 -0.237214E-07  0.126E-03    5.16      15.5  T
  12    -50.6373050 -0.517740E-08  0.352E-04    5.16      55.6  T
  13    -50.6373050 -0.478657E-09  0.139E-04    5.16     141.0  T
speedup  0.91
cpu  time for SCC    0.01 s
wall time for SCC    0.02 s

   *** convergence criteria satisfied after 13 iterations ***

          eigenvalues
 #    :          28         29         30         31         32         33         34         35
 occ. :        2.000      2.000      2.000      2.000      2.000      2.000      2.000      2.000
 eps  :       -13.260    -13.003    -12.819    -12.574    -12.407    -11.989    -11.743    -11.417
 #    :          36         37         38         39         40         41         42         43
 occ. :        2.000      2.000      2.000      2.000      2.000      0.000      0.000      0.000
 eps  :       -11.367    -11.128    -10.721     -8.832     -8.419     -3.254     -1.942     -0.827
 #    :          44         45         46         47         48         49         50         51
 occ. :        0.000      0.000      0.000      0.000      0.000      0.000      0.000      0.000
 eps  :        -0.435      0.000      1.628      2.015      3.137      3.585      4.511      4.707


   #   Z            q   n(s)   n(p)   n(d)      C6AA      α(0)
   1  16 S      1.725  1.573  1.766  0.936    88.212    15.808
   2   8 O     -0.719  1.769  4.951  0.000    29.238     7.250
   3   8 O     -0.716  1.769  4.947  0.000    29.140     7.238
   4   8 O     -0.599  1.723  4.876  0.000    25.120     6.766
   5   8 O     -0.535  1.719  4.816  0.000    23.657     6.566
   6   1 H      0.382  0.618  0.000  0.000     0.512     1.120
   7   1 H      0.421  0.579  0.000  0.000     0.441     1.039
   8   8 O     -0.860  1.847  5.013  0.000    33.457     7.755
   9   1 H      0.232  0.768  0.000  0.000     0.967     1.545
  10   8 O     -0.903  1.814  5.089  0.000    34.837     7.915
  11   1 H      0.178  0.822  0.000  0.000     1.240     1.749
  12   8 O     -0.636  1.749  4.887  0.000    26.065     6.891
  13   1 H      0.294  0.706  0.000  0.000     0.739     1.351
  14   1 H      0.308  0.692  0.000  0.000     0.696     1.310
  15   8 O     -0.651  1.758  4.893  0.000    26.445     6.941
  16   1 H      0.268  0.732  0.000  0.000     0.827     1.428
  17   1 H      0.325  0.675  0.000  0.000     0.649     1.264
  18   8 O     -0.474  1.666  4.808  0.000    22.279     6.375
  19   1 H      0.378  0.622  0.000  0.000     0.527     1.140
  20   1 H      0.409  0.591  0.000  0.000     0.461     1.062
  21   1 H      0.385  0.615  0.000  0.000     0.509     1.118
  22   7 N     -0.322  1.267  4.055  0.000    28.272     7.897
  23   1 H      0.238  0.762  0.000  0.000     0.932     1.512
  24   1 H      0.313  0.687  0.000  0.000     0.675     1.286
  25   1 H      0.291  0.709  0.000  0.000     0.740     1.348
  26   1 H      0.268  0.732  0.000  0.000     0.816     1.415

 Mol. C6AA /au·bohr⁶  :       5514.084808
 Mol. C8AA /au·bohr⁸  :     119196.673124
 Mol. α(0) /au        :        107.089159

 
 Wiberg/Mayer (AO) data. WBOs > 0.1 written file <wbo>
 largest (>0.05) Wiberg bond orders for each atom
           total WBO             WBO to atom ...
     1  S   4.796    O    2 1.333    O    3 1.332    O    4 1.062    O    5 1.023
     2  O   1.702    S    1 1.333    O    3 0.134    O    4 0.093    O    5 0.072
     3  O   1.702    S    1 1.332    O    2 0.134    O    4 0.093    O    5 0.073
     4  O   2.007    S    1 1.062    H    7 0.660    O    2 0.093    O    3 0.093
     5  O   2.059    S    1 1.023    H    6 0.830    O    3 0.073    O    2 0.072
     6  H   0.854    O    5 0.830
     7  H   0.823    O    4 0.660    O    8 0.140
     8  O   1.629    H    9 0.936    H   21 0.159    H    7 0.140    H   17 0.106    H   25 0.085    O   18 0.055
     9  H   0.946    O    8 0.936
    10  O   1.441    H   11 0.942    H   20 0.202    H   24 0.162    N   22 0.067    O   18 0.059
    11  H   0.968    O   10 0.942
    12  O   1.804    H   13 0.884    H   14 0.869
    13  H   0.914    O   12 0.884
    14  H   0.905    O   12 0.869
    15  O   1.804    H   16 0.920    H   17 0.777
    16  H   0.928    O   15 0.920
    17  H   0.895    O   15 0.777    O    8 0.106
    18  O   2.263    H   19 0.805    H   21 0.683    H   20 0.623    O   10 0.059    O    8 0.055
    19  H   0.857    O   18 0.805
    20  H   0.832    O   18 0.623    O   10 0.202
    21  H   0.851    O   18 0.683    O    8 0.159
    22  N   3.536    H   23 0.937    H   26 0.899    H   25 0.820    H   24 0.734    O   10 0.067
    23  H   0.943    N   22 0.937
    24  H   0.902    N   22 0.734    O   10 0.162
    25  H   0.915    N   22 0.820    O    8 0.085
    26  H   0.928    N   22 0.899
 MOs/occ written to file <molden.input>
 
molecular dipole:
                 x           y           z       tot (Debye)
 q only:        0.016       2.024       0.441
   full:        0.115       2.687       0.691       7.058
molecular quadrupole (traceless):
                xx          xy          yy          xz          yz          zz
 q only:        2.970     -11.069       6.761       8.178       2.685      -9.732
  q+dip:        2.751     -11.482      13.098      12.589       0.002     -15.849
   full:        3.094     -11.185      13.151      13.001      -0.061     -16.246

SCC energy    :     -50.6373050
rep           :       0.2949029
ES            :       0.3194904
AES           :      -0.0624842
AXC           :      -0.0075978
disp          :      -0.0195216
XB            :       0.0000000
fix           :       0.0000000
total E       :     -50.3420928
atomizationE  :       4.8723969     3057.48
(atE without considering molecular charge,
 total energy contains solvation terms)
H-L gap (eV)  :          5.1641
           ------------------------------------------------- 
          |                 ===============                 |
          |                   A N C O P T                   |
          |                 ===============                 |
          |          Approximate Normal Coordinate          |
          |           Rational Function Optimizer           |
           ------------------------------------------------- 
dumping coords to <xtbopt.coord> and <xtbopt.log>
 optlevel               2
 Maxcycle             520
 Maxmicro              25
 Econv         1.000000000000000E-007
 Gconv         2.000000000000000E-004
 Maxdispl       1.00000000000000     
 Hlow          5.000000000000000E-003
 S6             20.0000000000000     
 Nvar               72

generating ANC from model Hessian ...
 Shifting diagonal of input Hessian by   7.438977907491838E-003
 Lowest  eigenvalues of input Hessian
    0.005000   -0.000000   -0.000000   -0.000000   -0.000000    0.000000
    0.000000    0.007493    0.007770    0.008196    0.008407    0.009520
    0.009741    0.010656    0.010886    0.010963    0.011229    0.012106
 Highest eigenvalues
    1.568159    1.570245    1.604214    3.215664    3.414164    3.466402
 
cpu  time for ANC gen    0.02 s
wall time for ANC gen    0.02 s
................................................................................
.............................. CYCLE    1 ......................................
................................................................................
   1    -50.6373050 -0.506373E+02  0.623E-05    5.16       0.0  T
   2    -50.6373050 -0.110916E-10  0.449E-05    5.16     436.6  T
   3    -50.6373050 -0.770939E-11  0.203E-05    5.16     964.3  T
speedup  1.00
cpu  time for SCC    0.00 s
wall time for SCC    0.00 s
speedup  0.95
cpu  time for grad    0.01 s
wall time for grad    0.01 s
 E :    -50.34209273  G :  0.251128    pred/act E change:  0.000D+00  0.248D-07
Maxdispl :   0.0926   ||displ|| :   0.2793   Lambda : -0.400D-01
Largest |displ|/coords:  0.0926 (  55)  0.0782 (  44)  0.0725 (  19)
................................................................................
.............................. CYCLE    2 ......................................
................................................................................
   1    -50.6531367 -0.506531E+02  0.289E-01    5.38       0.0  T
   2    -50.6534878 -0.351125E-03  0.217E-01    5.55       1.0  T
   3    -50.6536416 -0.153744E-03  0.104E-01    5.82       1.0  T
   4    -50.6536514 -0.985068E-05  0.253E-02    5.88       1.0  T
   5    -50.6536524 -0.102921E-05  0.562E-03    5.87       3.5  T
   6    -50.6536525 -0.705850E-07  0.312E-03    5.87       6.3  T
speedup  1.25
cpu  time for SCC    0.01 s
wall time for SCC    0.01 s
speedup  1.01
cpu  time for grad    0.01 s
wall time for grad    0.01 s
 E :    -50.37373191  G :  0.158486    pred/act E change:  0.000D+00 -0.316D-01
Maxdispl :   0.0843   ||displ|| :   0.2752   Lambda : -0.198D-01
Largest |displ|/coords:  0.0843 (  31)  0.0838 (  20)  0.0742 (  44)
................................................................................
.............................. CYCLE    3 ......................................
................................................................................
   1    -50.6639102 -0.506639E+02  0.268E-01    6.03       0.0  T
   2    -50.6643090 -0.398807E-03  0.197E-01    6.22       1.0  T
   3    -50.6644716 -0.162601E-03  0.103E-01    6.49       1.0  T
   4    -50.6644788 -0.722854E-05  0.245E-02    6.57       1.0  T
   5    -50.6644801 -0.121396E-05  0.510E-03    6.55       3.8  T
   6    -50.6644801 -0.580445E-07  0.295E-03    6.56       6.7  T
speedup  0.91
cpu  time for SCC    0.00 s
wall time for SCC    0.01 s
speedup  0.96
cpu  time for grad    0.01 s
wall time for grad    0.01 s
 E :    -50.39005951  G :  0.101457    pred/act E change: -0.216D-01 -0.163D-01
Maxdispl :   0.1145   ||displ|| :   0.2950   Lambda : -0.115D-01
Largest |displ|/coords:  0.1145 (  20)  0.0789 (  12)  0.0701 (  31)
................................................................................
.............................. CYCLE    4 ......................................
................................................................................
   1    -50.6701740 -0.506702E+02  0.279E-01    6.63       0.0  T
   2    -50.6705641 -0.390092E-03  0.202E-01    6.82       1.0  T
   3    -50.6707264 -0.162310E-03  0.976E-02    7.10       1.0  T
   4    -50.6707348 -0.840703E-05  0.252E-02    7.16       1.0  T
   5    -50.6707364 -0.163410E-05  0.552E-03    7.15       3.6  T
   6    -50.6707365 -0.615156E-07  0.330E-03    7.15       5.9  T
speedup  1.09
cpu  time for SCC    0.01 s
wall time for SCC    0.01 s
speedup  1.04
cpu  time for grad    0.01 s
wall time for grad    0.01 s
 E :    -50.39974976  G :  0.066662    pred/act E change: -0.107D-01 -0.969D-02
Maxdispl :   0.1425   ||displ|| :   0.3292   Lambda : -0.758D-02
Largest |displ|/coords:  0.1425 (  12)  0.1296 (  20)  0.1060 (  11)
................................................................................
.............................. CYCLE    5 ......................................
................................................................................
   1    -50.6716602 -0.506717E+02  0.382E-01    7.09       0.0  T
   2    -50.6720602 -0.400058E-03  0.278E-01    7.29       1.0  T
   3    -50.6722290 -0.168716E-03  0.101E-01    7.63       1.0  T
   4    -50.6722514 -0.223893E-04  0.264E-02    7.63       1.0  T
   5    -50.6722537 -0.234483E-05  0.606E-03    7.61       3.2  T
   6    -50.6722538 -0.726849E-07  0.387E-03    7.61       5.1  T
   7    -50.6722538 -0.251843E-07  0.112E-03    7.61      17.6  T
speedup  1.08
cpu  time for SCC    0.01 s
wall time for SCC    0.01 s
speedup  1.04
cpu  time for grad    0.01 s
wall time for grad    0.01 s
 E :    -50.40630082  G :  0.060905    pred/act E change: -0.625D-02 -0.655D-02
Maxdispl :   0.1227   ||displ|| :   0.2573   Lambda : -0.615D-02
Largest |displ|/coords:  0.1227 (  20)  0.0698 (  23)  0.0671 (  14)
................................................................................
.............................. CYCLE    6 ......................................
................................................................................
   1    -50.6793329 -0.506793E+02  0.193E-01    7.65       0.0  T
   2    -50.6795344 -0.201489E-03  0.139E-01    7.73       1.0  T
   3    -50.6796234 -0.890004E-04  0.661E-02    7.82       1.0  T
   4    -50.6796295 -0.611314E-05  0.185E-02    7.84       1.1  T
   5    -50.6796303 -0.817522E-06  0.531E-03    7.84       3.7  T
   6    -50.6796304 -0.425514E-07  0.277E-03    7.84       7.1  T
speedup  1.11
cpu  time for SCC    0.01 s
wall time for SCC    0.01 s
speedup  1.04
cpu  time for grad    0.01 s
wall time for grad    0.01 s
 E :    -50.41144680  G :  0.052380    pred/act E change: -0.420D-02 -0.515D-02
Maxdispl :   0.1355   ||displ|| :   0.3437   Lambda : -0.647D-02
Largest |displ|/coords:  0.1355 (  12)  0.1336 (  11)  0.1010 (  15)
................................................................................
.............................. CYCLE    7 ......................................
................................................................................
   1    -50.6756920 -0.506757E+02  0.478E-01    7.71       0.0  T
   2    -50.6761855 -0.493443E-03  0.343E-01    7.78       1.0  T
   3    -50.6763986 -0.213098E-03  0.110E-01    7.87       1.0  T
   4    -50.6764330 -0.344416E-04  0.244E-02    7.88       1.0  T
   5    -50.6764346 -0.156632E-05  0.798E-03    7.87       2.5  T
   6    -50.6764348 -0.211421E-06  0.495E-03    7.87       4.0  T
   7    -50.6764348 -0.339848E-07  0.106E-03    7.87      18.5  T
speedup  1.11
cpu  time for SCC    0.01 s
wall time for SCC    0.01 s
speedup  1.05
cpu  time for grad    0.01 s
wall time for grad    0.01 s
 E :    -50.41544730  G :  0.078842    pred/act E change: -0.328D-02 -0.400D-02
Maxdispl :   0.1282   ||displ|| :   0.3072   Lambda : -0.102D-01
Largest |displ|/coords:  0.1282 (  10)  0.1222 (  13)  0.0953 (  12)
................................................................................
.............................. CYCLE    8 ......................................
................................................................................
   1    -50.6938049 -0.506938E+02  0.419E-01    7.86       0.0  T
   2    -50.6939610 -0.156111E-03  0.313E-01    7.90       1.0  T
   3    -50.6940591 -0.981324E-04  0.709E-02    7.99       1.0  T
   4    -50.6940769 -0.178221E-04  0.239E-02    7.98       1.0  T
   5    -50.6940781 -0.112855E-05  0.711E-03    7.98       2.8  T
   6    -50.6940781 -0.392158E-07  0.367E-03    7.98       5.3  T
   7    -50.6940781 -0.337508E-07  0.861E-04    7.98      22.8  T
speedup  1.08
cpu  time for SCC    0.01 s
wall time for SCC    0.01 s
speedup  1.03
cpu  time for grad    0.01 s
wall time for grad    0.01 s
 E :    -50.41973709  G :  0.063314    pred/act E change: -0.362D-02 -0.429D-02
Maxdispl :   0.1012   ||displ|| :   0.3171   Lambda : -0.830D-02
Largest |displ|/coords:  0.1012 (   1)  0.1010 (  26)  0.0965 (  15)
................................................................................
.............................. CYCLE    9 ......................................
................................................................................
   1    -50.6963934 -0.506964E+02  0.377E-01    7.99       0.0  T
   2    -50.6966161 -0.222648E-03  0.276E-01    8.02       1.0  T
   3    -50.6967294 -0.113347E-03  0.784E-02    8.08       1.0  T
   4    -50.6967503 -0.208791E-04  0.197E-02    8.09       1.0  T
   5    -50.6967512 -0.853971E-06  0.668E-03    8.09       2.9  T
   6    -50.6967512 -0.910382E-07  0.415E-03    8.09       4.7  T
   7    -50.6967513 -0.220510E-07  0.811E-04    8.08      24.2  T
speedup  1.13
cpu  time for SCC    0.01 s
wall time for SCC    0.01 s
speedup  1.06
cpu  time for grad    0.01 s
wall time for grad    0.01 s
 E :    -50.42538050  G :  0.065203    pred/act E change: -0.559D-02 -0.564D-02
Maxdispl :   0.1208   ||displ|| :   0.2972   Lambda : -0.587D-02
Largest |displ|/coords:  0.1208 (   1)  0.1005 (   7)  0.0976 (  14)
................................................................................
.............................. CYCLE   10 ......................................
................................................................................
   1    -50.7008041 -0.507008E+02  0.324E-01    8.04       0.0  T
   2    -50.7008971 -0.930081E-04  0.245E-01    8.08       1.0  T
   3    -50.7009438 -0.467448E-04  0.575E-02    8.18       1.0  T
   4    -50.7009574 -0.136147E-04  0.184E-02    8.17       1.1  T
   5    -50.7009582 -0.792065E-06  0.489E-03    8.16       4.0  T
   6    -50.7009583 -0.244737E-07  0.294E-03    8.16       6.7  T
speedup  1.09
cpu  time for SCC    0.01 s
wall time for SCC    0.01 s
speedup  1.04
cpu  time for grad    0.01 s
wall time for grad    0.01 s
 E :    -50.43011384  G :  0.060020    pred/act E change: -0.457D-02 -0.473D-02
Maxdispl :   0.0995   ||displ|| :   0.2591   Lambda : -0.605D-02
Largest |displ|/coords:  0.0995 (  15)  0.0939 (   1)  0.0721 (   8)
................................................................................
.............................. CYCLE   11 ......................................
................................................................................
   1    -50.7168446 -0.507168E+02  0.243E-01    8.27       0.0  T
   2    -50.7169064 -0.618112E-04  0.183E-01    8.29       1.0  T
   3    -50.7169418 -0.353613E-04  0.447E-02    8.32       1.0  T
   4    -50.7169498 -0.803981E-05  0.151E-02    8.33       1.3  T
   5    -50.7169503 -0.400821E-06  0.460E-03    8.33       4.3  T
   6    -50.7169503 -0.277242E-07  0.254E-03    8.33       7.7  T
speedup  1.09
cpu  time for SCC    0.01 s
wall time for SCC    0.01 s
speedup  1.03
cpu  time for grad    0.01 s
wall time for grad    0.01 s
 E :    -50.43486058  G :  0.053767    pred/act E change: -0.320D-02 -0.475D-02
Maxdispl :   0.0987   ||displ|| :   0.2732   Lambda : -0.542D-02
Largest |displ|/coords:  0.0987 (  14)  0.0870 (   7)  0.0745 (  17)
................................................................................
.............................. CYCLE   12 ......................................
................................................................................
   1    -50.7180486 -0.507180E+02  0.266E-01    8.34       0.0  T
   2    -50.7181256 -0.769874E-04  0.199E-01    8.38       1.0  T
   3    -50.7181659 -0.402997E-04  0.502E-02    8.46       1.0  T
   4    -50.7181753 -0.942967E-05  0.156E-02    8.45       1.3  T
   5    -50.7181759 -0.570689E-06  0.461E-03    8.44       4.3  T
   6    -50.7181759 -0.282852E-07  0.280E-03    8.44       7.0  T
speedup  0.91
cpu  time for SCC    0.00 s
wall time for SCC    0.01 s
speedup  0.96
cpu  time for grad    0.01 s
wall time for grad    0.01 s
 E :    -50.43946513  G :  0.048241    pred/act E change: -0.323D-02 -0.460D-02
Maxdispl :   0.1777   ||displ|| :   0.5621   Lambda : -0.126D-01
Largest |displ|/coords:  0.1777 (  29)  0.1621 (  15)  0.1510 (  14)
................................................................................
.............................. CYCLE   13 ......................................
................................................................................
   1    -50.7479819 -0.507480E+02  0.404E-01    8.72       0.0  T
   2    -50.7482063 -0.224462E-03  0.298E-01    8.77       1.0  T
   3    -50.7483626 -0.156292E-03  0.877E-02    8.89       1.0  T
   4    -50.7483813 -0.186426E-04  0.263E-02    8.89       1.0  T
   5    -50.7483827 -0.139349E-05  0.894E-03    8.89       2.2  T
   6    -50.7483828 -0.116208E-06  0.515E-03    8.89       3.8  T
   7    -50.7483828 -0.322535E-07  0.126E-03    8.89      15.5  T
speedup  0.94
cpu  time for SCC    0.01 s
wall time for SCC    0.01 s
speedup  0.98
cpu  time for grad    0.01 s
wall time for grad    0.01 s
 E :    -50.44612450  G :  0.044894    pred/act E change: -0.291D-02 -0.666D-02
Maxdispl :   0.1549   ||displ|| :   0.4100   Lambda : -0.686D-02
Largest |displ|/coords:  0.1549 (  15)  0.1426 (  14)  0.1161 (  27)
................................................................................
.............................. CYCLE   14 ......................................
................................................................................
   1    -50.7397805 -0.507398E+02  0.342E-01    8.93       0.0  T
   2    -50.7399048 -0.124280E-03  0.250E-01    8.92       1.0  T
   3    -50.7399621 -0.573364E-04  0.635E-02    8.90       1.0  T
   4    -50.7399734 -0.113001E-04  0.184E-02    8.89       1.1  T
   5    -50.7399743 -0.851460E-06  0.453E-03    8.89       4.3  T
   6    -50.7399743 -0.263285E-07  0.275E-03    8.90       7.1  T
speedup  0.93
cpu  time for SCC    0.01 s
wall time for SCC    0.01 s
speedup  0.98
cpu  time for grad    0.01 s
wall time for grad    0.01 s
 E :    -50.44708458  G :  0.060812    pred/act E change: -0.832D-02 -0.960D-03
Maxdispl :   0.1224   ||displ|| :   0.2756   Lambda : -0.821D-02
Largest |displ|/coords:  0.1224 (  20)  0.0892 (   7)  0.0755 (  15)
................................................................................
.............................. CYCLE   15 ......................................
................................................................................
   1    -50.7439995 -0.507440E+02  0.355E-01    8.88       0.0  T
   2    -50.7441358 -0.136333E-03  0.263E-01    8.90       1.0  T
   3    -50.7442087 -0.728915E-04  0.664E-02    8.96       1.0  T
   4    -50.7442221 -0.134062E-04  0.207E-02    8.96       1.0  T
   5    -50.7442231 -0.105812E-05  0.551E-03    8.95       3.6  T
   6    -50.7442232 -0.172046E-07  0.311E-03    8.95       6.3  T
speedup  1.09
cpu  time for SCC    0.01 s
wall time for SCC    0.01 s
speedup  1.04
cpu  time for grad    0.01 s
wall time for grad    0.01 s
 E :    -50.44807245  G :  0.053975    pred/act E change: -0.401D-02 -0.988D-03
Maxdispl :   0.1052   ||displ|| :   0.2904   Lambda : -0.673D-02
Largest |displ|/coords:  0.1052 (  20)  0.1020 (  15)  0.0909 (   3)
................................................................................
.............................. CYCLE   16 ......................................
................................................................................
   1    -50.7477374 -0.507477E+02  0.342E-01    9.04       0.0  T
   2    -50.7478771 -0.139726E-03  0.252E-01    9.02       1.0  T
   3    -50.7479587 -0.815734E-04  0.642E-02    8.98       1.0  T
   4    -50.7479733 -0.146215E-04  0.129E-02    9.00       1.5  T
   5    -50.7479735 -0.219347E-06  0.615E-03    9.00       3.2  T
   6    -50.7479736 -0.467031E-07  0.267E-03    9.00       7.4  T
   7    -50.7479736 -0.142847E-07  0.629E-04    9.00      31.2  T
speedup  1.11
cpu  time for SCC    0.01 s
wall time for SCC    0.01 s
speedup  1.05
cpu  time for grad    0.01 s
wall time for grad    0.01 s
 E :    -50.44913856  G :  0.045653    pred/act E change: -0.442D-02 -0.107D-02
Maxdispl :   0.0942   ||displ|| :   0.1962   Lambda : -0.288D-02
Largest |displ|/coords:  0.0942 (   4)  0.0597 (  14)  0.0547 (  27)
................................................................................
.............................. CYCLE   17 ......................................
................................................................................
   1    -50.7436126 -0.507436E+02  0.187E-01    8.96       0.0  T
   2    -50.7436454 -0.328744E-04  0.140E-01    8.98       1.0  T
   3    -50.7436679 -0.224871E-04  0.321E-02    9.02       1.0  T
   4    -50.7436719 -0.393817E-05  0.892E-03    9.01       2.2  T
   5    -50.7436721 -0.186149E-06  0.366E-03    9.00       5.4  T
   6    -50.7436721 -0.132482E-07  0.186E-03    9.00      10.5  T
speedup  1.11
cpu  time for SCC    0.01 s
wall time for SCC    0.01 s
speedup  1.06
cpu  time for grad    0.01 s
wall time for grad    0.01 s
 E :    -50.45057607  G :  0.020627    pred/act E change: -0.365D-02 -0.144D-02
Maxdispl :   0.0600   ||displ|| :   0.1598   Lambda : -0.129D-02
Largest |displ|/coords:  0.0600 (   4)  0.0575 (  11)  0.0504 (  19)
................................................................................
.............................. CYCLE   18 ......................................
................................................................................
   1    -50.7459734 -0.507460E+02  0.166E-01    9.03       0.0  T
   2    -50.7459940 -0.206427E-04  0.125E-01    9.04       1.0  T
   3    -50.7460065 -0.124798E-04  0.268E-02    9.06       1.0  T
   4    -50.7460092 -0.272918E-05  0.941E-03    9.06       2.1  T
   5    -50.7460094 -0.180531E-06  0.265E-03    9.06       7.4  T
   6    -50.7460094 -0.714979E-08  0.155E-03    9.06      12.7  T
speedup  1.11
cpu  time for SCC    0.01 s
wall time for SCC    0.01 s
speedup  0.98
cpu  time for grad    0.01 s
wall time for grad    0.01 s
 E :    -50.45093779  G :  0.027072    pred/act E change: -0.150D-02 -0.362D-03
Maxdispl :   0.0657   ||displ|| :   0.1466   Lambda : -0.104D-02
Largest |displ|/coords:  0.0657 (   6)  0.0536 (  12)  0.0502 (   3)
................................................................................
.............................. CYCLE   19 ......................................
................................................................................
   1    -50.7481690 -0.507482E+02  0.110E-01    9.08       0.0  T
   2    -50.7481783 -0.930195E-05  0.820E-02    9.10       1.0  T
   3    -50.7481846 -0.629038E-05  0.175E-02    9.13       1.1  T
   4    -50.7481858 -0.113552E-05  0.509E-03    9.12       3.9  T
   5    -50.7481858 -0.480162E-07  0.181E-03    9.12      10.8  T
speedup  1.11
cpu  time for SCC    0.01 s
wall time for SCC    0.00 s
speedup  1.05
cpu  time for grad    0.01 s
wall time for grad    0.01 s
 E :    -50.45160867  G :  0.013929    pred/act E change: -0.662D-03 -0.671D-03
Maxdispl :   0.1473   ||displ|| :   0.3475   Lambda : -0.146D-02
Largest |displ|/coords:  0.1473 (   4)  0.1391 (   6)  0.1155 (  12)
................................................................................
.............................. CYCLE   20 ......................................
................................................................................
   1    -50.7454887 -0.507455E+02  0.154E-01    9.13       0.0  T
   2    -50.7455018 -0.131027E-04  0.114E-01    9.14       1.0  T
   3    -50.7455090 -0.722833E-05  0.208E-02    9.16       1.0  T
   4    -50.7455106 -0.156366E-05  0.598E-03    9.16       3.3  T
   5    -50.7455107 -0.782126E-07  0.192E-03    9.16      10.2  T
   6    -50.7455107 -0.346512E-08  0.106E-03    9.16      18.5  T
speedup  0.94
cpu  time for SCC    0.00 s
wall time for SCC    0.01 s
speedup  0.98
cpu  time for grad    0.01 s
wall time for grad    0.01 s
 E :    -50.45226453  G :  0.017814    pred/act E change: -0.530D-03 -0.656D-03
Maxdispl :   0.1278   ||displ|| :   0.2652   Lambda : -0.906D-03
Largest |displ|/coords:  0.1278 (   6)  0.1150 (   4)  0.0843 (  12)
................................................................................
.............................. CYCLE   21 ......................................
................................................................................
   1    -50.7464409 -0.507464E+02  0.141E-01    9.19       0.0  T
   2    -50.7464543 -0.133673E-04  0.105E-01    9.20       1.0  T
   3    -50.7464613 -0.697626E-05  0.211E-02    9.20       1.0  T
   4    -50.7464630 -0.171699E-05  0.496E-03    9.20       4.0  T
   5    -50.7464630 -0.588224E-07  0.200E-03    9.20       9.8  T
   6    -50.7464631 -0.401475E-08  0.109E-03    9.20      17.9  T
speedup  1.11
cpu  time for SCC    0.01 s
wall time for SCC    0.01 s
speedup  0.98
cpu  time for grad    0.01 s
wall time for grad    0.01 s
 E :    -50.45284665  G :  0.014250    pred/act E change: -0.817D-03 -0.582D-03
Maxdispl :   0.1191   ||displ|| :   0.3069   Lambda : -0.917D-03
Largest |displ|/coords:  0.1191 (   6)  0.1173 (  12)  0.1025 (   5)
................................................................................
.............................. CYCLE   22 ......................................
................................................................................
   1    -50.7486468 -0.507486E+02  0.185E-01    9.21       0.0  T
   2    -50.7486647 -0.179151E-04  0.138E-01    9.21       1.0  T
   3    -50.7486758 -0.111519E-04  0.258E-02    9.21       1.0  T
   4    -50.7486779 -0.205739E-05  0.559E-03    9.21       3.5  T
   5    -50.7486779 -0.573401E-07  0.236E-03    9.21       8.3  T
   6    -50.7486779 -0.647247E-08  0.112E-03    9.21      17.5  T
speedup  0.93
cpu  time for SCC    0.01 s
wall time for SCC    0.01 s
speedup  0.98
cpu  time for grad    0.01 s
wall time for grad    0.01 s
 E :    -50.45304606  G :  0.021128    pred/act E change: -0.485D-03 -0.199D-03
Maxdispl :   0.0748   ||displ|| :   0.1789   Lambda : -0.879D-03
Largest |displ|/coords:  0.0748 (   6)  0.0748 (   4)  0.0620 (   9)
................................................................................
.............................. CYCLE   23 ......................................
................................................................................
   1    -50.7508395 -0.507508E+02  0.127E-01    9.22       0.0  T
   2    -50.7508590 -0.194860E-04  0.944E-02    9.22       1.0  T
   3    -50.7508683 -0.937298E-05  0.244E-02    9.22       1.0  T
   4    -50.7508708 -0.250124E-05  0.594E-03    9.22       3.3  T
   5    -50.7508709 -0.814693E-07  0.200E-03    9.22       9.8  T
speedup  0.89
cpu  time for SCC    0.00 s
wall time for SCC    0.00 s
speedup  0.98
cpu  time for grad    0.01 s
wall time for grad    0.01 s
 E :    -50.45338715  G :  0.018010    pred/act E change: -0.501D-03 -0.341D-03
Maxdispl :   0.0422   ||displ|| :   0.0885   Lambda : -0.554D-03
Largest |displ|/coords:  0.0422 (   9)  0.0377 (   2)  0.0242 (  27)
................................................................................
.............................. CYCLE   24 ......................................
................................................................................
   1    -50.7487794 -0.507488E+02  0.583E-02    9.25       0.0  T
   2    -50.7487835 -0.409122E-05  0.434E-02    9.25       1.0  T
   3    -50.7487855 -0.209304E-05  0.119E-02    9.25       1.7  T
   4    -50.7487860 -0.418607E-06  0.415E-03    9.25       4.7  T
   5    -50.7487860 -0.338510E-07  0.114E-03    9.25      17.2  T
   6    -50.7487860 -0.128749E-08  0.561E-04    9.25      35.0  T
speedup  1.11
cpu  time for SCC    0.01 s
wall time for SCC    0.01 s
speedup  1.04
cpu  time for grad    0.01 s
wall time for grad    0.01 s
 E :    -50.45364686  G :  0.013211    pred/act E change: -0.454D-03 -0.260D-03
Maxdispl :   0.0564   ||displ|| :   0.1165   Lambda : -0.288D-03
Largest |displ|/coords:  0.0564 (   5)  0.0439 (  12)  0.0362 (   6)
................................................................................
.............................. CYCLE   25 ......................................
................................................................................
   1    -50.7476898 -0.507477E+02  0.654E-02    9.27       0.0  T
   2    -50.7476936 -0.385838E-05  0.490E-02    9.27       1.0  T
   3    -50.7476952 -0.159058E-05  0.108E-02    9.27       1.8  T
   4    -50.7476958 -0.594164E-06  0.312E-03    9.27       6.3  T
   5    -50.7476958 -0.252032E-07  0.962E-04    9.27      20.4  T
   6    -50.7476958 -0.104438E-08  0.502E-04    9.27      39.1  T
speedup  0.93
cpu  time for SCC    0.00 s
wall time for SCC    0.01 s
speedup  0.98
cpu  time for grad    0.01 s
wall time for grad    0.01 s
 E :    -50.45382708  G :  0.009614    pred/act E change: -0.279D-03 -0.180D-03
Maxdispl :   0.1309   ||displ|| :   0.2235   Lambda : -0.453D-03
Largest |displ|/coords:  0.1309 (   5)  0.0798 (   9)  0.0772 (  12)

generating ANC from model Hessian ...
 Shifting diagonal of input Hessian by   5.031016618480100E-003
 Lowest  eigenvalues of input Hessian
    0.005000   -0.000000   -0.000000   -0.000000   -0.000000    0.000000
    0.000000    0.005176    0.005511    0.005785    0.006009    0.006391
    0.006930    0.007626    0.007718    0.008456    0.010348    0.010673
 Highest eigenvalues
    1.411482    1.422703    1.467015    2.644639    3.470805    3.584707
 
cpu  time for ANC gen    0.02 s
wall time for ANC gen    0.02 s
................................................................................
.............................. CYCLE   26 ......................................
................................................................................
   1    -50.7525167 -0.507525E+02  0.106E-01    9.30       0.0  T
   2    -50.7525231 -0.636081E-05  0.794E-02    9.30       1.0  T
   3    -50.7525273 -0.426637E-05  0.146E-02    9.30       1.3  T
   4    -50.7525282 -0.840204E-06  0.427E-03    9.30       4.6  T
   5    -50.7525282 -0.339415E-07  0.166E-03    9.30      11.8  T
   6    -50.7525282 -0.335184E-08  0.910E-04    9.30      21.6  T
   7    -50.7525282 -0.172286E-08  0.218E-04    9.30      89.8  T
speedup  0.97
cpu  time for SCC    0.01 s
wall time for SCC    0.01 s
speedup  0.95
cpu  time for grad    0.01 s
wall time for grad    0.01 s
 E :    -50.45389995  G :  0.012482    pred/act E change:  0.000D+00 -0.729D-04
Maxdispl :   0.0935   ||displ|| :   0.2015   Lambda : -0.543D-03
Largest |displ|/coords:  0.0935 (   3)  0.0877 (   6)  0.0751 (   4)
................................................................................
.............................. CYCLE   27 ......................................
................................................................................
   1    -50.7497525 -0.507498E+02  0.218E-01    9.28       0.0  T
   2    -50.7497596 -0.713432E-05  0.166E-01    9.28       1.0  T
   3    -50.7497673 -0.766345E-05  0.126E-02    9.28       1.6  T
   4    -50.7497679 -0.643377E-06  0.424E-03    9.28       4.6  T
   5    -50.7497679 -0.182738E-07  0.195E-03    9.28      10.0  T
   6    -50.7497679 -0.415611E-08  0.708E-04    9.28      27.7  T
speedup  1.11
cpu  time for SCC    0.01 s
wall time for SCC    0.01 s
speedup  0.98
cpu  time for grad    0.01 s
wall time for grad    0.01 s
 E :    -50.45424360  G :  0.006843    pred/act E change:  0.000D+00 -0.344D-03
Maxdispl :   0.1634   ||displ|| :   0.2781   Lambda : -0.473D-03
Largest |displ|/coords:  0.1634 (   1)  0.1108 (   3)  0.1020 (   7)
................................................................................
.............................. CYCLE   28 ......................................
................................................................................
   1    -50.7470537 -0.507471E+02  0.208E-01    9.25       0.0  T
   2    -50.7470620 -0.828764E-05  0.156E-01    9.25       1.0  T
   3    -50.7470680 -0.593017E-05  0.162E-02    9.25       1.2  T
   4    -50.7470692 -0.120675E-05  0.452E-03    9.25       4.3  T
   5    -50.7470692 -0.274611E-07  0.208E-03    9.25       9.5  T
   6    -50.7470692 -0.434733E-08  0.882E-04    9.25      22.2  T
speedup  0.93
cpu  time for SCC    0.00 s
wall time for SCC    0.01 s
speedup  0.98
cpu  time for grad    0.01 s
wall time for grad    0.01 s
 E :    -50.45442156  G :  0.013648    pred/act E change: -0.283D-03 -0.178D-03
Maxdispl :   0.0449   ||displ|| :   0.1028   Lambda : -0.227D-03
Largest |displ|/coords:  0.0449 (   4)  0.0418 (   1)  0.0402 (   7)
................................................................................
.............................. CYCLE   29 ......................................
................................................................................
   1    -50.7489717 -0.507490E+02  0.622E-02    9.25       0.0  T
   2    -50.7489727 -0.932997E-06  0.465E-02    9.25       1.0  T
   3    -50.7489734 -0.675374E-06  0.600E-03    9.26       3.3  T
   4    -50.7489735 -0.118475E-06  0.153E-03    9.26      12.9  T
   5    -50.7489735 -0.336801E-08  0.622E-04    9.26      31.6  T
speedup  0.87
cpu  time for SCC    0.00 s
wall time for SCC    0.00 s
speedup  0.95
cpu  time for grad    0.01 s
wall time for grad    0.01 s
 E :    -50.45458477  G :  0.007214    pred/act E change: -0.255D-03 -0.163D-03
Maxdispl :   0.1685   ||displ|| :   0.3109   Lambda : -0.340D-03
Largest |displ|/coords:  0.1685 (   3)  0.1648 (   1)  0.1136 (   6)
................................................................................
.............................. CYCLE   30 ......................................
................................................................................
   1    -50.7493065 -0.507493E+02  0.249E-01    9.25       0.0  T
   2    -50.7493146 -0.810340E-05  0.189E-01    9.25       1.0  T
   3    -50.7493237 -0.909687E-05  0.161E-02    9.25       1.2  T
   4    -50.7493243 -0.551927E-06  0.484E-03    9.25       4.0  T
   5    -50.7493243 -0.218473E-07  0.182E-03    9.25      10.8  T
   6    -50.7493243 -0.326626E-08  0.874E-04    9.25      22.4  T
speedup  0.91
cpu  time for SCC    0.00 s
wall time for SCC    0.01 s
speedup  0.98
cpu  time for grad    0.01 s
wall time for grad    0.01 s
 E :    -50.45471028  G :  0.011356    pred/act E change: -0.115D-03 -0.126D-03
Maxdispl :   0.1924   ||displ|| :   0.3332   Lambda : -0.439D-03
Largest |displ|/coords:  0.1924 (   1)  0.1594 (   4)  0.1365 (   7)
................................................................................
.............................. CYCLE   31 ......................................
................................................................................
   1    -50.7501912 -0.507502E+02  0.219E-01    9.23       0.0  T
   2    -50.7502019 -0.106879E-04  0.165E-01    9.23       1.0  T
   3    -50.7502110 -0.909122E-05  0.197E-02    9.23       1.0  T
   4    -50.7502123 -0.132372E-05  0.454E-03    9.23       4.3  T
   5    -50.7502123 -0.257759E-07  0.260E-03    9.23       7.6  T
   6    -50.7502123 -0.978955E-08  0.946E-04    9.23      20.7  T
speedup  0.93
cpu  time for SCC    0.01 s
wall time for SCC    0.01 s
speedup  0.98
cpu  time for grad    0.01 s
wall time for grad    0.01 s
 E :    -50.45482866  G :  0.012471    pred/act E change: -0.186D-03 -0.118D-03
Maxdispl :   0.0676   ||displ|| :   0.1046   Lambda : -0.250D-03
Largest |displ|/coords:  0.0676 (   9)  0.0333 (   4)  0.0327 (   3)
................................................................................
.............................. CYCLE   32 ......................................
................................................................................
   1    -50.7509334 -0.507509E+02  0.998E-02    9.24       0.0  T
   2    -50.7509351 -0.177551E-05  0.745E-02    9.24       1.0  T
   3    -50.7509362 -0.109384E-05  0.747E-03    9.24       2.6  T
   4    -50.7509365 -0.274798E-06  0.208E-03    9.24       9.4  T
   5    -50.7509365 -0.659472E-08  0.989E-04    9.24      19.8  T
speedup  0.89
cpu  time for SCC    0.00 s
wall time for SCC    0.00 s
speedup  0.98
cpu  time for grad    0.01 s
wall time for grad    0.01 s
 E :    -50.45495000  G :  0.004522    pred/act E change: -0.244D-03 -0.121D-03
Maxdispl :   0.1495   ||displ|| :   0.2446   Lambda : -0.216D-03
Largest |displ|/coords:  0.1495 (   3)  0.1336 (   1)  0.0774 (   6)
................................................................................
.............................. CYCLE   33 ......................................
................................................................................
   1    -50.7473619 -0.507474E+02  0.208E-01    9.25       0.0  T
   2    -50.7473694 -0.743347E-05  0.157E-01    9.25       1.0  T
   3    -50.7473768 -0.740067E-05  0.144E-02    9.25       1.4  T
   4    -50.7473776 -0.784799E-06  0.391E-03    9.25       5.0  T
   5    -50.7473776 -0.733178E-08  0.226E-03    9.25       8.7  T
   6    -50.7473776 -0.833801E-08  0.433E-04    9.25      45.3  T
speedup  1.13
cpu  time for SCC    0.01 s
wall time for SCC    0.01 s
speedup  1.06
cpu  time for grad    0.01 s
wall time for grad    0.01 s
 E :    -50.45492695  G :  0.018067    pred/act E change: -0.127D-03  0.230D-04
Maxdispl :   0.0691   ||displ|| :   0.1102   Lambda : -0.380D-03
Largest |displ|/coords:  0.0691 (   5)  0.0395 (   8)  0.0362 (  10)
................................................................................
.............................. CYCLE   34 ......................................
................................................................................
   1    -50.7508088 -0.507508E+02  0.932E-02    9.27       0.0  T
   2    -50.7508108 -0.204260E-05  0.699E-02    9.27       1.0  T
   3    -50.7508123 -0.152209E-05  0.789E-03    9.27       2.5  T
   4    -50.7508126 -0.271649E-06  0.247E-03    9.27       7.9  T
   5    -50.7508126 -0.947745E-08  0.105E-03    9.27      18.6  T
speedup  1.09
cpu  time for SCC    0.00 s
wall time for SCC    0.00 s
speedup  1.05
cpu  time for grad    0.01 s
wall time for grad    0.01 s
 E :    -50.45508718  G :  0.007408    pred/act E change: -0.115D-03 -0.160D-03
Maxdispl :   0.0901   ||displ|| :   0.1663   Lambda : -0.185D-03
Largest |displ|/coords:  0.0901 (   4)  0.0774 (   1)  0.0679 (   3)
................................................................................
.............................. CYCLE   35 ......................................
................................................................................
   1    -50.7506795 -0.507507E+02  0.113E-01    9.26       0.0  T
   2    -50.7506810 -0.156776E-05  0.847E-02    9.27       1.0  T
   3    -50.7506824 -0.138151E-05  0.708E-03    9.27       2.8  T
   4    -50.7506826 -0.172626E-06  0.202E-03    9.27       9.7  T
   5    -50.7506826 -0.661973E-08  0.908E-04    9.27      21.6  T
speedup  1.11
cpu  time for SCC    0.00 s
wall time for SCC    0.00 s
speedup  1.05
cpu  time for grad    0.01 s
wall time for grad    0.01 s
 E :    -50.45516589  G :  0.004844    pred/act E change: -0.192D-03 -0.787D-04
Maxdispl :   0.1530   ||displ|| :   0.2537   Lambda : -0.152D-03
Largest |displ|/coords:  0.1530 (   1)  0.1236 (   3)  0.0816 (   9)
................................................................................
.............................. CYCLE   36 ......................................
................................................................................
   1    -50.7496049 -0.507496E+02  0.152E-01    9.27       0.0  T
   2    -50.7496074 -0.252574E-05  0.115E-01    9.27       1.0  T
   3    -50.7496102 -0.277968E-05  0.832E-03    9.27       2.4  T
   4    -50.7496104 -0.215943E-06  0.329E-03    9.27       6.0  T
   5    -50.7496104 -0.952058E-08  0.125E-03    9.27      15.8  T
   6    -50.7496104 -0.211162E-08  0.590E-04    9.27      33.2  T
speedup  1.11
cpu  time for SCC    0.01 s
wall time for SCC    0.01 s
speedup  1.05
cpu  time for grad    0.01 s
wall time for grad    0.01 s
 E :    -50.45528595  G :  0.005789    pred/act E change: -0.950D-04 -0.120D-03
Maxdispl :   0.2275   ||displ|| :   0.4157   Lambda : -0.229D-03
Largest |displ|/coords:  0.2275 (   1)  0.2013 (   3)  0.1573 (   9)
................................................................................
.............................. CYCLE   37 ......................................
................................................................................
   1    -50.7482063 -0.507482E+02  0.243E-01    9.29       0.0  T
   2    -50.7482141 -0.781078E-05  0.184E-01    9.29       1.0  T
   3    -50.7482228 -0.866825E-05  0.139E-02    9.29       1.4  T
   4    -50.7482234 -0.656131E-06  0.507E-03    9.29       3.9  T
   5    -50.7482234 -0.222752E-07  0.225E-03    9.29       8.7  T
   6    -50.7482235 -0.768709E-08  0.843E-04    9.29      23.3  T
speedup  1.11
cpu  time for SCC    0.01 s
wall time for SCC    0.01 s
speedup  1.06
cpu  time for grad    0.01 s
wall time for grad    0.01 s
 E :    -50.45535863  G :  0.015822    pred/act E change: -0.807D-04 -0.727D-04
Maxdispl :   0.0359   ||displ|| :   0.0640   Lambda : -0.194D-03
Largest |displ|/coords:  0.0359 (   9)  0.0178 (   4)  0.0174 (   6)
................................................................................
.............................. CYCLE   38 ......................................
................................................................................
   1    -50.7507532 -0.507508E+02  0.542E-02    9.31       0.0  T
   2    -50.7507553 -0.204236E-05  0.405E-02    9.31       1.0  T
   3    -50.7507565 -0.125400E-05  0.852E-03    9.31       2.3  T
   4    -50.7507568 -0.250383E-06  0.178E-03    9.31      11.0  T
   5    -50.7507568 -0.625467E-08  0.712E-04    9.31      27.5  T
speedup  1.09
cpu  time for SCC    0.00 s
wall time for SCC    0.00 s
speedup  1.04
cpu  time for grad    0.01 s
wall time for grad    0.01 s
 E :    -50.45546783  G :  0.006630    pred/act E change: -0.134D-03 -0.109D-03
Maxdispl :   0.1322   ||displ|| :   0.2541   Lambda : -0.123D-03
Largest |displ|/coords:  0.1322 (   1)  0.1055 (   4)  0.1005 (   3)
................................................................................
.............................. CYCLE   39 ......................................
................................................................................
   1    -50.7492467 -0.507492E+02  0.143E-01    9.28       0.0  T
   2    -50.7492495 -0.282781E-05  0.108E-01    9.29       1.0  T
   3    -50.7492522 -0.267317E-05  0.888E-03    9.29       2.2  T
   4    -50.7492525 -0.311505E-06  0.289E-03    9.29       6.8  T
   5    -50.7492525 -0.968950E-08  0.122E-03    9.29      16.1  T
speedup  1.09
cpu  time for SCC    0.00 s
wall time for SCC    0.00 s
speedup  1.04
cpu  time for grad    0.01 s
wall time for grad    0.01 s
 E :    -50.45553343  G :  0.007628    pred/act E change: -0.976D-04 -0.656D-04
Maxdispl :   0.1205   ||displ|| :   0.2532   Lambda : -0.172D-03
Largest |displ|/coords:  0.1205 (   9)  0.1036 (   3)  0.0905 (   1)
................................................................................
.............................. CYCLE   40 ......................................
................................................................................
   1    -50.7496258 -0.507496E+02  0.156E-01    9.29       0.0  T
   2    -50.7496296 -0.374128E-05  0.118E-01    9.29       1.0  T
   3    -50.7496333 -0.377341E-05  0.100E-02    9.29       2.0  T
   4    -50.7496337 -0.357818E-06  0.318E-03    9.29       6.2  T
   5    -50.7496337 -0.104173E-07  0.136E-03    9.29      14.4  T
   6    -50.7496337 -0.215364E-08  0.604E-04    9.29      32.5  T
speedup  0.91
cpu  time for SCC    0.01 s
wall time for SCC    0.01 s
speedup  0.98
cpu  time for grad    0.01 s
wall time for grad    0.01 s
 E :    -50.45559675  G :  0.008734    pred/act E change: -0.655D-04 -0.633D-04
Maxdispl :   0.1429   ||displ|| :   0.3132   Lambda : -0.215D-03
Largest |displ|/coords:  0.1429 (   1)  0.1402 (   9)  0.1294 (   3)
................................................................................
.............................. CYCLE   41 ......................................
................................................................................
   1    -50.7492908 -0.507493E+02  0.183E-01    9.31       0.0  T
   2    -50.7492960 -0.520808E-05  0.138E-01    9.31       1.0  T
   3    -50.7493017 -0.570071E-05  0.118E-02    9.31       1.7  T
   4    -50.7493022 -0.443731E-06  0.390E-03    9.31       5.0  T
   5    -50.7493022 -0.139669E-07  0.182E-03    9.31      10.8  T
   6    -50.7493022 -0.485321E-08  0.754E-04    9.31      26.0  T
speedup  1.09
cpu  time for SCC    0.01 s
wall time for SCC    0.01 s
speedup  1.04
cpu  time for grad    0.01 s
wall time for grad    0.01 s
 E :    -50.45568677  G :  0.010146    pred/act E change: -0.915D-04 -0.900D-04
Maxdispl :   0.0372   ||displ|| :   0.0743   Lambda : -0.108D-03
Largest |displ|/coords:  0.0372 (   1)  0.0370 (   3)  0.0247 (   9)
................................................................................
.............................. CYCLE   42 ......................................
................................................................................
   1    -50.7516816 -0.507517E+02  0.408E-02    9.34       0.0  T
   2    -50.7516825 -0.919893E-06  0.303E-02    9.34       1.0  T
   3    -50.7516831 -0.670307E-06  0.570E-03    9.34       3.4  T
   4    -50.7516833 -0.104445E-06  0.140E-03    9.34      14.1  T
   5    -50.7516833 -0.337795E-08  0.601E-04    9.34      32.6  T
speedup  1.09
cpu  time for SCC    0.00 s
wall time for SCC    0.00 s
speedup  1.05
cpu  time for grad    0.01 s
wall time for grad    0.01 s
 E :    -50.45574444  G :  0.004774    pred/act E change: -0.118D-03 -0.577D-04
Maxdispl :   0.1138   ||displ|| :   0.2775   Lambda : -0.181D-03
Largest |displ|/coords:  0.1138 (   1)  0.1004 (   3)  0.0933 (   7)
................................................................................
.............................. CYCLE   43 ......................................
................................................................................
   1    -50.7491283 -0.507491E+02  0.188E-01    9.31       0.0  T
   2    -50.7491323 -0.401073E-05  0.141E-01    9.31       1.0  T
   3    -50.7491366 -0.425785E-05  0.106E-02    9.31       1.9  T
   4    -50.7491369 -0.340697E-06  0.390E-03    9.31       5.0  T
   5    -50.7491370 -0.152002E-07  0.153E-03    9.31      12.8  T
   6    -50.7491370 -0.244505E-08  0.767E-04    9.31      25.6  T
speedup  1.09
cpu  time for SCC    0.01 s
wall time for SCC    0.01 s
speedup  1.03
cpu  time for grad    0.01 s
wall time for grad    0.01 s
 E :    -50.45582417  G :  0.007193    pred/act E change: -0.541D-04 -0.797D-04
Maxdispl :   0.0731   ||displ|| :   0.1809   Lambda : -0.153D-03
Largest |displ|/coords:  0.0731 (   3)  0.0710 (   4)  0.0542 (   6)
................................................................................
.............................. CYCLE   44 ......................................
................................................................................
   1    -50.7495212 -0.507495E+02  0.131E-01    9.32       0.0  T
   2    -50.7495233 -0.210115E-05  0.991E-02    9.32       1.0  T
   3    -50.7495256 -0.225359E-05  0.809E-03    9.32       2.4  T
   4    -50.7495257 -0.164550E-06  0.199E-03    9.32       9.9  T
   5    -50.7495257 -0.365497E-08  0.107E-03    9.32      18.3  T
speedup  1.09
cpu  time for SCC    0.01 s
wall time for SCC    0.00 s
speedup  1.04
cpu  time for grad    0.01 s
wall time for grad    0.01 s
 E :    -50.45592996  G :  0.006120    pred/act E change: -0.974D-04 -0.106D-03
Maxdispl :   0.0856   ||displ|| :   0.2352   Lambda : -0.154D-03
Largest |displ|/coords:  0.0856 (   9)  0.0751 (   3)  0.0630 (   4)
................................................................................
.............................. CYCLE   45 ......................................
................................................................................
   1    -50.7503496 -0.507503E+02  0.175E-01    9.35       0.0  T
   2    -50.7503534 -0.380394E-05  0.132E-01    9.35       1.0  T
   3    -50.7503576 -0.426911E-05  0.109E-02    9.35       1.8  T
   4    -50.7503579 -0.277243E-06  0.313E-03    9.35       6.3  T
   5    -50.7503579 -0.124935E-07  0.155E-03    9.35      12.7  T
   6    -50.7503579 -0.393390E-08  0.571E-04    9.35      34.3  T
speedup  1.07
cpu  time for SCC    0.01 s
wall time for SCC    0.01 s
speedup  1.03
cpu  time for grad    0.01 s
wall time for grad    0.01 s
 E :    -50.45599429  G :  0.010163    pred/act E change: -0.790D-04 -0.643D-04
Maxdispl :   0.0350   ||displ|| :   0.0957   Lambda : -0.164D-03
Largest |displ|/coords:  0.0350 (  18)  0.0348 (  12)  0.0342 (  14)
................................................................................
.............................. CYCLE   46 ......................................
................................................................................
   1    -50.7537551 -0.507538E+02  0.537E-02    9.36       0.0  T
   2    -50.7537571 -0.198012E-05  0.399E-02    9.36       1.0  T
   3    -50.7537584 -0.132191E-05  0.794E-03    9.36       2.5  T
   4    -50.7537586 -0.219608E-06  0.209E-03    9.36       9.4  T
   5    -50.7537586 -0.667317E-08  0.835E-04    9.36      23.5  T
speedup  0.87
cpu  time for SCC    0.00 s
wall time for SCC    0.00 s
speedup  0.96
cpu  time for grad    0.01 s
wall time for grad    0.01 s
 E :    -50.45603114  G :  0.008509    pred/act E change: -0.815D-04 -0.369D-04
Maxdispl :   0.1628   ||displ|| :   0.3664   Lambda : -0.215D-03
Largest |displ|/coords:  0.1628 (   1)  0.1495 (   3)  0.1456 (   4)
................................................................................
.............................. CYCLE   47 ......................................
................................................................................
   1    -50.7487391 -0.507487E+02  0.219E-01    9.27       0.0  T
   2    -50.7487483 -0.925366E-05  0.165E-01    9.27       1.0  T
   3    -50.7487563 -0.801019E-05  0.166E-02    9.27       1.2  T
   4    -50.7487575 -0.116502E-05  0.548E-03    9.27       3.6  T
   5    -50.7487576 -0.397964E-07  0.223E-03    9.27       8.8  T
   6    -50.7487576 -0.487443E-08  0.115E-03    9.27      17.0  T
speedup  0.94
cpu  time for SCC    0.00 s
wall time for SCC    0.01 s
speedup  0.98
cpu  time for grad    0.01 s
wall time for grad    0.01 s
 E :    -50.45607702  G :  0.010567    pred/act E change: -0.825D-04 -0.459D-04
Maxdispl :   0.0470   ||displ|| :   0.0866   Lambda : -0.217D-03
Largest |displ|/coords:  0.0470 (   4)  0.0378 (   6)  0.0259 (  11)
................................................................................
.............................. CYCLE   48 ......................................
................................................................................
   1    -50.7506243 -0.507506E+02  0.669E-02    9.35       0.0  T
   2    -50.7506258 -0.150333E-05  0.499E-02    9.35       1.0  T
   3    -50.7506269 -0.114153E-05  0.783E-03    9.35       2.5  T
   4    -50.7506271 -0.180467E-06  0.195E-03    9.35      10.0  T
   5    -50.7506271 -0.633244E-08  0.763E-04    9.35      25.7  T
speedup  0.87
cpu  time for SCC    0.00 s
wall time for SCC    0.00 s
speedup  0.94
cpu  time for grad    0.01 s
wall time for grad    0.01 s
 E :    -50.45617361  G :  0.007147    pred/act E change: -0.122D-03 -0.966D-04
Maxdispl :   0.0450   ||displ|| :   0.1130   Lambda : -0.968D-04
Largest |displ|/coords:  0.0450 (   1)  0.0419 (   3)  0.0358 (   9)
................................................................................
.............................. CYCLE   49 ......................................
................................................................................
   1    -50.7509784 -0.507510E+02  0.712E-02    9.32       0.0  T
   2    -50.7509793 -0.866055E-06  0.535E-02    9.32       1.0  T
   3    -50.7509801 -0.799991E-06  0.565E-03    9.32       3.5  T
   4    -50.7509802 -0.915880E-07  0.167E-03    9.32      11.8  T
   5    -50.7509802 -0.398457E-08  0.609E-04    9.32      32.2  T
speedup  1.06
cpu  time for SCC    0.00 s
wall time for SCC    0.00 s
speedup  1.02
cpu  time for grad    0.01 s
wall time for grad    0.01 s
 E :    -50.45623323  G :  0.003886    pred/act E change: -0.109D-03 -0.596D-04
Maxdispl :   0.1541   ||displ|| :   0.3369   Lambda : -0.141D-03
Largest |displ|/coords:  0.1541 (   1)  0.1434 (   3)  0.0985 (   4)
................................................................................
.............................. CYCLE   50 ......................................
................................................................................
   1    -50.7508383 -0.507508E+02  0.198E-01    9.32       0.0  T
   2    -50.7508439 -0.563022E-05  0.150E-01    9.32       1.0  T
   3    -50.7508500 -0.613639E-05  0.124E-02    9.32       1.6  T
   4    -50.7508505 -0.481988E-06  0.404E-03    9.32       4.9  T
   5    -50.7508505 -0.214001E-07  0.189E-03    9.32      10.4  T
   6    -50.7508505 -0.667963E-08  0.747E-04    9.32      26.2  T
   7    -50.7508505 -0.122490E-08  0.175E-04    9.32     112.1  T
speedup  1.09
cpu  time for SCC    0.01 s
wall time for SCC    0.01 s
speedup  0.99
cpu  time for grad    0.01 s
wall time for grad    0.02 s
 E :    -50.45632763  G :  0.007800    pred/act E change: -0.490D-04 -0.944D-04
Maxdispl :   0.1304   ||displ|| :   0.2448   Lambda : -0.144D-03
Largest |displ|/coords:  0.1304 (   1)  0.1082 (   3)  0.0644 (   4)
................................................................................
.............................. CYCLE   51 ......................................
................................................................................
   1    -50.7518448 -0.507518E+02  0.127E-01    9.34       0.0  T
   2    -50.7518471 -0.229565E-05  0.955E-02    9.33       1.0  T
   3    -50.7518494 -0.235594E-05  0.875E-03    9.33       2.2  T
   4    -50.7518496 -0.193048E-06  0.288E-03    9.33       6.8  T
   5    -50.7518496 -0.109880E-07  0.107E-03    9.33      18.2  T
speedup  1.11
cpu  time for SCC    0.00 s
wall time for SCC    0.00 s
speedup  1.04
cpu  time for grad    0.01 s
wall time for grad    0.01 s
 E :    -50.45640503  G :  0.004930    pred/act E change: -0.785D-04 -0.774D-04
Maxdispl :   0.1535   ||displ|| :   0.3536   Lambda : -0.135D-03
Largest |displ|/coords:  0.1535 (   1)  0.1527 (   3)  0.0935 (   9)
................................................................................
.............................. CYCLE   52 ......................................
................................................................................
   1    -50.7479578 -0.507480E+02  0.218E-01    9.27       0.0  T
   2    -50.7479655 -0.772225E-05  0.164E-01    9.27       1.0  T
   3    -50.7479731 -0.759474E-05  0.162E-02    9.26       1.2  T
   4    -50.7479739 -0.820294E-06  0.534E-03    9.26       3.7  T
   5    -50.7479740 -0.355594E-07  0.224E-03    9.26       8.8  T
   6    -50.7479740 -0.557861E-08  0.103E-03    9.26      19.0  T
speedup  1.11
cpu  time for SCC    0.01 s
wall time for SCC    0.01 s
speedup  1.05
cpu  time for grad    0.01 s
wall time for grad    0.01 s
 E :    -50.45636521  G :  0.014304    pred/act E change: -0.764D-04  0.398D-04
Maxdispl :   0.0656   ||displ|| :   0.1650   Lambda : -0.304D-03
Largest |displ|/coords:  0.0656 (   3)  0.0620 (   1)  0.0552 (   9)

generating ANC from model Hessian ...
 Shifting diagonal of input Hessian by   5.006207383213157E-003
 Lowest  eigenvalues of input Hessian
    0.005000   -0.000000   -0.000000   -0.000000   -0.000000    0.000000
    0.000000    0.005216    0.005276    0.005832    0.006198    0.006225
    0.006908    0.007564    0.007904    0.008535    0.009998    0.010618
 Highest eigenvalues
    1.410444    1.414055    1.417158    2.646610    3.475323    3.583821
 
cpu  time for ANC gen    0.02 s
wall time for ANC gen    0.02 s
................................................................................
.............................. CYCLE   53 ......................................
................................................................................
   1    -50.7536366 -0.507536E+02  0.104E-01    9.40       0.0  T
   2    -50.7536408 -0.423922E-05  0.775E-02    9.40       1.0  T
   3    -50.7536435 -0.263062E-05  0.134E-02    9.40       1.5  T
   4    -50.7536440 -0.548134E-06  0.420E-03    9.40       4.7  T
   5    -50.7536441 -0.329386E-07  0.125E-03    9.40      15.7  T
   6    -50.7536441 -0.146292E-08  0.709E-04    9.40      27.7  T
   7    -50.7536441 -0.877662E-09  0.205E-04    9.40      95.4  T
speedup  0.95
cpu  time for SCC    0.01 s
wall time for SCC    0.01 s
speedup  1.01
cpu  time for grad    0.01 s
wall time for grad    0.01 s
 E :    -50.45645200  G :  0.007140    pred/act E change:  0.000D+00 -0.868D-04
Maxdispl :   0.0612   ||displ|| :   0.1284   Lambda : -0.207D-03
Largest |displ|/coords:  0.0612 (   4)  0.0504 (   6)  0.0401 (  18)
................................................................................
.............................. CYCLE   54 ......................................
................................................................................
   1    -50.7524340 -0.507524E+02  0.128E-01    9.38       0.0  T
   2    -50.7524360 -0.194626E-05  0.968E-02    9.38       1.0  T
   3    -50.7524383 -0.232915E-05  0.727E-03    9.38       2.7  T
   4    -50.7524384 -0.107369E-06  0.290E-03    9.38       6.8  T
   5    -50.7524384 -0.594510E-08  0.899E-04    9.38      21.8  T
speedup  1.06
cpu  time for SCC    0.00 s
wall time for SCC    0.00 s
speedup  1.03
cpu  time for grad    0.01 s
wall time for grad    0.01 s
 E :    -50.45657970  G :  0.004478    pred/act E change:  0.000D+00 -0.128D-03
Maxdispl :   0.1078   ||displ|| :   0.2115   Lambda : -0.206D-03
Largest |displ|/coords:  0.1078 (   1)  0.0877 (   4)  0.0815 (   2)
................................................................................
.............................. CYCLE   55 ......................................
................................................................................
   1    -50.7495552 -0.507496E+02  0.192E-01    9.35       0.0  T
   2    -50.7495598 -0.457235E-05  0.145E-01    9.35       1.0  T
   3    -50.7495651 -0.531652E-05  0.115E-02    9.35       1.7  T
   4    -50.7495654 -0.318636E-06  0.467E-03    9.35       4.2  T
   5    -50.7495655 -0.210613E-07  0.169E-03    9.35      11.6  T
   6    -50.7495655 -0.268184E-08  0.772E-04    9.35      25.4  T
speedup  1.09
cpu  time for SCC    0.01 s
wall time for SCC    0.01 s
speedup  1.04
cpu  time for grad    0.01 s
wall time for grad    0.01 s
 E :    -50.45661761  G :  0.014020    pred/act E change: -0.105D-03 -0.379D-04
Maxdispl :   0.0323   ||displ|| :   0.0674   Lambda : -0.222D-03
Largest |displ|/coords:  0.0323 (  15)  0.0227 (   9)  0.0222 (   1)
................................................................................
.............................. CYCLE   56 ......................................
................................................................................
   1    -50.7514217 -0.507514E+02  0.812E-02    9.35       0.0  T
   2    -50.7514251 -0.340860E-05  0.615E-02    9.35       1.0  T
   3    -50.7514275 -0.247472E-05  0.105E-02    9.35       1.9  T
   4    -50.7514280 -0.485686E-06  0.205E-03    9.35       9.6  T
   5    -50.7514280 -0.585845E-08  0.108E-03    9.35      18.2  T
speedup  0.89
cpu  time for SCC    0.00 s
wall time for SCC    0.00 s
speedup  0.97
cpu  time for grad    0.01 s
wall time for grad    0.01 s
 E :    -50.45671143  G :  0.003999    pred/act E change: -0.108D-03 -0.938D-04
Maxdispl :   0.0789   ||displ|| :   0.1060   Lambda : -0.975D-04
Largest |displ|/coords:  0.0789 (   1)  0.0385 (   2)  0.0276 (   9)
................................................................................
.............................. CYCLE   57 ......................................
................................................................................
   1    -50.7519085 -0.507519E+02  0.725E-02    9.35       0.0  T
   2    -50.7519095 -0.917508E-06  0.552E-02    9.35       1.0  T
   3    -50.7519105 -0.103040E-05  0.475E-03    9.35       4.1  T
   4    -50.7519106 -0.685328E-07  0.167E-03    9.35      11.7  T
   5    -50.7519106 -0.322026E-08  0.533E-04    9.35      36.8  T
   6    -50.7519106 -0.150962E-09  0.274E-04    9.35      71.6  T
speedup  0.94
cpu  time for SCC    0.00 s
wall time for SCC    0.01 s
speedup  1.01
cpu  time for grad    0.01 s
wall time for grad    0.01 s
 E :    -50.45678103  G :  0.002697    pred/act E change: -0.112D-03 -0.696D-04
Maxdispl :   0.2746   ||displ|| :   0.3504   Lambda : -0.197D-03
Largest |displ|/coords:  0.2746 (   1)  0.1338 (   2)  0.0741 (   6)
................................................................................
.............................. CYCLE   58 ......................................
................................................................................
   1    -50.7503268 -0.507503E+02  0.215E-01    9.33       0.0  T
   2    -50.7503325 -0.568839E-05  0.162E-01    9.34       1.0  T
   3    -50.7503393 -0.674678E-05  0.130E-02    9.34       1.5  T
   4    -50.7503397 -0.391072E-06  0.482E-03    9.34       4.1  T
   5    -50.7503397 -0.211923E-07  0.202E-03    9.34       9.7  T
   6    -50.7503397 -0.487012E-08  0.819E-04    9.34      23.9  T
   7    -50.7503397 -0.180181E-08  0.181E-04    9.34     108.6  T
speedup  0.98
cpu  time for SCC    0.01 s
wall time for SCC    0.01 s
speedup  0.96
cpu  time for grad    0.01 s
wall time for grad    0.01 s
 E :    -50.45687024  G :  0.013132    pred/act E change: -0.493D-04 -0.892D-04
Maxdispl :   0.0955   ||displ|| :   0.1182   Lambda : -0.171D-03
Largest |displ|/coords:  0.0955 (   1)  0.0381 (   5)  0.0238 (   6)
................................................................................
.............................. CYCLE   59 ......................................
................................................................................
   1    -50.7515302 -0.507515E+02  0.470E-02    9.34       0.0  T
   2    -50.7515312 -0.104792E-05  0.352E-02    9.34       1.0  T
   3    -50.7515320 -0.792713E-06  0.570E-03    9.34       3.4  T
   4    -50.7515322 -0.134211E-06  0.137E-03    9.34      14.3  T
   5    -50.7515322 -0.228687E-08  0.668E-04    9.34      29.4  T
speedup  0.89
cpu  time for SCC    0.00 s
wall time for SCC    0.00 s
speedup  0.96
cpu  time for grad    0.01 s
wall time for grad    0.01 s
 E :    -50.45698940  G :  0.005450    pred/act E change: -0.110D-03 -0.119D-03
Maxdispl :   0.3720   ||displ|| :   0.4293   Lambda : -0.230D-03
Largest |displ|/coords:  0.3720 (   1)  0.1139 (   6)  0.1082 (   2)
................................................................................
.............................. CYCLE   60 ......................................
................................................................................
   1    -50.7508237 -0.507508E+02  0.190E-01    9.35       0.0  T
   2    -50.7508271 -0.338241E-05  0.143E-01    9.35       1.0  T
   3    -50.7508316 -0.450480E-05  0.970E-03    9.35       2.0  T
   4    -50.7508318 -0.166602E-06  0.365E-03    9.35       5.4  T
   5    -50.7508318 -0.178636E-07  0.168E-03    9.35      11.7  T
   6    -50.7508318 -0.520232E-08  0.646E-04    9.35      30.4  T
speedup  1.11
cpu  time for SCC    0.01 s
wall time for SCC    0.01 s
speedup  1.04
cpu  time for grad    0.01 s
wall time for grad    0.01 s
 E :    -50.45716773  G :  0.005811    pred/act E change: -0.864D-04 -0.178D-03
Maxdispl :   0.4341   ||displ|| :   0.5140   Lambda : -0.217D-03
Largest |displ|/coords:  0.4341 (   1)  0.1420 (   6)  0.1402 (   2)
................................................................................
.............................. CYCLE   61 ......................................
................................................................................
   1    -50.7491236 -0.507491E+02  0.235E-01    9.36       0.0  T
   2    -50.7491298 -0.621549E-05  0.178E-01    9.36       1.0  T
   3    -50.7491377 -0.781476E-05  0.126E-02    9.36       1.6  T
   4    -50.7491381 -0.406818E-06  0.583E-03    9.36       3.4  T
   5    -50.7491381 -0.371685E-07  0.204E-03    9.36       9.6  T
   6    -50.7491381 -0.682189E-08  0.860E-04    9.36      22.8  T
speedup  1.11
cpu  time for SCC    0.01 s
wall time for SCC    0.01 s
speedup  1.04
cpu  time for grad    0.01 s
wall time for grad    0.01 s
 E :    -50.45728527  G :  0.013688    pred/act E change: -0.136D-03 -0.118D-03
Maxdispl :   0.2047   ||displ|| :   0.2744   Lambda : -0.323D-03
Largest |displ|/coords:  0.2047 (   1)  0.1003 (   6)  0.0703 (   4)
................................................................................
.............................. CYCLE   62 ......................................
................................................................................
   1    -50.7529543 -0.507530E+02  0.125E-01    9.41       0.0  T
   2    -50.7529582 -0.392148E-05  0.935E-02    9.41       1.0  T
   3    -50.7529605 -0.227960E-05  0.126E-02    9.40       1.6  T
   4    -50.7529611 -0.543112E-06  0.346E-03    9.40       5.7  T
   5    -50.7529611 -0.300232E-07  0.122E-03    9.40      16.1  T
   6    -50.7529611 -0.843784E-09  0.671E-04    9.40      29.2  T
speedup  1.11
cpu  time for SCC    0.01 s
wall time for SCC    0.01 s
speedup  1.02
cpu  time for grad    0.01 s
wall time for grad    0.01 s
 E :    -50.45741459  G :  0.008735    pred/act E change: -0.137D-03 -0.129D-03
Maxdispl :   0.1809   ||displ|| :   0.2529   Lambda : -0.259D-03
Largest |displ|/coords:  0.1809 (   1)  0.0959 (   6)  0.0691 (   4)
................................................................................
.............................. CYCLE   63 ......................................
................................................................................
   1    -50.7539215 -0.507539E+02  0.135E-01    9.41       0.0  T
   2    -50.7539242 -0.265674E-05  0.102E-01    9.42       1.0  T
   3    -50.7539276 -0.345920E-05  0.824E-03    9.42       2.4  T
   4    -50.7539278 -0.139298E-06  0.338E-03    9.42       5.8  T
   5    -50.7539278 -0.116322E-07  0.118E-03    9.42      16.6  T
   6    -50.7539278 -0.200723E-08  0.552E-04    9.42      35.5  T
speedup  0.93
cpu  time for SCC    0.01 s
wall time for SCC    0.01 s
speedup  0.96
cpu  time for grad    0.01 s
wall time for grad    0.01 s
 E :    -50.45760213  G :  0.008291    pred/act E change: -0.174D-03 -0.188D-03
Maxdispl :   0.3243   ||displ|| :   0.4802   Lambda : -0.364D-03
Largest |displ|/coords:  0.3243 (   1)  0.2518 (   6)  0.1259 (   7)
................................................................................
.............................. CYCLE   64 ......................................
................................................................................
   1    -50.7512269 -0.507512E+02  0.265E-01    9.41       0.0  T
   2    -50.7512379 -0.110116E-04  0.200E-01    9.41       1.0  T
   3    -50.7512513 -0.134139E-04  0.171E-02    9.42       1.1  T
   4    -50.7512522 -0.867955E-06  0.710E-03    9.42       2.8  T
   5    -50.7512522 -0.593928E-07  0.287E-03    9.42       6.8  T
   6    -50.7512523 -0.128357E-07  0.130E-03    9.42      15.1  T
speedup  1.07
cpu  time for SCC    0.01 s
wall time for SCC    0.01 s
speedup  1.03
cpu  time for grad    0.01 s
wall time for grad    0.01 s
 E :    -50.45771562  G :  0.021879    pred/act E change: -0.138D-03 -0.113D-03
Maxdispl :   0.1443   ||displ|| :   0.2481   Lambda : -0.561D-03
Largest |displ|/coords:  0.1443 (   1)  0.0969 (   4)  0.0910 (   6)
................................................................................
.............................. CYCLE   65 ......................................
................................................................................
   1    -50.7562803 -0.507563E+02  0.103E-01    9.40       0.0  T
   2    -50.7562849 -0.459350E-05  0.772E-02    9.41       1.0  T
   3    -50.7562881 -0.325231E-05  0.137E-02    9.41       1.4  T
   4    -50.7562887 -0.556495E-06  0.452E-03    9.41       4.3  T
   5    -50.7562887 -0.346400E-07  0.128E-03    9.41      15.3  T
speedup  0.87
cpu  time for SCC    0.00 s
wall time for SCC    0.00 s
speedup  0.94
cpu  time for grad    0.01 s
wall time for grad    0.01 s
 E :    -50.45795724  G :  0.012390    pred/act E change: -0.224D-03 -0.242D-03
Maxdispl :   0.2349   ||displ|| :   0.3985   Lambda : -0.551D-03
Largest |displ|/coords:  0.2349 (   1)  0.1902 (   6)  0.1737 (   4)
................................................................................
.............................. CYCLE   66 ......................................
................................................................................
   1    -50.7530162 -0.507530E+02  0.240E-01    9.37       0.0  T
   2    -50.7530240 -0.780162E-05  0.181E-01    9.37       1.0  T
   3    -50.7530295 -0.556933E-05  0.153E-02    9.36       1.3  T
   4    -50.7530307 -0.117817E-05  0.378E-03    9.37       5.2  T
   5    -50.7530307 -0.117716E-07  0.215E-03    9.37       9.1  T
[...]
................................................................................
.............................. CYCLE  168 ......................................
................................................................................
   1    -50.7689988 -0.507690E+02  0.201E-02    9.30       0.0  T
   2    -50.7689989 -0.370191E-07  0.152E-02    9.30       1.3  T
   3    -50.7689989 -0.351523E-07  0.137E-03    9.30      14.3  T
   4    -50.7689989 -0.358129E-08  0.368E-04    9.30      53.2  T
   5    -50.7689989 -0.177735E-09  0.124E-04    9.30     158.0  T
speedup  1.06
cpu  time for SCC    0.00 s
wall time for SCC    0.00 s
speedup  1.05
cpu  time for grad    0.01 s
wall time for grad    0.01 s
 E :    -50.47201309  G :  0.000526    pred/act E change: -0.675D-06 -0.928D-06
Maxdispl :   0.0204   ||displ|| :   0.0352   Lambda : -0.155D-05
Largest |displ|/coords:  0.0204 (   2)  0.0131 (   7)  0.0114 (   6)
................................................................................
.............................. CYCLE  169 ......................................
................................................................................
   1    -50.7689754 -0.507690E+02  0.344E-02    9.29       0.0  T
   2    -50.7689755 -0.940305E-07  0.260E-02    9.29       1.0  T
   3    -50.7689756 -0.949439E-07  0.159E-03    9.29      12.3  T
   4    -50.7689756 -0.892533E-08  0.596E-04    9.29      32.9  T
   5    -50.7689756 -0.255227E-09  0.223E-04    9.29      87.9  T
speedup  0.89
cpu  time for SCC    0.00 s
wall time for SCC    0.00 s
speedup  0.98
cpu  time for grad    0.01 s
wall time for grad    0.01 s
 E :    -50.47201425  G :  0.000402    pred/act E change: -0.594D-06 -0.116D-05
Maxdispl :   0.0291   ||displ|| :   0.0454   Lambda : -0.133D-05
Largest |displ|/coords:  0.0291 (   2)  0.0165 (   7)  0.0155 (   6)
................................................................................
.............................. CYCLE  170 ......................................
................................................................................
   1    -50.7689218 -0.507689E+02  0.421E-02    9.29       0.0  T
   2    -50.7689219 -0.121011E-06  0.318E-02    9.29       1.0  T
   3    -50.7689220 -0.134905E-06  0.164E-03    9.29      12.0  T
   4    -50.7689220 -0.889225E-08  0.716E-04    9.29      27.4  T
   5    -50.7689220 -0.235268E-09  0.255E-04    9.29      76.9  T
speedup  1.06
cpu  time for SCC    0.00 s
wall time for SCC    0.00 s
speedup  0.98
cpu  time for grad    0.01 s
wall time for grad    0.01 s
 E :    -50.47201525  G :  0.000510    pred/act E change: -0.777D-06 -0.100D-05
Maxdispl :   0.0300   ||displ|| :   0.0432   Lambda : -0.105D-05
Largest |displ|/coords:  0.0300 (   2)  0.0152 (   6)  0.0142 (   7)
................................................................................
.............................. CYCLE  171 ......................................
................................................................................
   1    -50.7689240 -0.507689E+02  0.372E-02    9.29       0.0  T
   2    -50.7689241 -0.928342E-07  0.281E-02    9.29       1.0  T
   3    -50.7689242 -0.106510E-06  0.165E-03    9.29      11.9  T
   4    -50.7689242 -0.595085E-08  0.665E-04    9.29      29.5  T
   5    -50.7689242 -0.257131E-09  0.220E-04    9.29      89.1  T
speedup  1.06
cpu  time for SCC    0.01 s
wall time for SCC    0.00 s
speedup  0.98
cpu  time for grad    0.01 s
wall time for grad    0.01 s
 E :    -50.47201598  G :  0.000519    pred/act E change: -0.665D-06 -0.731D-06
Maxdispl :   0.0150   ||displ|| :   0.0218   Lambda : -0.640D-06
Largest |displ|/coords:  0.0150 (   2)  0.0072 (   6)  0.0066 (   3)
................................................................................
.............................. CYCLE  172 ......................................
................................................................................
   1    -50.7690052 -0.507690E+02  0.165E-02    9.29       0.0  T
   2    -50.7690052 -0.228334E-07  0.124E-02    9.29       1.6  T
   3    -50.7690052 -0.235585E-07  0.105E-03    9.29      18.6  T
   4    -50.7690052 -0.198379E-08  0.410E-04    9.29      47.8  T
   5    -50.7690052 -0.147018E-09  0.964E-05    9.29     203.5  T
speedup  0.87
cpu  time for SCC    0.00 s
wall time for SCC    0.00 s
speedup  0.99
cpu  time for grad    0.01 s
wall time for grad    0.01 s
 E :    -50.47201643  G :  0.000327    pred/act E change: -0.528D-06 -0.457D-06
Maxdispl :   0.0301   ||displ|| :   0.0475   Lambda : -0.831D-06
Largest |displ|/coords:  0.0301 (   2)  0.0165 (   7)  0.0154 (   6)
................................................................................
.............................. CYCLE  173 ......................................
................................................................................
   1    -50.7689948 -0.507690E+02  0.429E-02    9.29       0.0  T
   2    -50.7689949 -0.117270E-06  0.324E-02    9.29       1.0  T
   3    -50.7689951 -0.143106E-06  0.166E-03    9.29      11.8  T
   4    -50.7689951 -0.576095E-08  0.767E-04    9.29      25.6  T
   5    -50.7689951 -0.322636E-09  0.241E-04    9.29      81.4  T
speedup  0.85
cpu  time for SCC    0.00 s
wall time for SCC    0.00 s
speedup  0.98
cpu  time for grad    0.01 s
wall time for grad    0.01 s
 E :    -50.47201677  G :  0.000723    pred/act E change: -0.320D-06 -0.332D-06
Maxdispl :   0.0071   ||displ|| :   0.0127   Lambda : -0.838D-06
Largest |displ|/coords:  0.0071 (   2)  0.0051 (  10)  0.0038 (   1)
................................................................................
.............................. CYCLE  174 ......................................
................................................................................
   1    -50.7691404 -0.507691E+02  0.962E-03    9.30       0.0  T
   2    -50.7691404 -0.145679E-07  0.726E-03    9.30       2.7  T
   3    -50.7691404 -0.101788E-07  0.731E-04    9.30      26.8  T
   4    -50.7691404 -0.238486E-08  0.246E-04    9.30      79.8  T
speedup  1.08
cpu  time for SCC    0.00 s
wall time for SCC    0.00 s
speedup  0.98
cpu  time for grad    0.01 s
wall time for grad    0.01 s
 E :    -50.47201717  G :  0.000296    pred/act E change: -0.417D-06 -0.406D-06
Maxdispl :   0.0043   ||displ|| :   0.0106   Lambda : -0.242D-06
Largest |displ|/coords:  0.0043 (   7)  0.0038 (   2)  0.0033 (   6)
................................................................................
.............................. CYCLE  175 ......................................
................................................................................
   1    -50.7691322 -0.507691E+02  0.942E-03    9.30       0.0  T
   2    -50.7691322 -0.602709E-08  0.710E-03    9.30       2.8  T
   3    -50.7691322 -0.722743E-08  0.511E-04    9.30      38.4  T
   4    -50.7691322 -0.310997E-09  0.151E-04    9.30     129.9  T
speedup  1.08
cpu  time for SCC    0.00 s
wall time for SCC    0.00 s
speedup  0.98
cpu  time for grad    0.01 s
wall time for grad    0.01 s
 E :    -50.47201736  G :  0.000243    pred/act E change: -0.419D-06 -0.189D-06
Maxdispl :   0.0070   ||displ|| :   0.0172   Lambda : -0.334D-06
Largest |displ|/coords:  0.0070 (   7)  0.0057 (   6)  0.0053 (   2)
................................................................................
.............................. CYCLE  176 ......................................
................................................................................
   1    -50.7691109 -0.507691E+02  0.154E-02    9.30       0.0  T
   2    -50.7691109 -0.158866E-07  0.116E-02    9.30       1.7  T
   3    -50.7691109 -0.189851E-07  0.847E-04    9.30      23.2  T
   4    -50.7691109 -0.791538E-09  0.207E-04    9.30      94.8  T
speedup  1.08
cpu  time for SCC    0.00 s
wall time for SCC    0.00 s
speedup  1.06
cpu  time for grad    0.01 s
wall time for grad    0.01 s
 E :    -50.47201757  G :  0.000195    pred/act E change: -0.121D-06 -0.209D-06
Maxdispl :   0.0041   ||displ|| :   0.0085   Lambda : -0.659D-07
Largest |displ|/coords:  0.0041 (   2)  0.0033 (   7)  0.0031 (   6)
................................................................................
.............................. CYCLE  177 ......................................
................................................................................
   1    -50.7691092 -0.507691E+02  0.754E-03    9.30       0.0  T
   2    -50.7691092 -0.386388E-08  0.569E-03    9.30       3.4  T
   3    -50.7691092 -0.443591E-08  0.397E-04    9.30      49.4  T
   4    -50.7691092 -0.231125E-09  0.109E-04    9.30     179.3  T
speedup  0.81
cpu  time for SCC    0.00 s
wall time for SCC    0.00 s
speedup  0.98
cpu  time for grad    0.01 s
wall time for grad    0.01 s
 E :    -50.47201763  G :  0.000172    pred/act E change: -0.167D-06 -0.631D-07
Maxdispl :   0.0109   ||displ|| :   0.0198   Lambda : -0.141D-06
Largest |displ|/coords:  0.0109 (   2)  0.0073 (   7)  0.0073 (   6)

   *** GEOMETRY OPTIMIZATION CONVERGED AFTER 177 ITERATIONS ***

------------------------------------------------------------------------
 total energy gain (kcal):     -0.0990
------------------------------------------------------------------------
================
 final structure:
================
$coord
       -3.18826565576319        2.02691281601984        0.07736921800456      S 
       -3.56675394213897        0.07739857380087        1.95872845250722      O 
       -1.60107163722747        1.13694518425517       -2.00449834063451      O 
       -2.28853928203601        4.40571502879519        1.08161036559410      O 
       -5.88213755938587        2.57228590130379       -1.09994878823409      O 
       -5.59325617219066        4.10303376717099       -1.99671245040435      H 
        0.63182260690187        4.12560972737607        1.94066453230914      H 
        2.39641042635370        3.77583948217337        2.45244674613301      O 
        2.91093513204388        5.17870667622801        3.47681831991694      H 
       -3.95187614491141       -4.72573889661532        0.32839299322049      O 
       -4.00231479099575       -2.97230365435949        0.91244278512281      H 
        5.02655870580859       -2.39451068594718       -3.22699946230561      O 
        5.30174030337991       -2.61675894931506       -5.00187322369069      H 
        4.69378465657508       -0.57169996177381       -2.98044930088557      H 
        3.39792690144632        2.30901077050461       -2.49884663373025      O 
        1.58148688731937        2.08980527660093       -2.67386966360112      H 
        3.61228144378168        2.91532486377862       -0.78438496007043      H 
        1.00521927063844       -0.96160949198930        3.99574906873043      O 
       -0.78640375578594       -0.59803882005991        3.78634036121014      H 
       -5.27294346051056       -5.58698900653638        1.21659090104871      H 
        1.85569488729858        0.64655348956232        3.72549021048915      H 
        0.77336720905119       -3.04687195951427       -0.55701603847292      N 
        2.42274221981496       -3.32172669405913       -1.59461850457719      H 
       -0.45543296574622       -4.54251631078344       -0.53674459158341      H 
        1.18933880212770       -2.52240822127376        1.32344972915040      H 
       -0.21031410483233       -1.50196890576794       -1.32013180078046      H 
$end
 
 Bond Distances (Angstroems)
 ---------------------------
S1-O2=1.4476         S1-O3=1.4632         S1-O4=1.4470         S1-O5=1.5823         O2-S1=1.4476         O3-S1=1.4632         
O4-S1=1.4470         O5-S1=1.5823         O5-H6=0.9512         H6-O5=0.9512         H7-O8=0.9897         O8-H7=0.9897         
O8-H9=0.9587         H9-O8=0.9587         O10-H11=0.9784       O10-H20=0.9578       H11-O10=0.9784       O12-H13=0.9577       
O12-H14=0.9892       H13-O12=0.9577       H14-O12=0.9892       O15-H16=0.9726       O15-H17=0.9690       H16-O15=0.9726       
H17-O15=0.9690       O18-H19=0.9737       O18-H21=0.9732       H19-O18=0.9737       H20-O10=0.9578       H21-O18=0.9732       
N22-H23=1.0414       N22-H24=1.0244       N22-H25=1.0563       N22-H26=1.0499       H23-N22=1.0414       H24-N22=1.0244       
H25-N22=1.0563       H26-N22=1.0499       
 N  H  Rav=1.0430 sigma=0.0120  Rmin=1.0244  Rmax=1.0563     4
 O  H  Rav=0.9701 sigma=0.0122  Rmin=0.9512  Rmax=0.9897    11
 S  O  Rav=1.4850 sigma=0.0565  Rmin=1.4470  Rmax=1.5823     4
 
 selected bond angles (degree)
 --------------------
O3-S1-O2=111.58                O4-S1-O2=114.39                O4-S1-O3=111.57                O5-S1-O2=106.03                
O5-S1-O3=106.22                O5-S1-O4=106.40                H6-O5-S1=101.95                H9-O8-H7=106.13                
H20-O10-H11=106.04             
 
 selected dihedral angles (degree)
 ---------------------------------
H6-O5-S1-O2=166.71            H6-O5-S1-O3=285.54            H6-O5-S1-O4= 44.54            
 
 CMA Distance (Angstroems)
 ---------------------------
R(CMA):  2.9099

========================================================================
 FINAL SINGLEPOINT CALCULATION ON OPTIMIZED GEOMETRY
========================================================================

 Ncao       : 65
 Nao        : 64
 Nshell     : 38
 Nel        : 80
 T(el)      :   300.0
 intcut     :    25.0
 scfconv/Eh :  0.100E-05
   qconv/e  :  0.100E-03
 intneglect :  0.100E-07
 broydamp   :      0.250
 iter      E             dE          RMSdq      gap      omega  full diag
   1    -50.7691092 -0.507691E+02  0.403E-05    9.30       0.0  T
   2    -50.7691092 -0.120082E-11  0.259E-05    9.30     757.8  T
   3    -50.7691092 -0.660805E-12  0.557E-06    9.30    3518.0  T
speedup  1.11
cpu  time for SCC    0.00 s
wall time for SCC    0.00 s

   *** convergence criteria satisfied after 3 iterations ***

          eigenvalues
 #    :          28         29         30         31         32         33         34         35
 occ. :        2.000      2.000      2.000      2.000      2.000      2.000      2.000      2.000
 eps  :       -13.502    -13.446    -12.619    -12.463    -12.387    -12.259    -12.197    -12.162
 #    :          36         37         38         39         40         41         42         43
 occ. :        2.000      2.000      2.000      2.000      2.000      0.000      0.000      0.000
 eps  :       -12.096    -11.929    -11.908    -11.885    -11.770     -2.473     -0.619     -0.498
 #    :          44         45         46         47         48         49         50         51
 occ. :        0.000      0.000      0.000      0.000      0.000      0.000      0.000      0.000
 eps  :         0.934      1.059      1.390      2.174      3.142      3.900      4.294      4.694


   #   Z            q   n(s)   n(p)   n(d)      C6AA      α(0)
   1  16 S      1.685  1.581  1.784  0.950    89.113    15.888
   2   8 O     -0.729  1.764  4.965  0.000    29.518     7.284
   3   8 O     -0.753  1.769  4.984  0.000    30.188     7.367
   4   8 O     -0.739  1.773  4.966  0.000    29.783     7.317
   5   8 O     -0.586  1.751  4.836  0.000    24.833     6.727
   6   1 H      0.345  0.655  0.000  0.000     0.590     1.202
   7   1 H      0.330  0.670  0.000  0.000     0.638     1.255
   8   8 O     -0.629  1.746  4.883  0.000    25.894     6.868
   9   1 H      0.291  0.709  0.000  0.000     0.749     1.360
  10   8 O     -0.618  1.738  4.880  0.000    25.633     6.833
  11   1 H      0.318  0.682  0.000  0.000     0.669     1.285
  12   8 O     -0.613  1.746  4.866  0.000    25.493     6.814
  13   1 H      0.281  0.719  0.000  0.000     0.782     1.389
  14   1 H      0.335  0.665  0.000  0.000     0.624     1.241
  15   8 O     -0.623  1.751  4.872  0.000    25.738     6.847
  16   1 H      0.314  0.686  0.000  0.000     0.681     1.296
  17   1 H      0.313  0.687  0.000  0.000     0.682     1.297
  18   8 O     -0.614  1.749  4.865  0.000    25.529     6.819
  19   1 H      0.315  0.685  0.000  0.000     0.678     1.293
  20   1 H      0.281  0.719  0.000  0.000     0.782     1.389
  21   1 H      0.319  0.681  0.000  0.000     0.668     1.284
  22   7 N     -0.352  1.273  4.079  0.000    29.035     8.003
  23   1 H      0.286  0.714  0.000  0.000     0.756     1.363
  24   1 H      0.269  0.731  0.000  0.000     0.812     1.412
  25   1 H      0.290  0.710  0.000  0.000     0.745     1.352
  26   1 H      0.284  0.716  0.000  0.000     0.763     1.369

 Mol. C6AA /au·bohr⁶  :       5445.034398
 Mol. C8AA /au·bohr⁸  :     117810.296171
 Mol. α(0) /au        :        106.554107

 
 Wiberg/Mayer (AO) data. WBOs > 0.1 written file <wbo>
 largest (>0.05) Wiberg bond orders for each atom
           total WBO             WBO to atom ...
     1  S   4.855    O    2 1.330    O    4 1.326    O    3 1.261    O    5 0.896
     2  O   1.744    S    1 1.330    O    3 0.110    O    4 0.108    O    5 0.062    H   11 0.051
     3  O   1.727    S    1 1.261    O    2 0.110    O    4 0.108    H   26 0.087    O    5 0.071
     4  O   1.731    S    1 1.326    O    3 0.108    O    2 0.108    H    7 0.076    O    5 0.076
     5  O   1.976    S    1 0.896    H    6 0.864    O    4 0.076    O    3 0.071    O    2 0.062
     6  H   0.880    O    5 0.864
     7  H   0.891    O    8 0.810    O    4 0.076
     8  O   1.862    H    9 0.909    H    7 0.810
     9  H   0.915    O    8 0.909
    10  O   1.827    H   20 0.915    H   11 0.845
    11  H   0.899    O   10 0.845    O    2 0.051
    12  O   1.878    H   13 0.916    H   14 0.814    H   23 0.074
    13  H   0.921    O   12 0.916
    14  H   0.888    O   12 0.814    O   15 0.072
    15  O   1.875    H   17 0.869    H   16 0.860    H   14 0.072
    16  H   0.901    O   15 0.860
    17  H   0.902    O   15 0.869
    18  O   1.913    H   19 0.859    H   21 0.855    H   25 0.101    N   22 0.052
    19  H   0.901    O   18 0.859
    20  H   0.921    O   10 0.915
    21  H   0.898    O   18 0.855
    22  N   3.532    H   24 0.896    H   23 0.840    H   26 0.824    H   25 0.810    O   18 0.052
    23  H   0.918    N   22 0.840    O   12 0.074
    24  H   0.927    N   22 0.896
    25  H   0.916    N   22 0.810    O   18 0.101
    26  H   0.919    N   22 0.824    O    3 0.087
 MOs/occ written to file <molden.input>
 
molecular dipole:
                 x           y           z       tot (Debye)
 q only:        0.687      -0.921      -0.521
   full:       -0.188      -0.024      -0.530       1.431
molecular quadrupole (traceless):
                xx          xy          yy          xz          yz          zz
 q only:       -5.698       0.886       5.858       1.450       2.460      -0.160
  q+dip:       -5.518       1.148       6.140       0.431       3.785      -0.622
   full:       -5.270       1.130       6.280       0.672       3.840      -1.010

SCC energy    :     -50.7691092
rep           :       0.2967941
ES            :       0.2611994
AES           :      -0.0761212
AXC           :      -0.0086356
disp          :      -0.0193752
XB            :       0.0000000
fix           :       0.0000000
total E       :     -50.4720176
atomizationE  :       5.0023218     3139.00
(atE without considering molecular charge,
 total energy contains solvation terms)
H-L gap (eV)  :          9.2970
optimized geometry written to: xtbopt.xyz


------------------------------------------------------------------------
 * finished run on 2019/09/16 at 12:45:53.677     
------------------------------------------------------------------------
 total:
 * wall-time:     0 d,  0 h,  0 min,  5.041 sec
 *  cpu-time:     0 d,  0 h,  0 min,  3.910 sec
 * ratio c/w:     0.776 speedup
 SCF:
 * wall-time:     0 d,  0 h,  0 min,  1.174 sec
 *  cpu-time:     0 d,  0 h,  0 min,  0.167 sec
 * ratio c/w:     0.142 speedup
 ANC optimizer:
 * wall-time:     0 d,  0 h,  0 min,  3.836 sec
 *  cpu-time:     0 d,  0 h,  0 min,  3.717 sec
 * ratio c/w:     0.969 speedup

