      -----------------------------------------------------------      
     |                   =====================                   |     
     |                           x T B                           |     
     |                   =====================                   |     
     |                         S. Grimme                         |     
     |          Mulliken Center for Theoretical Chemistry        |     
     |                    University of Bonn                     |     
     |                 Version 6.0.1 (SAW181210)                 |     
      -----------------------------------------------------------      

   This program is distributed in the hope that it will be useful,
   but WITHOUT ANY WARRANTY; without even the implied warranty of
   MERCHANTABILITY or FITNESS FOR A PARTICULAR PURPOSE.
   
   FOR NON-COMMERCIAL, ACADEMIA USE ONLY.
   
   Cite this work as:
   S. Grimme, C. Bannwarth, P. Shushkov, J. Comput. Theory Chem., 2017,
   13, 1989-2009.
   C. Bannwarth, S. Ehlert and S. Grimme., ChemRxiv, 2018, preprint.
   http://doi.org/10.26434/chemrxiv.7246238.v1
   
   for sTDA-xTB:
   S. Grimme and C. Bannwarth, J. Chem. Phys., 2016, 145, 054103.
   
   in the mass-spec context:
   V. Asgeirsson, C. Bauer and S. Grimme, Chem. Sci., 2017, 8, 4879.
   
   if GBSA is used:
   P. Shushkov, F. März and S. Grimme, unpublished.
   
   for ANC optimizer:
   S. Grimme, unpublished.
   Rational Function algorithm used in ANCopt:
   F. Eckert, P. Pulay, H.-J. Werner, J. Comput. Chem., 1997, 18, 1473.
   
   with help from (in alphabetical order)
   C. Bannwarth, F. Bohle, G. Brandenburg, E. Caldeweyher, M. Checinski,
   S. Dohm, S. Ehlert, S. Ehrlich, F. März, H. Neugebauer, J. Pisarek,
   P. Pracht, P. Shushkov, and S. Spicher.
   
 * started run on 2019/09/16 at 11:43:23.296     
========================================================================
 # omp threads = 1
========================================================================
number of atoms            : 26
number of electrons        : 80
charge                     : 0
spin                       : .0
first test random number   : .4030

########################################################################
# WARNING! Please study the warnings concerning your input carefully
#  - XTBPATH is not set, using XTBHOME instead
#  - the use of '-opt' is discouraged, please use '--opt' next time
#  - the use of '-chrg' is discouraged, please use '--chrg' next time
#  - the use of '-uhf' is discouraged, please use '--uhf' next time
########################################################################

           ------------------------------------------------- 
          |                 G F N 2 - x T B                 |
          | Geometry, Frequencies, Noncovalent interactions |
          |            JCTC 2018 parametrisation            |
           ------------------------------------------------- 
      method parameters     
 k(s)        :  1.8500
 k(p)        :  2.2300
 k(d)        :  2.2300
 k(f)        :  2.0000
 kEN (H0ij)  : -2.0000
 D4 a1       :  0.5200
 D4 a2       :  5.0000
 D4 s6       :  1.0000
 D4 s8       :  2.7000
 D4 s9       :  5.0000
 alphaj      :  2.0000


            Z     q(EN)     CN     RAES       Cart. coordinates
     1  S   6.0    0.68    4.08    3.83     2.55499     0.46942    -2.61544
     2  O   6.0   -0.31    1.22    1.80     0.42451     0.73875    -4.43660
     3  O   6.0   -0.34    1.29    1.80     2.32486     2.42778    -0.60548
     4  O   6.0   -0.33    1.26    1.80     2.47185    -2.09042    -1.44565
     5  O   6.0   -0.26    1.11    1.80     4.99876     0.80155    -3.97406
     6  O   6.0   -0.40    1.71    1.81    -3.64183    -0.71114     0.94742
     7  H   1.0    0.17    0.95    1.42    -5.25060    -0.83512     1.88565
     8  O   6.0   -0.29    2.04    1.83    -0.84877     6.35685    -0.58431
     9  H   1.0    0.17    1.04    1.43     0.60382     5.25979    -0.61656
    10  H   1.0    0.15    0.97    1.43    -0.17598     8.04798    -0.62962
    11  O   6.0   -0.22    2.90    2.55    -1.99353    -4.05864    -1.69257
    12  H   1.0    0.16    1.19    1.46    -2.88451    -2.76850    -0.67692
    13  H   1.0    0.15    1.08    1.44    -0.23244    -3.56102    -2.06798
    14  H   1.0    0.11    0.96    1.42    -2.08933    -5.75296    -0.91052
    15  O   6.0   -0.22    2.92    2.59    -3.51783     2.58668    -2.27402
    16  H   1.0    0.16    1.16    1.46    -3.82217     1.32572    -0.92971
    17  H   1.0    0.14    1.04    1.43    -2.96794     4.23161    -1.57986
    18  H   1.0    0.15    1.06    1.44    -2.34000     1.94921    -3.57703
    19  O   6.0   -0.23    2.93    2.60     0.15290     0.40838     3.28118
    20  H   1.0    0.15    1.07    1.44     1.12344     1.53075     2.14619
    21  H   1.0    0.16    1.17    1.46    -1.50467    -0.05721     2.55613
    22  H   1.0    0.12    1.06    1.44     1.13994    -1.09436     3.79009
    23  N   5.0   -0.22    3.04    1.93     3.42077    -3.54549     3.73025
    24  H   1.0    0.13    1.02    1.43     3.52067    -3.32545     1.81906
    25  H   1.0    0.10    0.99    1.43     3.43869    -5.44682     4.03957
    26  H   1.0    0.11    0.99    1.43     5.09442    -2.88736     4.42079

  Z AO/shell   Hii/eV     exponent
  1     Wed Apr 25 08:07:45 CEST 2018   EN: 2.200 GM2: 0.406  GM3: 0.0800  RAES: 1.40
     1s    -10.707211    1.230000
  7     Wed Apr 25 08:07:45 CEST 2018   EN: 3.040 GM2: 0.461  GM3:-0.0640  RAES: 1.90
     2s    -16.686243    2.339881
     2p    -12.523956    2.014332
  8     Wed Apr 25 08:07:45 CEST 2018   EN: 3.440 GM2: 0.452  GM3:-0.0517  RAES: 1.80
     2s    -20.229985    2.439742
     2p    -15.503117    2.137023
 16     Tue Apr 24 11:44:34 CEST 2018   EN: 2.580 GM2: 0.340  GM3:-0.0502  RAES: 3.10
     3s    -20.029654    1.981333
     3p    -11.377694    2.025643
     3d     -0.420282    1.702555
 no old-style atom pair restraining (fixing) potential

molecular fragmentation (1/2 indicates fragments):
11111222222222222222222222
# atoms in fragment 1/2:     5    21
 fragment masses (1/2) :       96.06      109.12
CMA distance (Bohr)    :   4.797
constraining FC (au)   :  0.0500
           ------------------------------------------------- 
          |        Self-Consistent Charge Iterations        |
           ------------------------------------------------- 

 Ncao       : 65
 Nao        : 64
 Nshell     : 38
 Nel        : 80
 T(el)      :   300.0
 intcut     :    25.0
 scfconv/Eh :  0.100E-05
   qconv/e  :  0.100E-03
 intneglect :  0.100E-07
 broydamp   :      0.250
 iter      E             dE          RMSdq      gap      omega  full diag
   1    -50.5375544 -0.505376E+02  0.697E+00   10.20       0.0  T
   2    -50.5787491 -0.411946E-01  0.501E+00    9.61       1.0  T
   3    -50.6119766 -0.332276E-01  0.117E+00    6.52       1.0  T
   4    -50.6167241 -0.474747E-02  0.475E-01    6.69       1.0  T
   5    -50.6170323 -0.308196E-03  0.303E-01    6.47       1.0  T
   6    -50.6174660 -0.433666E-03  0.128E-01    6.51       1.0  T
   7    -50.6175619 -0.959022E-04  0.527E-02    6.61       1.0  T
   8    -50.6175748 -0.129722E-04  0.320E-02    6.61       1.0  T
   9    -50.6175806 -0.577679E-05  0.127E-02    6.61       1.5  T
  10    -50.6175815 -0.886470E-06  0.224E-03    6.61       8.8  T
  11    -50.6175815 -0.227485E-07  0.874E-04    6.61      22.4  T
  12    -50.6175815 -0.199375E-08  0.426E-04    6.61      46.1  T
speedup  0.99
cpu  time for SCC    0.01 s
wall time for SCC    0.02 s

   *** convergence criteria satisfied after 12 iterations ***

          eigenvalues
 #    :          28         29         30         31         32         33         34         35
 occ. :        2.000      2.000      2.000      2.000      2.000      2.000      2.000      2.000
 eps  :       -12.090    -12.033    -11.937    -11.755    -11.509    -10.664    -10.563    -10.057
 #    :          36         37         38         39         40         41         42         43
 occ. :        2.000      2.000      2.000      2.000      2.000      0.000      0.000      0.000
 eps  :        -9.800     -9.637     -9.350     -8.557     -8.512     -1.905     -0.488      0.206
 #    :          44         45         46         47         48         49         50         51
 occ. :        0.000      0.000      0.000      0.000      0.000      0.000      0.000      0.000
 eps  :         0.667      1.788      2.313      2.792      3.000      3.662      4.417      4.885


   #   Z            q   n(s)   n(p)   n(d)      C6AA      α(0)
   1  16 S      1.470  1.606  1.918  1.006    94.193    16.335
   2   8 O     -0.788  1.777  5.011  0.000    31.227     7.492
   3   8 O     -0.799  1.773  5.026  0.000    31.544     7.530
   4   8 O     -0.803  1.773  5.030  0.000    31.675     7.546
   5   8 O     -0.748  1.794  4.954  0.000    30.057     7.350
   6   8 O     -0.833  1.824  5.009  0.000    32.543     7.651
   7   1 H      0.225  0.775  0.000  0.000     0.999     1.570
   8   8 O     -0.621  1.730  4.892  0.000    25.702     6.842
   9   1 H      0.339  0.661  0.000  0.000     0.616     1.232
  10   1 H      0.287  0.713  0.000  0.000     0.762     1.371
  11   8 O     -0.417  1.656  4.761  0.000    21.128     6.208
  12   1 H      0.410  0.590  0.000  0.000     0.461     1.064
  13   1 H      0.415  0.585  0.000  0.000     0.458     1.063
  14   1 H      0.358  0.642  0.000  0.000     0.571     1.187
  15   8 O     -0.455  1.656  4.800  0.000    21.890     6.319
  16   1 H      0.395  0.605  0.000  0.000     0.490     1.098
  17   1 H      0.400  0.600  0.000  0.000     0.485     1.094
  18   1 H      0.405  0.595  0.000  0.000     0.476     1.084
  19   8 O     -0.453  1.653  4.801  0.000    21.857     6.314
  20   1 H      0.402  0.598  0.000  0.000     0.482     1.090
  21   1 H      0.398  0.602  0.000  0.000     0.484     1.091
  22   1 H      0.379  0.621  0.000  0.000     0.525     1.139
  23   7 N     -0.468  1.384  4.084  0.000    32.349     8.447
  24   1 H      0.208  0.792  0.000  0.000     1.064     1.616
  25   1 H      0.144  0.856  0.000  0.000     1.444     1.883
  26   1 H      0.153  0.847  0.000  0.000     1.378     1.839

 Mol. C6AA /au·bohr⁶  :       5544.894269
 Mol. C8AA /au·bohr⁸  :     120554.603174
 Mol. α(0) /au        :        107.456827

 
 Wiberg/Mayer (AO) data. WBOs > 0.1 written file <wbo>
 largest (>0.05) Wiberg bond orders for each atom
           total WBO             WBO to atom ...
     1  S   5.032    O    5 1.369    O    2 1.243    O    4 1.194    O    3 1.191
     2  O   1.677    S    1 1.243    H   18 0.106    O    5 0.098    O    3 0.093    O    4 0.091
     3  O   1.690    S    1 1.191    H   20 0.107    O    5 0.093    O    2 0.093    O    4 0.086    H    9 0.056
     4  O   1.681    S    1 1.194    H   13 0.118    O    5 0.096    O    2 0.091    O    3 0.086
     5  O   1.673    S    1 1.369    O    2 0.098    O    4 0.096    O    3 0.093
     6  O   1.671    H    7 0.942    H   12 0.190    H   21 0.174    H   16 0.171    O   11 0.060    O   15 0.058    O   19 0.057
     7  H   0.949    O    6 0.942
     8  O   1.851    H   10 0.906    H    9 0.826    H   17 0.067
     9  H   0.885    O    8 0.826    O    3 0.056
    10  H   0.918    O    8 0.906
    11  O   2.309    H   14 0.863    H   13 0.699    H   12 0.636    O    6 0.060
    12  H   0.832    O   11 0.636    O    6 0.190
    13  H   0.828    O   11 0.699    O    4 0.118
    14  H   0.872    O   11 0.863
    15  O   2.290    H   17 0.765    H   18 0.720    H   16 0.670    O    6 0.058
    16  H   0.844    O   15 0.670    O    6 0.171
    17  H   0.840    O   15 0.765    O    8 0.067
    18  H   0.836    O   15 0.720    O    2 0.106
    19  O   2.291    H   22 0.764    H   20 0.722    H   21 0.664    O    6 0.057
    20  H   0.839    O   19 0.722    O    3 0.107
    21  H   0.842    O   19 0.664    O    6 0.174
    22  H   0.856    O   19 0.764    N   23 0.085
    23  N   3.011    H   26 0.974    H   25 0.973    H   24 0.921    H   22 0.085
    24  H   0.957    N   23 0.921
    25  H   0.979    N   23 0.973
    26  H   0.976    N   23 0.974
 MOs/occ written to file <molden.input>
 
molecular dipole:
                 x           y           z       tot (Debye)
 q only:       -4.238      -1.628       3.432
   full:       -3.521      -1.862       3.455      13.403
molecular quadrupole (traceless):
                xx          xy          yy          xz          yz          zz
 q only:      -13.420      -1.004      26.335      23.596       0.431     -12.915
  q+dip:      -11.691      -0.720      29.975      21.928      -1.592     -18.284
   full:      -11.772      -0.568      30.325      21.886      -1.729     -18.553

SCC energy    :     -50.6175815
rep           :       0.2764144
ES            :       0.3659844
AES           :      -0.0783061
AXC           :      -0.0084260
disp          :      -0.0196058
XB            :       0.0000000
fix           :       0.0000000
total E       :     -50.3408418
atomizationE  :       4.8711460     3056.69
(atE without considering molecular charge,
 total energy contains solvation terms)
H-L gap (eV)  :          6.6062
           ------------------------------------------------- 
          |                 ===============                 |
          |                   A N C O P T                   |
          |                 ===============                 |
          |          Approximate Normal Coordinate          |
          |           Rational Function Optimizer           |
           ------------------------------------------------- 
dumping coords to <xtbopt.coord> and <xtbopt.log>
 optlevel               2
 Maxcycle             520
 Maxmicro              25
 Econv         1.000000000000000E-007
 Gconv         2.000000000000000E-004
 Maxdispl       1.00000000000000     
 Hlow          5.000000000000000E-003
 S6             20.0000000000000     
 Nvar               72

generating ANC from model Hessian ...
 Shifting diagonal of input Hessian by   4.767645281912554E-003
 Lowest  eigenvalues of input Hessian
   -0.000000    0.000000    0.000000    0.000000    0.000000    0.000000
    0.005000    0.005057    0.005718    0.005985    0.006307    0.006917
    0.007758    0.007902    0.008435    0.009152    0.009471    0.010067
 Highest eigenvalues
    1.578277    1.580470    1.582371    3.081823    3.084112    3.086312
 
cpu  time for ANC gen    0.02 s
wall time for ANC gen    0.02 s
................................................................................
.............................. CYCLE    1 ......................................
................................................................................
   1    -50.6175815 -0.506176E+02  0.176E-04    6.61       0.0  T
   2    -50.6175815 -0.722125E-10  0.121E-04    6.61     162.2  T
   3    -50.6175815 -0.372467E-10  0.782E-05    6.61     250.7  T
speedup  0.97
cpu  time for SCC    0.00 s
wall time for SCC    0.00 s
speedup  0.98
cpu  time for grad    0.01 s
wall time for grad    0.01 s
 E :    -50.34084182  G :  0.207803    pred/act E change:  0.000D+00  0.261D-07
Maxdispl :   0.2100   ||displ|| :   0.4446   Lambda : -0.481D-01
Largest |displ|/coords:  0.2100 (  32)  0.1614 (  33)  0.1317 (  16)
................................................................................
.............................. CYCLE    2 ......................................
................................................................................
   1    -50.6337033 -0.506337E+02  0.364E-01    6.85       0.0  T
   2    -50.6341789 -0.475572E-03  0.270E-01    7.05       1.0  T
   3    -50.6344114 -0.232576E-03  0.112E-01    7.36       1.0  T
   4    -50.6344258 -0.143889E-04  0.324E-02    7.40       1.0  T
   5    -50.6344304 -0.460827E-05  0.101E-02    7.38       1.9  T
   6    -50.6344306 -0.193378E-06  0.479E-03    7.37       4.1  T
   7    -50.6344307 -0.108231E-06  0.205E-03    7.37       9.5  T
speedup  0.90
cpu  time for SCC    0.01 s
wall time for SCC    0.01 s
speedup  0.99
cpu  time for grad    0.01 s
wall time for grad    0.02 s
 E :    -50.38132276  G :  0.133857    pred/act E change:  0.000D+00 -0.405D-01
Maxdispl :   0.2928   ||displ|| :   0.4821   Lambda : -0.315D-01
Largest |displ|/coords:  0.2928 (  32)  0.1386 (  27)  0.1276 (  33)
................................................................................
.............................. CYCLE    3 ......................................
................................................................................
   1    -50.6444028 -0.506444E+02  0.376E-01    7.62       0.0  T
   2    -50.6451491 -0.746268E-03  0.270E-01    7.81       1.0  T
   3    -50.6455229 -0.373820E-03  0.119E-01    8.10       1.0  T
   4    -50.6455402 -0.172650E-04  0.332E-02    8.14       1.0  T
   5    -50.6455442 -0.406462E-05  0.113E-02    8.13       1.7  T
   6    -50.6455446 -0.335716E-06  0.548E-03    8.13       3.6  T
   7    -50.6455447 -0.136219E-06  0.235E-03    8.12       8.3  T
speedup  1.03
cpu  time for SCC    0.01 s
wall time for SCC    0.01 s
speedup  1.05
cpu  time for grad    0.02 s
wall time for grad    0.02 s
 E :    -50.40634262  G :  0.084116    pred/act E change: -0.288D-01 -0.250D-01
Maxdispl :   0.2061   ||displ|| :   0.4273   Lambda : -0.145D-01
Largest |displ|/coords:  0.2061 (  32)  0.1376 (  12)  0.1200 (   8)
................................................................................
.............................. CYCLE    4 ......................................
................................................................................
   1    -50.6486748 -0.506487E+02  0.328E-01    8.26       0.0  T
   2    -50.6493186 -0.643872E-03  0.230E-01    8.39       1.0  T
   3    -50.6496370 -0.318402E-03  0.103E-01    8.57       1.0  T
   4    -50.6496518 -0.147351E-04  0.267E-02    8.60       1.0  T
   5    -50.6496541 -0.236230E-05  0.968E-03    8.60       2.0  T
   6    -50.6496544 -0.258133E-06  0.486E-03    8.60       4.0  T
   7    -50.6496545 -0.804748E-07  0.194E-03    8.59      10.1  T
speedup  0.97
cpu  time for SCC    0.01 s
wall time for SCC    0.01 s
speedup  0.95
cpu  time for grad    0.01 s
wall time for grad    0.02 s
 E :    -50.41645845  G :  0.051893    pred/act E change: -0.194D-01 -0.101D-01
Maxdispl :   0.1327   ||displ|| :   0.3187   Lambda : -0.431D-02
Largest |displ|/coords:  0.1327 (  12)  0.1162 (   8)  0.1021 (  16)
................................................................................
.............................. CYCLE    5 ......................................
................................................................................
   1    -50.6506713 -0.506507E+02  0.217E-01    8.61       0.0  T
   2    -50.6508042 -0.132862E-03  0.158E-01    8.66       1.0  T
   3    -50.6508654 -0.612704E-04  0.572E-02    8.74       1.0  T
   4    -50.6508718 -0.637442E-05  0.149E-02    8.74       1.3  T
   5    -50.6508727 -0.952562E-06  0.484E-03    8.74       4.0  T
   6    -50.6508728 -0.434134E-07  0.243E-03    8.74       8.1  T
speedup  1.02
cpu  time for SCC    0.01 s
wall time for SCC    0.01 s
speedup  0.97
cpu  time for grad    0.01 s
wall time for grad    0.01 s
 E :    -50.41947518  G :  0.034480    pred/act E change: -0.858D-02 -0.302D-02
Maxdispl :   0.1387   ||displ|| :   0.3183   Lambda : -0.375D-02
Largest |displ|/coords:  0.1387 (   8)  0.1079 (  24)  0.0993 (   6)
................................................................................
.............................. CYCLE    6 ......................................
................................................................................
   1    -50.6581395 -0.506581E+02  0.270E-01    8.84       0.0  T
   2    -50.6585600 -0.420529E-03  0.189E-01    8.89       1.0  T
   3    -50.6587510 -0.190988E-03  0.849E-02    8.97       1.0  T
   4    -50.6587608 -0.983389E-05  0.223E-02    8.98       1.0  T
   5    -50.6587619 -0.105589E-05  0.776E-03    8.98       2.5  T
   6    -50.6587620 -0.135463E-06  0.407E-03    8.98       4.8  T
   7    -50.6587621 -0.354382E-07  0.136E-03    8.97      14.5  T
speedup  1.03
cpu  time for SCC    0.01 s
wall time for SCC    0.01 s
speedup  1.05
cpu  time for grad    0.02 s
wall time for grad    0.02 s
 E :    -50.42120109  G :  0.028143    pred/act E change: -0.237D-02 -0.173D-02
Maxdispl :   0.1273   ||displ|| :   0.2714   Lambda : -0.223D-02
Largest |displ|/coords:  0.1273 (  16)  0.0998 (  10)  0.0815 (  18)
................................................................................
.............................. CYCLE    7 ......................................
................................................................................
   1    -50.6575630 -0.506576E+02  0.353E-01    8.99       0.0  T
   2    -50.6576707 -0.107744E-03  0.265E-01    8.99       1.0  T
   3    -50.6577245 -0.537825E-04  0.560E-02    9.01       1.0  T
   4    -50.6577413 -0.167860E-04  0.114E-02    9.01       1.7  T
   5    -50.6577416 -0.320847E-06  0.524E-03    9.01       3.7  T
   6    -50.6577416 -0.276996E-07  0.273E-03    9.01       7.2  T
speedup  1.00
cpu  time for SCC    0.01 s
wall time for SCC    0.01 s
speedup  0.97
cpu  time for grad    0.01 s
wall time for grad    0.01 s
 E :    -50.42171990  G :  0.039815    pred/act E change: -0.207D-02 -0.519D-03
Maxdispl :   0.0970   ||displ|| :   0.2038   Lambda : -0.239D-02
Largest |displ|/coords:  0.0970 (  16)  0.0878 (  18)  0.0852 (  20)
................................................................................
.............................. CYCLE    8 ......................................
................................................................................
   1    -50.6626806 -0.506627E+02  0.212E-01    8.92       0.0  T
   2    -50.6627315 -0.509260E-04  0.157E-01    8.91       1.0  T
   3    -50.6627605 -0.289940E-04  0.390E-02    8.90       1.0  T
   4    -50.6627666 -0.611248E-05  0.959E-03    8.90       2.0  T
   5    -50.6627668 -0.154707E-06  0.383E-03    8.90       5.1  T
   6    -50.6627668 -0.209021E-07  0.199E-03    8.90       9.8  T
speedup  0.85
cpu  time for SCC    0.00 s
wall time for SCC    0.01 s
speedup  0.97
cpu  time for grad    0.01 s
wall time for grad    0.01 s
 E :    -50.42237155  G :  0.023640    pred/act E change: -0.120D-02 -0.652D-03
Maxdispl :   0.1004   ||displ|| :   0.2004   Lambda : -0.133D-02
Largest |displ|/coords:  0.1004 (   2)  0.0771 (   9)  0.0734 (   3)
................................................................................
.............................. CYCLE    9 ......................................
................................................................................
   1    -50.6599982 -0.506600E+02  0.142E-01    8.90       0.0  T
   2    -50.6600151 -0.169075E-04  0.106E-01    8.90       1.0  T
   3    -50.6600227 -0.759667E-05  0.234E-02    8.90       1.0  T
   4    -50.6600250 -0.226712E-05  0.760E-03    8.90       2.6  T
   5    -50.6600251 -0.154880E-06  0.242E-03    8.90       8.1  T
   6    -50.6600251 -0.793426E-08  0.142E-03    8.90      13.8  T
speedup  1.03
cpu  time for SCC    0.01 s
wall time for SCC    0.01 s
speedup  1.05
cpu  time for grad    0.01 s
wall time for grad    0.01 s
 E :    -50.42294660  G :  0.014495    pred/act E change: -0.124D-02 -0.575D-03
Maxdispl :   0.0955   ||displ|| :   0.1831   Lambda : -0.101D-02
Largest |displ|/coords:  0.0955 (   8)  0.0697 (   2)  0.0498 (  24)
................................................................................
.............................. CYCLE   10 ......................................
................................................................................
   1    -50.6626794 -0.506627E+02  0.167E-01    8.94       0.0  T
   2    -50.6627349 -0.555012E-04  0.123E-01    8.94       1.0  T
   3    -50.6627595 -0.246432E-04  0.392E-02    8.94       1.0  T
   4    -50.6627644 -0.482345E-05  0.904E-03    8.95       2.2  T
   5    -50.6627646 -0.263921E-06  0.363E-03    8.95       5.4  T
   6    -50.6627647 -0.166342E-07  0.197E-03    8.95      10.0  T
   7    -50.6627647 -0.705572E-08  0.551E-04    8.95      35.6  T
speedup  0.91
cpu  time for SCC    0.01 s
wall time for SCC    0.01 s
speedup  0.99
cpu  time for grad    0.01 s
wall time for grad    0.02 s
 E :    -50.42321070  G :  0.015670    pred/act E change: -0.693D-03 -0.264D-03
Maxdispl :   0.0614   ||displ|| :   0.1527   Lambda : -0.772D-03
Largest |displ|/coords:  0.0614 (   2)  0.0471 (  18)  0.0461 (  23)
................................................................................
.............................. CYCLE   11 ......................................
................................................................................
   1    -50.6628919 -0.506629E+02  0.126E-01    8.93       0.0  T
   2    -50.6629055 -0.136211E-04  0.935E-02    8.93       1.0  T
   3    -50.6629128 -0.721369E-05  0.224E-02    8.93       1.0  T
   4    -50.6629145 -0.169985E-05  0.652E-03    8.93       3.0  T
   5    -50.6629145 -0.802292E-07  0.217E-03    8.93       9.1  T
   6    -50.6629146 -0.688631E-08  0.126E-03    8.93      15.5  T
speedup  1.05
cpu  time for SCC    0.01 s
wall time for SCC    0.01 s
speedup  0.99
cpu  time for grad    0.01 s
wall time for grad    0.01 s
 E :    -50.42366608  G :  0.016723    pred/act E change: -0.523D-03 -0.455D-03
Maxdispl :   0.0669   ||displ|| :   0.1517   Lambda : -0.527D-03
Largest |displ|/coords:  0.0669 (   3)  0.0619 (  10)  0.0464 (  17)
................................................................................
.............................. CYCLE   12 ......................................
................................................................................
   1    -50.6637775 -0.506638E+02  0.101E-01    8.94       0.0  T
   2    -50.6637918 -0.142806E-04  0.750E-02    8.94       1.0  T
   3    -50.6637987 -0.691919E-05  0.231E-02    8.94       1.0  T
   4    -50.6638001 -0.140145E-05  0.768E-03    8.94       2.6  T
   5    -50.6638002 -0.998001E-07  0.210E-03    8.94       9.3  T
   6    -50.6638003 -0.574389E-08  0.125E-03    8.94      15.7  T
speedup  1.05
cpu  time for SCC    0.01 s
wall time for SCC    0.01 s
speedup  0.98
cpu  time for grad    0.01 s
wall time for grad    0.01 s
 E :    -50.42397483  G :  0.014384    pred/act E change: -0.395D-03 -0.309D-03
Maxdispl :   0.1012   ||displ|| :   0.2179   Lambda : -0.607D-03
Largest |displ|/coords:  0.1012 (   3)  0.0878 (   1)  0.0614 (  15)
................................................................................
.............................. CYCLE   13 ......................................
................................................................................
   1    -50.6670750 -0.506671E+02  0.140E-01    8.97       0.0  T
   2    -50.6671279 -0.529361E-04  0.104E-01    8.97       1.0  T
   3    -50.6671539 -0.259882E-04  0.421E-02    8.97       1.0  T
   4    -50.6671576 -0.363644E-05  0.127E-02    8.97       1.5  T
   5    -50.6671579 -0.379872E-06  0.416E-03    8.97       4.7  T
   6    -50.6671579 -0.198106E-07  0.222E-03    8.97       8.8  T
   7    -50.6671580 -0.682446E-08  0.523E-04    8.97      37.5  T
speedup  1.03
cpu  time for SCC    0.01 s
wall time for SCC    0.01 s
speedup  1.00
cpu  time for grad    0.02 s
wall time for grad    0.02 s
 E :    -50.42439282  G :  0.017172    pred/act E change: -0.269D-03 -0.418D-03
Maxdispl :   0.1575   ||displ|| :   0.3314   Lambda : -0.872D-03
Largest |displ|/coords:  0.1575 (   1)  0.1337 (   3)  0.1067 (  23)
................................................................................
.............................. CYCLE   14 ......................................
................................................................................
   1    -50.6698015 -0.506698E+02  0.230E-01    9.03       0.0  T
   2    -50.6699232 -0.121782E-03  0.172E-01    8.99       1.0  T
   3    -50.6699842 -0.609768E-04  0.634E-02    8.89       1.0  T
   4    -50.6699950 -0.107376E-04  0.198E-02    8.89       1.0  T
   5    -50.6699958 -0.869574E-06  0.660E-03    8.90       3.0  T
   6    -50.6699959 -0.511899E-07  0.342E-03    8.90       5.7  T
   7    -50.6699959 -0.184574E-07  0.846E-04    8.90      23.2  T
   8    -50.6699959 -0.280801E-08  0.251E-04    8.90      78.0  T
speedup  0.92
cpu  time for SCC    0.01 s
wall time for SCC    0.01 s
speedup  0.99
cpu  time for grad    0.02 s
wall time for grad    0.02 s
 E :    -50.42500556  G :  0.021728    pred/act E change: -0.318D-03 -0.613D-03
Maxdispl :   0.1844   ||displ|| :   0.3428   Lambda : -0.123D-02
Largest |displ|/coords:  0.1844 (   1)  0.1089 (   3)  0.1040 (  23)
................................................................................
.............................. CYCLE   15 ......................................
................................................................................
   1    -50.6790340 -0.506790E+02  0.190E-01    8.96       0.0  T
   2    -50.6791339 -0.999649E-04  0.144E-01    8.93       1.0  T
   3    -50.6791913 -0.574187E-04  0.580E-02    8.87       1.0  T
   4    -50.6792003 -0.899301E-05  0.184E-02    8.87       1.1  T
   5    -50.6792011 -0.807562E-06  0.634E-03    8.88       3.1  T
   6    -50.6792012 -0.404846E-07  0.303E-03    8.88       6.5  T
   7    -50.6792012 -0.130129E-07  0.810E-04    8.88      24.2  T
speedup  1.03
cpu  time for SCC    0.01 s
wall time for SCC    0.01 s
speedup  1.05
cpu  time for grad    0.02 s
wall time for grad    0.02 s
 E :    -50.42574929  G :  0.030548    pred/act E change: -0.484D-03 -0.744D-03
Maxdispl :   0.1888   ||displ|| :   0.3294   Lambda : -0.190D-02
Largest |displ|/coords:  0.1888 (   1)  0.1012 (  23)  0.0967 (  26)
................................................................................
.............................. CYCLE   16 ......................................
................................................................................
   1    -50.6799803 -0.506800E+02  0.219E-01    8.92       0.0  T
   2    -50.6800812 -0.100884E-03  0.162E-01    8.94       1.0  T
   3    -50.6801352 -0.539952E-04  0.517E-02    8.96       1.0  T
   4    -50.6801458 -0.105747E-04  0.139E-02    8.95       1.4  T
   5    -50.6801461 -0.336776E-06  0.588E-03    8.95       3.3  T
   6    -50.6801462 -0.351121E-07  0.288E-03    8.95       6.8  T
speedup  1.03
cpu  time for SCC    0.01 s
wall time for SCC    0.01 s
speedup  1.03
cpu  time for grad    0.01 s
wall time for grad    0.01 s
 E :    -50.42709445  G :  0.036754    pred/act E change: -0.689D-03 -0.135D-02
Maxdispl :   0.2082   ||displ|| :   0.5034   Lambda : -0.496D-02
Largest |displ|/coords:  0.2082 (  26)  0.1808 (  24)  0.1470 (  23)
................................................................................
.............................. CYCLE   17 ......................................
................................................................................
   1    -50.6823737 -0.506824E+02  0.447E-01    8.99       0.0  T
   2    -50.6830152 -0.641518E-03  0.325E-01    9.07       1.0  T
   3    -50.6833306 -0.315429E-03  0.122E-01    9.04       1.0  T
   4    -50.6833726 -0.419814E-04  0.294E-02    9.04       1.0  T
   5    -50.6833740 -0.144306E-05  0.108E-02    9.04       1.8  T
   6    -50.6833741 -0.118034E-06  0.605E-03    9.04       3.2  T
   7    -50.6833742 -0.386097E-07  0.120E-03    9.04      16.3  T
   8    -50.6833742 -0.370790E-08  0.394E-04    9.04      49.8  T
speedup  1.03
cpu  time for SCC    0.01 s
wall time for SCC    0.01 s
speedup  0.97
cpu  time for grad    0.02 s
wall time for grad    0.02 s
 E :    -50.43022798  G :  0.054528    pred/act E change: -0.105D-02 -0.313D-02
Maxdispl :   0.1337   ||displ|| :   0.3257   Lambda : -0.439D-02
Largest |displ|/coords:  0.1337 (   1)  0.1066 (  24)  0.0932 (   7)
................................................................................
.............................. CYCLE   18 ......................................
................................................................................
   1    -50.6980401 -0.506980E+02  0.227E-01    9.02       0.0  T
   2    -50.6981429 -0.102814E-03  0.169E-01    8.98       1.0  T
   3    -50.6982124 -0.694741E-04  0.614E-02    8.90       1.0  T
   4    -50.6982227 -0.103676E-04  0.193E-02    8.90       1.0  T
   5    -50.6982235 -0.754371E-06  0.712E-03    8.90       2.8  T
   6    -50.6982236 -0.554698E-07  0.336E-03    8.90       5.8  T
   7    -50.6982236 -0.180233E-07  0.952E-04    8.90      20.6  T
speedup  1.00
cpu  time for SCC    0.01 s
wall time for SCC    0.01 s
speedup  0.96
cpu  time for grad    0.01 s
wall time for grad    0.02 s
 E :    -50.43319583  G :  0.056470    pred/act E change: -0.311D-02 -0.297D-02
Maxdispl :   0.1137   ||displ|| :   0.2878   Lambda : -0.553D-02
Largest |displ|/coords:  0.1137 (  26)  0.1076 (  24)  0.0832 (  30)
................................................................................
.............................. CYCLE   19 ......................................
................................................................................
   1    -50.7017311 -0.507017E+02  0.232E-01    8.78       0.0  T
   2    -50.7018675 -0.136351E-03  0.171E-01    8.74       1.0  T
   3    -50.7019492 -0.816693E-04  0.624E-02    8.67       1.0  T
   4    -50.7019601 -0.109227E-04  0.226E-02    8.67       1.0  T
   5    -50.7019611 -0.102841E-05  0.742E-03    8.67       2.6  T
   6    -50.7019612 -0.656410E-07  0.338E-03    8.67       5.8  T
   7    -50.7019612 -0.121557E-07  0.931E-04    8.67      21.1  T
speedup  0.99
cpu  time for SCC    0.01 s
wall time for SCC    0.01 s
speedup  1.02
cpu  time for grad    0.02 s
wall time for grad    0.02 s
 E :    -50.43570311  G :  0.057581    pred/act E change: -0.243D-02 -0.251D-02
Maxdispl :   0.1425   ||displ|| :   0.4227   Lambda : -0.731D-02
Largest |displ|/coords:  0.1425 (   2)  0.0984 (  24)  0.0977 (  19)
................................................................................
.............................. CYCLE   20 ......................................
................................................................................
   1    -50.7187689 -0.507188E+02  0.418E-01    8.60       0.0  T
   2    -50.7190342 -0.265328E-03  0.309E-01    8.55       1.0  T
   3    -50.7192120 -0.177712E-03  0.945E-02    8.43       1.0  T
   4    -50.7192392 -0.272060E-04  0.272E-02    8.43       1.0  T
   5    -50.7192406 -0.145851E-05  0.117E-02    8.43       1.7  T
   6    -50.7192407 -0.125461E-06  0.527E-03    8.43       3.7  T
   7    -50.7192408 -0.497727E-07  0.133E-03    8.43      14.7  T
speedup  1.00
cpu  time for SCC    0.01 s
wall time for SCC    0.01 s
speedup  1.03
cpu  time for grad    0.02 s
wall time for grad    0.02 s
 E :    -50.43634717  G :  0.079955    pred/act E change: -0.299D-02 -0.644D-03
Maxdispl :   0.1912   ||displ|| :   0.5446   Lambda : -0.178D-01
Largest |displ|/coords:  0.1912 (  23)  0.1898 (  26)  0.1356 (  48)
................................................................................
.............................. CYCLE   21 ......................................
................................................................................
   1    -50.6965331 -0.506965E+02  0.601E-01    8.50       0.0  T
   2    -50.6976961 -0.116304E-02  0.431E-01    8.57       1.0  T
   3    -50.6982794 -0.583309E-03  0.178E-01    8.68       1.0  T
   4    -50.6983546 -0.752341E-04  0.439E-02    8.70       1.0  T
   5    -50.6983597 -0.501737E-05  0.181E-02    8.69       1.1  T
   6    -50.6983603 -0.629995E-06  0.103E-02    8.69       1.9  T
   7    -50.6983604 -0.155702E-06  0.261E-03    8.69       7.5  T
   8    -50.6983605 -0.122191E-07  0.754E-04    8.69      26.0  T
speedup  1.01
cpu  time for SCC    0.01 s
wall time for SCC    0.01 s
speedup  0.98
cpu  time for grad    0.02 s
wall time for grad    0.02 s
 E :    -50.43434335  G :  0.063525    pred/act E change: -0.431D-02  0.200D-02
Maxdispl :   0.2430   ||displ|| :   0.5880   Lambda : -0.163D-01
Largest |displ|/coords:  0.2430 (  26)  0.2357 (  24)  0.1913 (  23)
................................................................................
.............................. CYCLE   22 ......................................
................................................................................
   1    -50.7270289 -0.507270E+02  0.585E-01    8.60       0.0  T
   2    -50.7281276 -0.109874E-02  0.423E-01    8.53       1.0  T
   3    -50.7288100 -0.682391E-03  0.177E-01    8.38       1.0  T
   4    -50.7288842 -0.742139E-04  0.454E-02    8.35       1.0  T
   5    -50.7288897 -0.551491E-05  0.204E-02    8.35       1.0  T
   6    -50.7288899 -0.137923E-06  0.890E-03    8.36       2.2  T
   7    -50.7288900 -0.164070E-06  0.198E-03    8.36       9.9  T
   8    -50.7288900 -0.474105E-08  0.721E-04    8.36      27.2  T
speedup  0.99
cpu  time for SCC    0.01 s
wall time for SCC    0.01 s
speedup  0.96
cpu  time for grad    0.02 s
wall time for grad    0.02 s
 E :    -50.43815563  G :  0.075083    pred/act E change: -0.115D-01 -0.381D-02
Maxdispl :   0.2182   ||displ|| :   0.5327   Lambda : -0.219D-01
Largest |displ|/coords:  0.2182 (  24)  0.2121 (  26)  0.1578 (  21)
................................................................................
.............................. CYCLE   23 ......................................
................................................................................
   1    -50.7001492 -0.507001E+02  0.574E-01    8.56       0.0  T
   2    -50.7017035 -0.155426E-02  0.403E-01    8.61       1.0  T
   3    -50.7024803 -0.776749E-03  0.182E-01    8.70       1.0  T
   4    -50.7025610 -0.807109E-04  0.410E-02    8.71       1.0  T
   5    -50.7025645 -0.349388E-05  0.188E-02    8.71       1.0  T
   6    -50.7025650 -0.558479E-06  0.920E-03    8.71       2.1  T
   7    -50.7025651 -0.959796E-07  0.247E-03    8.71       7.9  T
   8    -50.7025651 -0.100040E-07  0.600E-04    8.71      32.7  T
speedup  1.00
cpu  time for SCC    0.01 s
wall time for SCC    0.01 s
speedup  1.04
cpu  time for grad    0.02 s
wall time for grad    0.02 s
 E :    -50.43398365  G :  0.083896    pred/act E change: -0.110D-01  0.417D-02
Maxdispl :   0.2003   ||displ|| :   0.4347   Lambda : -0.214D-01
Largest |displ|/coords:  0.2003 (  24)  0.1266 (  68)  0.1188 (  10)
................................................................................
.............................. CYCLE   24 ......................................
................................................................................
   1    -50.7222446 -0.507222E+02  0.512E-01    8.52       0.0  T
   2    -50.7231564 -0.911771E-03  0.367E-01    8.50       1.0  T
   3    -50.7236884 -0.531977E-03  0.146E-01    8.44       1.0  T
   4    -50.7237418 -0.533863E-04  0.305E-02    8.44       1.0  T
   5    -50.7237432 -0.144736E-05  0.160E-02    8.44       1.2  T
   6    -50.7237434 -0.192639E-06  0.686E-03    8.44       2.9  T
   7    -50.7237435 -0.596295E-07  0.158E-03    8.44      12.4  T
   8    -50.7237435 -0.435460E-08  0.393E-04    8.44      49.9  T
speedup  1.00
cpu  time for SCC    0.01 s
wall time for SCC    0.01 s
speedup  0.98
cpu  time for grad    0.02 s
wall time for grad    0.02 s
 E :    -50.43980384  G :  0.080511    pred/act E change: -0.141D-01 -0.582D-02
Maxdispl :   0.1193   ||displ|| :   0.3101   Lambda : -0.117D-01
Largest |displ|/coords:  0.1193 (   2)  0.1075 (  10)  0.0811 (  14)
................................................................................
.............................. CYCLE   25 ......................................
................................................................................
   1    -50.7225348 -0.507225E+02  0.375E-01    8.56       0.0  T
   2    -50.7227595 -0.224688E-03  0.275E-01    8.54       1.0  T
   3    -50.7229025 -0.143021E-03  0.818E-02    8.49       1.0  T
   4    -50.7229234 -0.208873E-04  0.222E-02    8.49       1.0  T
   5    -50.7229242 -0.767584E-06  0.976E-03    8.49       2.0  T
   6    -50.7229243 -0.126508E-06  0.466E-03    8.50       4.2  T
   7    -50.7229243 -0.293913E-07  0.112E-03    8.50      17.5  T
speedup  1.01
cpu  time for SCC    0.01 s
wall time for SCC    0.01 s
speedup  1.04
cpu  time for grad    0.02 s
wall time for grad    0.02 s
 E :    -50.44146813  G :  0.055111    pred/act E change: -0.127D-01 -0.166D-02
Maxdispl :   0.1143   ||displ|| :   0.2589   Lambda : -0.716D-02
Largest |displ|/coords:  0.1143 (  24)  0.1005 (  10)  0.0693 (  14)

generating ANC from model Hessian ...
 Shifting diagonal of input Hessian by   4.813433551998895E-003
 Lowest  eigenvalues of input Hessian
   -0.000000   -0.000000    0.000000    0.000000    0.000000    0.000000
    0.005000    0.005085    0.005468    0.005891    0.006283    0.006508
    0.006583    0.006847    0.007963    0.009471    0.010196    0.011222
 Highest eigenvalues
    1.387786    1.402919    1.453403    2.666941    3.183534    3.807270
 
cpu  time for ANC gen    0.02 s
wall time for ANC gen    0.02 s
................................................................................
.............................. CYCLE   26 ......................................
................................................................................
   1    -50.7254201 -0.507254E+02  0.270E-01    8.39       0.0  T
   2    -50.7255394 -0.119356E-03  0.199E-01    8.39       1.0  T
   3    -50.7256169 -0.774346E-04  0.584E-02    8.41       1.0  T
   4    -50.7256274 -0.105669E-04  0.177E-02    8.41       1.1  T
   5    -50.7256280 -0.554732E-06  0.734E-03    8.41       2.7  T
   6    -50.7256281 -0.588919E-07  0.325E-03    8.41       6.0  T
   7    -50.7256281 -0.183104E-07  0.913E-04    8.41      21.5  T
   8    -50.7256281 -0.149526E-08  0.307E-04    8.41      63.9  T
speedup  1.03
cpu  time for SCC    0.01 s
wall time for SCC    0.01 s
speedup  1.02
cpu  time for grad    0.02 s
wall time for grad    0.02 s
 E :    -50.44327294  G :  0.033913    pred/act E change:  0.000D+00 -0.180D-02
Maxdispl :   0.0672   ||displ|| :   0.1906   Lambda : -0.204D-02
Largest |displ|/coords:  0.0672 (  27)  0.0602 (  22)  0.0544 (  17)
................................................................................
.............................. CYCLE   27 ......................................
................................................................................
   1    -50.7263710 -0.507264E+02  0.114E-01    8.46       0.0  T
   2    -50.7263816 -0.105968E-04  0.858E-02    8.46       1.0  T
   3    -50.7263876 -0.599325E-05  0.194E-02    8.44       1.0  T
   4    -50.7263890 -0.137220E-05  0.656E-03    8.44       3.0  T
   5    -50.7263891 -0.800139E-07  0.209E-03    8.44       9.4  T
   6    -50.7263891 -0.511560E-08  0.121E-03    8.44      16.2  T
speedup  1.00
cpu  time for SCC    0.01 s
wall time for SCC    0.01 s
speedup  0.97
cpu  time for grad    0.01 s
wall time for grad    0.01 s
 E :    -50.44476156  G :  0.022463    pred/act E change:  0.000D+00 -0.149D-02
Maxdispl :   0.0854   ||displ|| :   0.2704   Lambda : -0.189D-02
Largest |displ|/coords:  0.0854 (   1)  0.0802 (   5)  0.0778 (   4)
................................................................................
.............................. CYCLE   28 ......................................
................................................................................
   1    -50.7292978 -0.507293E+02  0.161E-01    8.49       0.0  T
   2    -50.7293220 -0.241386E-04  0.121E-01    8.49       1.0  T
   3    -50.7293361 -0.141767E-04  0.304E-02    8.46       1.0  T
   4    -50.7293392 -0.306852E-05  0.112E-02    8.46       1.8  T
   5    -50.7293394 -0.203818E-06  0.353E-03    8.46       5.6  T
   6    -50.7293394 -0.194533E-07  0.204E-03    8.46       9.6  T
speedup  0.98
cpu  time for SCC    0.01 s
wall time for SCC    0.01 s
speedup  1.03
cpu  time for grad    0.01 s
wall time for grad    0.01 s
 E :    -50.44589684  G :  0.019404    pred/act E change: -0.106D-02 -0.114D-02
Maxdispl :   0.1175   ||displ|| :   0.2511   Lambda : -0.985D-03
Largest |displ|/coords:  0.1175 (  12)  0.0979 (   7)  0.0819 (   1)
................................................................................
.............................. CYCLE   29 ......................................
................................................................................
   1    -50.7333208 -0.507333E+02  0.136E-01    8.50       0.0  T
   2    -50.7333338 -0.130013E-04  0.102E-01    8.49       1.0  T
   3    -50.7333410 -0.727050E-05  0.229E-02    8.47       1.0  T
   4    -50.7333427 -0.170158E-05  0.838E-03    8.47       2.3  T
   5    -50.7333429 -0.129225E-06  0.282E-03    8.47       7.0  T
   6    -50.7333429 -0.133565E-07  0.164E-03    8.47      12.0  T
speedup  1.00
cpu  time for SCC    0.01 s
wall time for SCC    0.01 s
speedup  0.97
cpu  time for grad    0.01 s
wall time for grad    0.01 s
 E :    -50.44644504  G :  0.016023    pred/act E change: -0.101D-02 -0.548D-03
Maxdispl :   0.0746   ||displ|| :   0.1745   Lambda : -0.509D-03
Largest |displ|/coords:  0.0746 (   1)  0.0694 (   5)  0.0684 (   4)
................................................................................
.............................. CYCLE   30 ......................................
................................................................................
   1    -50.7360622 -0.507361E+02  0.966E-02    8.45       0.0  T
   2    -50.7360676 -0.539783E-05  0.721E-02    8.45       1.0  T
   3    -50.7360720 -0.436323E-05  0.141E-02    8.44       1.4  T
   4    -50.7360726 -0.637954E-06  0.536E-03    8.44       3.7  T
   5    -50.7360727 -0.425924E-07  0.171E-03    8.44      11.4  T
   6    -50.7360727 -0.482795E-08  0.969E-04    8.44      20.2  T
speedup  1.17
cpu  time for SCC    0.01 s
wall time for SCC    0.01 s
speedup  1.03
cpu  time for grad    0.01 s
wall time for grad    0.01 s
 E :    -50.44679301  G :  0.008772    pred/act E change: -0.524D-03 -0.348D-03
Maxdispl :   0.0745   ||displ|| :   0.1482   Lambda : -0.254D-03
Largest |displ|/coords:  0.0745 (   1)  0.0678 (   4)  0.0450 (  24)
................................................................................
.............................. CYCLE   31 ......................................
................................................................................
   1    -50.7378641 -0.507379E+02  0.634E-02    8.41       0.0  T
   2    -50.7378661 -0.197124E-05  0.474E-02    8.41       1.0  T
   3    -50.7378677 -0.159796E-05  0.886E-03    8.39       2.2  T
   4    -50.7378679 -0.241582E-06  0.273E-03    8.40       7.2  T
   5    -50.7378680 -0.136491E-07  0.955E-04    8.40      20.5  T
speedup  0.96
cpu  time for SCC    0.00 s
wall time for SCC    0.01 s
speedup  1.03
cpu  time for grad    0.01 s
wall time for grad    0.01 s
 E :    -50.44695067  G :  0.005037    pred/act E change: -0.262D-03 -0.158D-03
Maxdispl :   0.0686   ||displ|| :   0.1212   Lambda : -0.828D-04
Largest |displ|/coords:  0.0686 (   1)  0.0566 (   4)  0.0328 (  20)
................................................................................
.............................. CYCLE   32 ......................................
................................................................................
   1    -50.7377872 -0.507378E+02  0.555E-02    8.37       0.0  T
   2    -50.7377879 -0.623047E-06  0.416E-02    8.37       1.0  T
   3    -50.7377886 -0.704711E-06  0.463E-03    8.36       4.2  T
   4    -50.7377886 -0.513109E-07  0.187E-03    8.36      10.5  T
   5    -50.7377886 -0.450320E-08  0.565E-04    8.36      34.7  T
speedup  1.00
cpu  time for SCC    0.01 s
wall time for SCC    0.01 s
speedup  0.95
cpu  time for grad    0.01 s
wall time for grad    0.01 s
 E :    -50.44701414  G :  0.004521    pred/act E change: -0.130D-03 -0.635D-04
Maxdispl :   0.1078   ||displ|| :   0.1919   Lambda : -0.103D-03
Largest |displ|/coords:  0.1078 (   1)  0.0936 (   4)  0.0539 (   3)
................................................................................
.............................. CYCLE   33 ......................................
................................................................................
   1    -50.7373977 -0.507374E+02  0.871E-02    8.32       0.0  T
   2    -50.7373989 -0.117762E-05  0.656E-02    8.32       1.0  T
   3    -50.7374003 -0.142009E-05  0.612E-03    8.32       3.2  T
   4    -50.7374004 -0.874337E-07  0.267E-03    8.32       7.3  T
   5    -50.7374004 -0.867841E-08  0.842E-04    8.32      23.3  T
speedup  0.98
cpu  time for SCC    0.00 s
wall time for SCC    0.01 s
speedup  0.96
cpu  time for grad    0.01 s
wall time for grad    0.01 s
 E :    -50.44708168  G :  0.003615    pred/act E change: -0.420D-04 -0.675D-04
Maxdispl :   0.0699   ||displ|| :   0.1226   Lambda : -0.459D-04
Largest |displ|/coords:  0.0699 (   1)  0.0632 (   4)  0.0351 (   3)
................................................................................
.............................. CYCLE   34 ......................................
................................................................................
   1    -50.7370215 -0.507370E+02  0.563E-02    8.30       0.0  T
   2    -50.7370220 -0.467428E-06  0.423E-02    8.30       1.0  T
   3    -50.7370225 -0.527343E-06  0.359E-03    8.30       5.5  T
   4    -50.7370225 -0.363571E-07  0.160E-03    8.30      12.3  T
   5    -50.7370225 -0.302018E-08  0.533E-04    8.30      36.8  T
   6    -50.7370225 -0.426070E-09  0.296E-04    8.30      66.2  T
speedup  0.98
cpu  time for SCC    0.01 s
wall time for SCC    0.01 s
speedup  0.99
cpu  time for grad    0.01 s
wall time for grad    0.02 s
 E :    -50.44711481  G :  0.003197    pred/act E change: -0.531D-04 -0.331D-04
Maxdispl :   0.0743   ||displ|| :   0.1350   Lambda : -0.462D-04
Largest |displ|/coords:  0.0743 (   1)  0.0690 (   4)  0.0376 (   3)
................................................................................
.............................. CYCLE   35 ......................................
................................................................................
   1    -50.7368552 -0.507369E+02  0.662E-02    8.30       0.0  T
   2    -50.7368560 -0.730765E-06  0.497E-02    8.30       1.0  T
   3    -50.7368567 -0.723339E-06  0.463E-03    8.30       4.2  T
   4    -50.7368568 -0.733538E-07  0.159E-03    8.30      12.3  T
   5    -50.7368568 -0.286222E-08  0.647E-04    8.30      30.3  T
   6    -50.7368568 -0.622343E-09  0.300E-04    8.30      65.3  T
speedup  1.17
cpu  time for SCC    0.01 s
wall time for SCC    0.01 s
speedup  1.06
cpu  time for grad    0.02 s
wall time for grad    0.02 s
 E :    -50.44714580  G :  0.003723    pred/act E change: -0.233D-04 -0.310D-04
Maxdispl :   0.0521   ||displ|| :   0.0947   Lambda : -0.340D-04
Largest |displ|/coords:  0.0521 (   1)  0.0479 (   4)  0.0286 (   3)
................................................................................
.............................. CYCLE   36 ......................................
................................................................................
   1    -50.7371222 -0.507371E+02  0.485E-02    8.31       0.0  T
   2    -50.7371227 -0.480712E-06  0.365E-02    8.31       1.0  T
   3    -50.7371231 -0.376821E-06  0.382E-03    8.32       5.1  T
   4    -50.7371231 -0.633508E-07  0.125E-03    8.32      15.7  T
   5    -50.7371232 -0.240566E-08  0.486E-04    8.31      40.3  T
   6    -50.7371232 -0.230735E-09  0.248E-04    8.31      79.2  T
speedup  0.97
cpu  time for SCC    0.01 s
wall time for SCC    0.01 s
speedup  0.99
cpu  time for grad    0.01 s
wall time for grad    0.02 s
 E :    -50.44716708  G :  0.002999    pred/act E change: -0.235D-04 -0.213D-04
Maxdispl :   0.0563   ||displ|| :   0.1022   Lambda : -0.245D-04
Largest |displ|/coords:  0.0563 (   1)  0.0484 (   4)  0.0340 (   9)
................................................................................
.............................. CYCLE   37 ......................................
................................................................................
   1    -50.7370110 -0.507370E+02  0.604E-02    8.33       0.0  T
   2    -50.7370117 -0.652944E-06  0.453E-02    8.33       1.0  T
   3    -50.7370122 -0.536779E-06  0.480E-03    8.33       4.1  T
   4    -50.7370123 -0.779952E-07  0.172E-03    8.33      11.4  T
   5    -50.7370123 -0.310765E-08  0.477E-04    8.33      41.1  T
   6    -50.7370123 -0.165336E-09  0.229E-04    8.33      85.5  T
speedup  0.98
cpu  time for SCC    0.01 s
wall time for SCC    0.01 s
speedup  1.00
cpu  time for grad    0.01 s
wall time for grad    0.01 s
 E :    -50.44718106  G :  0.003479    pred/act E change: -0.171D-04 -0.140D-04
Maxdispl :   0.0327   ||displ|| :   0.0553   Lambda : -0.251D-04
Largest |displ|/coords:  0.0327 (   1)  0.0212 (   3)  0.0168 (   9)
................................................................................
.............................. CYCLE   38 ......................................
................................................................................
   1    -50.7377444 -0.507377E+02  0.341E-02    8.35       0.0  T
   2    -50.7377448 -0.406027E-06  0.255E-02    8.35       1.0  T
   3    -50.7377451 -0.229910E-06  0.400E-03    8.35       4.9  T
   4    -50.7377451 -0.606047E-07  0.137E-03    8.35      14.3  T
   5    -50.7377451 -0.206873E-08  0.329E-04    8.35      59.6  T
   6    -50.7377451 -0.901395E-10  0.184E-04    8.35     106.8  T
speedup  0.85
cpu  time for SCC    0.00 s
wall time for SCC    0.01 s
speedup  0.94
cpu  time for grad    0.01 s
wall time for grad    0.01 s
 E :    -50.44719288  G :  0.001886    pred/act E change: -0.124D-04 -0.118D-04
Maxdispl :   0.0351   ||displ|| :   0.0657   Lambda : -0.158D-04
Largest |displ|/coords:  0.0351 (   1)  0.0251 (   9)  0.0226 (   4)
................................................................................
.............................. CYCLE   39 ......................................
................................................................................
   1    -50.7375727 -0.507376E+02  0.405E-02    8.35       0.0  T
   2    -50.7375730 -0.358044E-06  0.304E-02    8.35       1.0  T
   3    -50.7375733 -0.253763E-06  0.368E-03    8.35       5.3  T
   4    -50.7375733 -0.541428E-07  0.130E-03    8.35      15.1  T
   5    -50.7375733 -0.216546E-08  0.391E-04    8.35      50.2  T
   6    -50.7375733 -0.152788E-09  0.202E-04    8.35      97.2  T
speedup  0.86
cpu  time for SCC    0.00 s
wall time for SCC    0.01 s
speedup  0.95
cpu  time for grad    0.01 s
wall time for grad    0.01 s
 E :    -50.44720250  G :  0.001412    pred/act E change: -0.126D-04 -0.962D-05
Maxdispl :   0.0195   ||displ|| :   0.0417   Lambda : -0.829D-05
Largest |displ|/coords:  0.0195 (   1)  0.0147 (   5)  0.0141 (   9)
................................................................................
.............................. CYCLE   40 ......................................
................................................................................
   1    -50.7376091 -0.507376E+02  0.277E-02    8.35       0.0  T
   2    -50.7376093 -0.148390E-06  0.206E-02    8.35       1.0  T
   3    -50.7376094 -0.130692E-06  0.217E-03    8.35       9.0  T
   4    -50.7376094 -0.147535E-07  0.816E-04    8.35      24.0  T
   5    -50.7376094 -0.653905E-09  0.262E-04    8.35      75.0  T
speedup  1.04
cpu  time for SCC    0.00 s
wall time for SCC    0.00 s
speedup  1.02
cpu  time for grad    0.01 s
wall time for grad    0.01 s
 E :    -50.44720794  G :  0.001265    pred/act E change: -0.794D-05 -0.545D-05
Maxdispl :   0.0154   ||displ|| :   0.0346   Lambda : -0.582D-05
Largest |displ|/coords:  0.0154 (   9)  0.0128 (   1)  0.0122 (   3)
................................................................................
.............................. CYCLE   41 ......................................
................................................................................
   1    -50.7376379 -0.507376E+02  0.233E-02    8.34       0.0  T
   2    -50.7376380 -0.119427E-06  0.174E-02    8.34       1.1  T
   3    -50.7376381 -0.109451E-06  0.196E-03    8.34      10.0  T
   4    -50.7376381 -0.115006E-07  0.624E-04    8.34      31.4  T
   5    -50.7376381 -0.563162E-09  0.246E-04    8.34      79.7  T
speedup  1.04
cpu  time for SCC    0.00 s
wall time for SCC    0.00 s
speedup  1.03
cpu  time for grad    0.01 s
wall time for grad    0.01 s
 E :    -50.44721175  G :  0.000974    pred/act E change: -0.415D-05 -0.381D-05
Maxdispl :   0.0171   ||displ|| :   0.0360   Lambda : -0.390D-05
Largest |displ|/coords:  0.0171 (   9)  0.0103 (   3)  0.0103 (   6)
................................................................................
.............................. CYCLE   42 ......................................
................................................................................
   1    -50.7378027 -0.507378E+02  0.241E-02    8.34       0.0  T
   2    -50.7378028 -0.955242E-07  0.181E-02    8.34       1.1  T
   3    -50.7378029 -0.107818E-06  0.175E-03    8.34      11.2  T
   4    -50.7378029 -0.605972E-08  0.497E-04    8.34      39.4  T
   5    -50.7378029 -0.477634E-09  0.228E-04    8.34      86.1  T
speedup  1.06
cpu  time for SCC    0.00 s
wall time for SCC    0.00 s
speedup  1.03
cpu  time for grad    0.01 s
wall time for grad    0.01 s
 E :    -50.44721455  G :  0.000860    pred/act E change: -0.291D-05 -0.280D-05
Maxdispl :   0.0202   ||displ|| :   0.0401   Lambda : -0.342D-05
Largest |displ|/coords:  0.0202 (   9)  0.0128 (   3)  0.0111 (  12)
................................................................................
.............................. CYCLE   43 ......................................
................................................................................
   1    -50.7378637 -0.507379E+02  0.248E-02    8.34       0.0  T
   2    -50.7378638 -0.107481E-06  0.185E-02    8.34       1.1  T
   3    -50.7378639 -0.121023E-06  0.182E-03    8.34      10.8  T
   4    -50.7378639 -0.617835E-08  0.667E-04    8.34      29.4  T
   5    -50.7378639 -0.520949E-09  0.225E-04    8.34      87.3  T
speedup  1.02
cpu  time for SCC    0.00 s
wall time for SCC    0.00 s
speedup  1.01
cpu  time for grad    0.01 s
wall time for grad    0.01 s
 E :    -50.44721677  G :  0.000636    pred/act E change: -0.195D-05 -0.221D-05
Maxdispl :   0.0142   ||displ|| :   0.0280   Lambda : -0.193D-05
Largest |displ|/coords:  0.0142 (   9)  0.0116 (   4)  0.0092 (   6)
................................................................................
.............................. CYCLE   44 ......................................
................................................................................
   1    -50.7381029 -0.507381E+02  0.129E-02    8.34       0.0  T
   2    -50.7381030 -0.370663E-07  0.974E-03    8.34       2.0  T
   3    -50.7381030 -0.302305E-07  0.113E-03    8.34      17.4  T
   4    -50.7381030 -0.508404E-08  0.484E-04    8.34      40.5  T
   5    -50.7381030 -0.234429E-09  0.129E-04    8.34     152.0  T
speedup  1.02
cpu  time for SCC    0.00 s
wall time for SCC    0.00 s
speedup  1.02
cpu  time for grad    0.01 s
wall time for grad    0.01 s
 E :    -50.44721795  G :  0.000545    pred/act E change: -0.171D-05 -0.119D-05
Maxdispl :   0.0146   ||displ|| :   0.0269   Lambda : -0.142D-05
Largest |displ|/coords:  0.0146 (   9)  0.0106 (   3)  0.0085 (   5)
................................................................................
.............................. CYCLE   45 ......................................
................................................................................
   1    -50.7380580 -0.507381E+02  0.142E-02    8.34       0.0  T
   2    -50.7380580 -0.341207E-07  0.106E-02    8.34       1.8  T
   3    -50.7380581 -0.327969E-07  0.113E-03    8.34      17.4  T
   4    -50.7380581 -0.300250E-08  0.433E-04    8.34      45.3  T
   5    -50.7380581 -0.197225E-09  0.128E-04    8.34     153.5  T
speedup  1.04
cpu  time for SCC    0.00 s
wall time for SCC    0.00 s
speedup  1.02
cpu  time for grad    0.01 s
wall time for grad    0.01 s
 E :    -50.44721888  G :  0.000429    pred/act E change: -0.965D-06 -0.923D-06
Maxdispl :   0.0107   ||displ|| :   0.0211   Lambda : -0.107D-05
Largest |displ|/coords:  0.0107 (   4)  0.0074 (   1)  0.0071 (   9)
................................................................................
.............................. CYCLE   46 ......................................
................................................................................
   1    -50.7381598 -0.507382E+02  0.970E-03    8.34       0.0  T
   2    -50.7381598 -0.141600E-07  0.725E-03    8.34       2.7  T
   3    -50.7381598 -0.927012E-08  0.865E-04    8.34      22.7  T
   4    -50.7381598 -0.195128E-08  0.258E-04    8.34      75.9  T
speedup  1.00
cpu  time for SCC    0.00 s
wall time for SCC    0.00 s
speedup  1.01
cpu  time for grad    0.01 s
wall time for grad    0.01 s
 E :    -50.44721957  G :  0.000417    pred/act E change: -0.712D-06 -0.697D-06
Maxdispl :   0.0105   ||displ|| :   0.0210   Lambda : -0.769D-06
Largest |displ|/coords:  0.0105 (   3)  0.0103 (   9)  0.0072 (   2)
................................................................................
.............................. CYCLE   47 ......................................
................................................................................
   1    -50.7381031 -0.507381E+02  0.110E-02    8.34       0.0  T
   2    -50.7381031 -0.169302E-07  0.823E-03    8.34       2.4  T
   3    -50.7381031 -0.120912E-07  0.112E-03    8.34      17.5  T
   4    -50.7381031 -0.248695E-08  0.265E-04    8.34      74.0  T
   5    -50.7381031 -0.900542E-10  0.841E-05    8.34     233.1  T
speedup  1.00
cpu  time for SCC    0.00 s
wall time for SCC    0.01 s
speedup  1.00
cpu  time for grad    0.01 s
wall time for grad    0.01 s
 E :    -50.44722008  G :  0.000311    pred/act E change: -0.534D-06 -0.502D-06
Maxdispl :   0.0078   ||displ|| :   0.0175   Lambda : -0.525D-06
Largest |displ|/coords:  0.0078 (   4)  0.0077 (   3)  0.0067 (   2)
................................................................................
.............................. CYCLE   48 ......................................
................................................................................
   1    -50.7381063 -0.507381E+02  0.842E-03    8.34       0.0  T
   2    -50.7381063 -0.684849E-08  0.629E-03    8.34       3.1  T
   3    -50.7381063 -0.616191E-08  0.691E-04    8.34      28.4  T
   4    -50.7381063 -0.709612E-09  0.180E-04    8.34     108.9  T
speedup  1.00
cpu  time for SCC    0.00 s
wall time for SCC    0.00 s
speedup  1.01
cpu  time for grad    0.01 s
wall time for grad    0.01 s
 E :    -50.44722045  G :  0.000299    pred/act E change: -0.385D-06 -0.376D-06
Maxdispl :   0.0117   ||displ|| :   0.0213   Lambda : -0.495D-06
Largest |displ|/coords:  0.0117 (   3)  0.0081 (   2)  0.0075 (   4)
................................................................................
.............................. CYCLE   49 ......................................
................................................................................
   1    -50.7380729 -0.507381E+02  0.103E-02    8.34       0.0  T
   2    -50.7380729 -0.112125E-07  0.776E-03    8.34       2.5  T
   3    -50.7380729 -0.115198E-07  0.756E-04    8.34      25.9  T
   4    -50.7380729 -0.103457E-08  0.226E-04    8.34      87.0  T
speedup  1.00
cpu  time for SCC    0.00 s
wall time for SCC    0.00 s
speedup  0.98
cpu  time for grad    0.01 s
wall time for grad    0.01 s
 E :    -50.44722081  G :  0.000302    pred/act E change: -0.263D-06 -0.362D-06
Maxdispl :   0.0124   ||displ|| :   0.0205   Lambda : -0.390D-06
Largest |displ|/coords:  0.0124 (   3)  0.0074 (   2)  0.0069 (   4)
................................................................................
.............................. CYCLE   50 ......................................
................................................................................
   1    -50.7380472 -0.507380E+02  0.995E-03    8.35       0.0  T
   2    -50.7380472 -0.106304E-07  0.747E-03    8.35       2.6  T
   3    -50.7380472 -0.113555E-07  0.680E-04    8.35      28.9  T
   4    -50.7380472 -0.901814E-09  0.216E-04    8.35      90.7  T
speedup  1.00
cpu  time for SCC    0.00 s
wall time for SCC    0.00 s
speedup  1.00
cpu  time for grad    0.01 s
wall time for grad    0.01 s
 E :    -50.44722111  G :  0.000275    pred/act E change: -0.248D-06 -0.291D-06
Maxdispl :   0.0116   ||displ|| :   0.0165   Lambda : -0.303D-06
Largest |displ|/coords:  0.0116 (   3)  0.0049 (   2)  0.0048 (   5)
................................................................................
.............................. CYCLE   51 ......................................
................................................................................
   1    -50.7380240 -0.507380E+02  0.804E-03    8.35       0.0  T
   2    -50.7380240 -0.713110E-08  0.604E-03    8.35       3.2  T
   3    -50.7380240 -0.762562E-08  0.530E-04    8.35      37.0  T
   4    -50.7380240 -0.608395E-09  0.178E-04    8.35     110.1  T
speedup  1.00
cpu  time for SCC    0.00 s
wall time for SCC    0.00 s
speedup  0.99
cpu  time for grad    0.01 s
wall time for grad    0.01 s
 E :    -50.44722134  G :  0.000220    pred/act E change: -0.195D-06 -0.235D-06
Maxdispl :   0.0166   ||displ|| :   0.0227   Lambda : -0.317D-06
Largest |displ|/coords:  0.0166 (   3)  0.0068 (   5)  0.0064 (   1)
................................................................................
.............................. CYCLE   52 ......................................
................................................................................
   1    -50.7380002 -0.507380E+02  0.108E-02    8.35       0.0  T
   2    -50.7380002 -0.113816E-07  0.814E-03    8.35       2.4  T
   3    -50.7380002 -0.126637E-07  0.627E-04    8.35      31.3  T
   4    -50.7380002 -0.899725E-09  0.241E-04    8.35      81.5  T
speedup  1.00
cpu  time for SCC    0.00 s
wall time for SCC    0.00 s
speedup  1.00
cpu  time for grad    0.01 s
wall time for grad    0.01 s
 E :    -50.44722157  G :  0.000215    pred/act E change: -0.158D-06 -0.230D-06
Maxdispl :   0.0131   ||displ|| :   0.0169   Lambda : -0.227D-06
Largest |displ|/coords:  0.0131 (   3)  0.0062 (   1)  0.0048 (   5)

generating ANC from model Hessian ...
 Shifting diagonal of input Hessian by   4.854239850218678E-003
 Lowest  eigenvalues of input Hessian
   -0.000000   -0.000000    0.000000    0.000000    0.000000    0.000000
    0.005000    0.005113    0.005334    0.005663    0.006024    0.006307
    0.006441    0.006465    0.007003    0.008282    0.008826    0.009491
 Highest eigenvalues
    1.398286    1.414670    1.417497    2.676817    3.238375    3.821800
 
cpu  time for ANC gen    0.02 s
wall time for ANC gen    0.02 s
................................................................................
.............................. CYCLE   53 ......................................
................................................................................
   1    -50.7380016 -0.507380E+02  0.743E-03    8.35       0.0  T
   2    -50.7380016 -0.529764E-08  0.559E-03    8.35       3.5  T
   3    -50.7380016 -0.550670E-08  0.434E-04    8.35      45.1  T
   4    -50.7380016 -0.438106E-09  0.168E-04    8.35     116.7  T
speedup  0.95
cpu  time for SCC    0.00 s
wall time for SCC    0.00 s
speedup  1.00
cpu  time for grad    0.01 s
wall time for grad    0.01 s
 E :    -50.44722175  G :  0.000215    pred/act E change:  0.000D+00 -0.184D-06
Maxdispl :   0.0023   ||displ|| :   0.0031   Lambda : -0.140D-06
Largest |displ|/coords:  0.0023 (   3)  0.0008 (  12)  0.0007 (  15)
................................................................................
.............................. CYCLE   54 ......................................
................................................................................
   1    -50.7380167 -0.507380E+02  0.197E-03    8.35       0.0  T
   2    -50.7380167 -0.876014E-09  0.146E-03    8.35      13.4  T
   3    -50.7380167 -0.783992E-09  0.203E-04    8.35      96.6  T
   4    -50.7380167 -0.988933E-10  0.587E-05    8.35     334.2  T
speedup  0.98
cpu  time for SCC    0.00 s
wall time for SCC    0.00 s
speedup  0.99
cpu  time for grad    0.01 s
wall time for grad    0.01 s
 E :    -50.44722187  G :  0.000135    pred/act E change:  0.000D+00 -0.118D-06
Maxdispl :   0.0075   ||displ|| :   0.0100   Lambda : -0.310D-06
Largest |displ|/coords:  0.0075 (   3)  0.0029 (   7)  0.0023 (   8)
................................................................................
.............................. CYCLE   55 ......................................
................................................................................
   1    -50.7380491 -0.507380E+02  0.591E-03    8.35       0.0  T
   2    -50.7380491 -0.618228E-08  0.441E-03    8.35       4.4  T
   3    -50.7380491 -0.587495E-08  0.549E-04    8.35      35.7  T
   4    -50.7380491 -0.611124E-09  0.152E-04    8.35     129.3  T
speedup  1.00
cpu  time for SCC    0.00 s
wall time for SCC    0.00 s
speedup  1.00
cpu  time for grad    0.01 s
wall time for grad    0.01 s
 E :    -50.44722206  G :  0.000137    pred/act E change: -0.700D-07 -0.190D-06
Maxdispl :   0.0055   ||displ|| :   0.0068   Lambda : -0.109D-06
Largest |displ|/coords:  0.0055 (   3)  0.0020 (   7)  0.0013 (   8)
................................................................................
.............................. CYCLE   56 ......................................
................................................................................
   1    -50.7380546 -0.507381E+02  0.341E-03    8.35       0.0  T
   2    -50.7380546 -0.111306E-08  0.255E-03    8.35       7.7  T
   3    -50.7380546 -0.122467E-08  0.245E-04    8.35      80.2  T
   4    -50.7380546 -0.748699E-10  0.553E-05    8.35     354.9  T
speedup  1.00
cpu  time for SCC    0.00 s
wall time for SCC    0.00 s
speedup  0.99
cpu  time for grad    0.01 s
wall time for grad    0.01 s
 E :    -50.44722213  G :  0.000139    pred/act E change: -0.155D-06 -0.682D-07
Maxdispl :   0.0101   ||displ|| :   0.0136   Lambda : -0.187D-06
Largest |displ|/coords:  0.0101 (   3)  0.0050 (   7)  0.0035 (   4)

   *** GEOMETRY OPTIMIZATION CONVERGED AFTER 56 ITERATIONS ***

------------------------------------------------------------------------
 total energy gain (kcal):     -0.0002
------------------------------------------------------------------------
================
 final structure:
================
$coord
        2.55010847076911        0.74088726018244       -2.71903319779856      S 
        0.44519051539995        0.99960899203977       -4.67726280307218      O 
        1.82557754928632        2.12119213970266       -0.46033778735029      O 
        2.55708385277136       -2.12477579849495       -2.02986773376540      O 
        4.93941963507146        1.36715828706500       -3.74315082421784      O 
       -4.09080720077185       -0.50071923200403        1.63280258914680      O 
       -5.49630132215237       -0.22162377267990        2.73835469179141      H 
       -0.87717815202213        6.39592577736168       -0.67739604330426      O 
        0.32152691493003        5.03602852758366       -0.33575913996359      H 
       -0.02544882046937        7.57294584612139       -1.75857624954587      H 
       -1.96180657263201       -3.87236184550363       -1.47065289699640      O 
       -2.95579050023307       -2.71308356585358       -0.42546239500547      H 
        0.77513838304616       -2.74711745339383       -1.91611625698451      H 
       -1.88517190591233       -5.44655193689392       -0.57529303800067      H 
       -3.52141559807594        2.50117860276625       -2.54938515490428      O 
       -3.85411788990026        1.45211564072561       -1.06713416406720      H 
       -2.93777010743022        4.13487796968643       -1.89421356718845      H 
       -1.25334025795292        1.55034899989887       -3.85359108226106      H 
        0.14799465168168        0.16491683800681        3.93574220501003      O 
        0.91131799901067        1.15971269951042        2.58995680921306      H 
       -2.51642411701971       -0.20080096221746        2.65948953511753      H 
        1.18787092916314       -1.36671016608515        4.02069778301938      H 
        3.50672626183599       -3.75516800548053        3.33175551576109      N 
        3.70662982372756       -3.46063794709762        1.44444694443675      H 
        3.38792320894493       -5.64231195662997        3.62516922973517      H 
        5.11306426783131       -3.14503490052253        4.17481701229465      H 
$end
 
 Bond Distances (Angstroems)
 ---------------------------
S1-O2=1.5275         S1-O3=1.4523         S1-O4=1.5597         S1-O5=1.4150         O2-S1=1.5275         O2-H18=1.0406        
O3-S1=1.4523         O4-S1=1.5597         O4-H13=1.0006        O5-S1=1.4150         O6-H7=0.9577         O6-H21=1.0072        
H7-O6=0.9577         O8-H9=0.9762         O8-H10=0.9583        H9-O8=0.9762         H10-O8=0.9583        O11-H12=0.9792       
O11-H14=0.9592       H12-O11=0.9792       H13-O4=1.0006        H14-O11=0.9592       O15-H16=0.9769       O15-H17=0.9813       
H16-O15=0.9769       H17-O15=0.9813       H18-O2=1.0406        O19-H20=0.9734       O19-H22=0.9807       H20-O19=0.9734       
H21-O6=1.0072        H22-O19=0.9807       N23-H24=1.0163       N23-H25=1.0126       N23-H26=1.0128       H24-N23=1.0163       
H25-N23=1.0126       H26-N23=1.0128       
 N  H  Rav=1.0139 sigma=0.0017  Rmin=1.0126  Rmax=1.0163     3
 O  H  Rav=0.9826 sigma=0.0228  Rmin=0.9577  Rmax=1.0406    12
 S  O  Rav=1.4886 sigma=0.0577  Rmin=1.4150  Rmax=1.5597     4
 
 selected bond angles (degree)
 --------------------
O3-S1-O2=108.71                O4-S1-O2=104.33                O4-S1-O3=107.29                O5-S1-O2=111.76                
O5-S1-O3=115.68                O5-S1-O4=108.37                H18-O2-S1=111.77               H13-O4-S1=109.38               
H21-O6-H7=106.77               H10-O8-H9=106.50               
 
 selected dihedral angles (degree)
 ---------------------------------
H18-O2-S1-O3=341.17           H18-O2-S1-O4= 95.40           H18-O2-S1-O5=212.28           H13-O4-S1-O2=319.89           
H13-O4-S1-O3= 75.11           H13-O4-S1-O5=200.67           
 
 CMA Distance (Angstroems)
 ---------------------------
R(CMA):  2.6164

========================================================================
 FINAL SINGLEPOINT CALCULATION ON OPTIMIZED GEOMETRY
========================================================================

 Ncao       : 65
 Nao        : 64
 Nshell     : 38
 Nel        : 80
 T(el)      :   300.0
 intcut     :    25.0
 scfconv/Eh :  0.100E-05
   qconv/e  :  0.100E-03
 intneglect :  0.100E-07
 broydamp   :      0.250
 iter      E             dE          RMSdq      gap      omega  full diag
   1    -50.7380546 -0.507381E+02  0.224E-05    8.35       0.0  T
   2    -50.7380546 -0.312639E-12  0.146E-05    8.35    1339.8  T
   3    -50.7380546 -0.206057E-12  0.383E-06    8.35    5114.6  T
speedup  0.97
cpu  time for SCC    0.00 s
wall time for SCC    0.00 s

   *** convergence criteria satisfied after 3 iterations ***

          eigenvalues
 #    :          28         29         30         31         32         33         34         35
 occ. :        2.000      2.000      2.000      2.000      2.000      2.000      2.000      2.000
 eps  :       -13.699    -13.419    -13.075    -12.938    -12.719    -12.573    -12.543    -12.448
 #    :          36         37         38         39         40         41         42         43
 occ. :        2.000      2.000      2.000      2.000      2.000      0.000      0.000      0.000
 eps  :       -12.220    -12.104    -12.068    -11.895    -11.297     -2.945     -0.918     -0.406
 #    :          44         45         46         47         48         49         50         51
 occ. :        0.000      0.000      0.000      0.000      0.000      0.000      0.000      0.000
 eps  :        -0.058      0.771      0.960      1.576      2.590      3.835      4.497      5.167


   #   Z            q   n(s)   n(p)   n(d)      C6AA      α(0)
   1  16 S      1.684  1.573  1.789  0.954    89.130    15.890
   2   8 O     -0.622  1.760  4.861  0.000    25.685     6.841
   3   8 O     -0.734  1.759  4.974  0.000    29.643     7.300
   4   8 O     -0.621  1.756  4.866  0.000    25.677     6.841
   5   8 O     -0.640  1.750  4.890  0.000    27.110     6.981
   6   8 O     -0.645  1.753  4.892  0.000    26.300     6.921
   7   1 H      0.290  0.710  0.000  0.000     0.752     1.362
   8   8 O     -0.604  1.742  4.862  0.000    25.272     6.785
   9   1 H      0.325  0.675  0.000  0.000     0.651     1.268
  10   1 H      0.287  0.713  0.000  0.000     0.762     1.371
  11   8 O     -0.602  1.750  4.852  0.000    25.228     6.779
  12   1 H      0.346  0.654  0.000  0.000     0.598     1.215
  13   1 H      0.389  0.611  0.000  0.000     0.502     1.112
  14   1 H      0.299  0.701  0.000  0.000     0.722     1.335
  15   8 O     -0.613  1.761  4.852  0.000    25.486     6.815
  16   1 H      0.332  0.668  0.000  0.000     0.632     1.249
  17   1 H      0.338  0.662  0.000  0.000     0.618     1.235
  18   1 H      0.399  0.601  0.000  0.000     0.482     1.089
  19   8 O     -0.623  1.752  4.871  0.000    25.731     6.846
  20   1 H      0.320  0.680  0.000  0.000     0.664     1.280
  21   1 H      0.346  0.654  0.000  0.000     0.597     1.214
  22   1 H      0.313  0.687  0.000  0.000     0.683     1.299
  23   7 N     -0.452  1.374  4.078  0.000    31.890     8.387
  24   1 H      0.179  0.821  0.000  0.000     1.221     1.731
  25   1 H      0.151  0.849  0.000  0.000     1.392     1.848
  26   1 H      0.156  0.844  0.000  0.000     1.360     1.827

 Mol. C6AA /au·bohr⁶  :       5454.244402
 Mol. C8AA /au·bohr⁸  :     117758.047557
 Mol. α(0) /au        :        106.818968

 
 Wiberg/Mayer (AO) data. WBOs > 0.1 written file <wbo>
 largest (>0.05) Wiberg bond orders for each atom
           total WBO             WBO to atom ...
     1  S   4.880    O    5 1.518    O    3 1.314    O    2 1.042    O    4 0.964
     2  O   1.973    S    1 1.042    H   18 0.633    O    3 0.091    O    5 0.082    O    4 0.065    O   15 0.055
     3  O   1.726    S    1 1.314    O    5 0.120    O    2 0.091    O    4 0.082
     4  O   1.972    S    1 0.964    H   13 0.715    O    3 0.082    O    5 0.077    O    2 0.065
     5  O   1.821    S    1 1.518    O    3 0.120    O    2 0.082    O    4 0.077
     6  O   1.868    H    7 0.905    H   21 0.764    H   12 0.054    H   16 0.051
     7  H   0.916    O    6 0.905
     8  O   1.869    H   10 0.914    H    9 0.846    H   17 0.057
     9  H   0.895    O    8 0.846
    10  H   0.918    O    8 0.914
    11  O   1.919    H   14 0.908    H   12 0.822    H   13 0.116
    12  H   0.880    O   11 0.822    O    6 0.054
    13  H   0.849    O    4 0.715    O   11 0.116
    14  H   0.910    O   11 0.908
    15  O   1.972    H   16 0.835    H   17 0.827    H   18 0.189    O    2 0.055
    16  H   0.890    O   15 0.835    O    6 0.051
    17  H   0.886    O   15 0.827    O    8 0.057
    18  H   0.840    O    2 0.633    O   15 0.189
    19  O   1.910    H   20 0.855    H   22 0.837    H   21 0.113
    20  H   0.898    O   19 0.855
    21  H   0.880    O    6 0.764    O   19 0.113
    22  H   0.902    O   19 0.837    N   23 0.061
    23  N   3.001    H   26 0.974    H   25 0.973    H   24 0.951    H   22 0.061
    24  H   0.968    N   23 0.951
    25  H   0.977    N   23 0.973
    26  H   0.976    N   23 0.974
 MOs/occ written to file <molden.input>
 
molecular dipole:
                 x           y           z       tot (Debye)
 q only:       -1.029      -1.116       1.217
   full:       -0.638      -1.484       1.411       5.453
molecular quadrupole (traceless):
                xx          xy          yy          xz          yz          zz
 q only:       -3.822      -0.945      11.467       5.097      -5.975      -7.644
  q+dip:       -2.745      -1.749      14.512       4.344      -8.059     -11.768
   full:       -2.793      -1.737      14.840       4.284      -8.507     -12.047

SCC energy    :     -50.7380546
rep           :       0.2904849
ES            :       0.2322027
AES           :      -0.0501636
AXC           :      -0.0066779
disp          :      -0.0188057
XB            :       0.0000000
fix           :       0.0000000
total E       :     -50.4472221
atomizationE  :       4.9775263     3123.44
(atE without considering molecular charge,
 total energy contains solvation terms)
H-L gap (eV)  :          8.3517
optimized geometry written to: xtbopt.xyz


------------------------------------------------------------------------
 * finished run on 2019/09/16 at 11:43:24.864     
------------------------------------------------------------------------
 total:
 * wall-time:     0 d,  0 h,  0 min,  1.566 sec
 *  cpu-time:     0 d,  0 h,  0 min,  1.547 sec
 * ratio c/w:     0.988 speedup
 SCF:
 * wall-time:     0 d,  0 h,  0 min,  0.153 sec
 *  cpu-time:     0 d,  0 h,  0 min,  0.148 sec
 * ratio c/w:     0.970 speedup
 ANC optimizer:
 * wall-time:     0 d,  0 h,  0 min,  1.386 sec
 *  cpu-time:     0 d,  0 h,  0 min,  1.371 sec
 * ratio c/w:     0.989 speedup

