      -----------------------------------------------------------      
     |                   =====================                   |     
     |                           x T B                           |     
     |                   =====================                   |     
     |                         S. Grimme                         |     
     |          Mulliken Center for Theoretical Chemistry        |     
     |                    University of Bonn                     |     
     |                 Version 6.0.1 (SAW181210)                 |     
      -----------------------------------------------------------      

   This program is distributed in the hope that it will be useful,
   but WITHOUT ANY WARRANTY; without even the implied warranty of
   MERCHANTABILITY or FITNESS FOR A PARTICULAR PURPOSE.
   
   FOR NON-COMMERCIAL, ACADEMIA USE ONLY.
   
   Cite this work as:
   S. Grimme, C. Bannwarth, P. Shushkov, J. Comput. Theory Chem., 2017,
   13, 1989-2009.
   C. Bannwarth, S. Ehlert and S. Grimme., ChemRxiv, 2018, preprint.
   http://doi.org/10.26434/chemrxiv.7246238.v1
   
   for sTDA-xTB:
   S. Grimme and C. Bannwarth, J. Chem. Phys., 2016, 145, 054103.
   
   in the mass-spec context:
   V. Asgeirsson, C. Bauer and S. Grimme, Chem. Sci., 2017, 8, 4879.
   
   if GBSA is used:
   P. Shushkov, F. März and S. Grimme, unpublished.
   
   for ANC optimizer:
   S. Grimme, unpublished.
   Rational Function algorithm used in ANCopt:
   F. Eckert, P. Pulay, H.-J. Werner, J. Comput. Chem., 1997, 18, 1473.
   
   with help from (in alphabetical order)
   C. Bannwarth, F. Bohle, G. Brandenburg, E. Caldeweyher, M. Checinski,
   S. Dohm, S. Ehlert, S. Ehrlich, F. März, H. Neugebauer, J. Pisarek,
   P. Pracht, P. Shushkov, and S. Spicher.
   
 * started run on 2019/09/16 at 12:11:36.501     
========================================================================
 # omp threads = 1
========================================================================
number of atoms            : 26
number of electrons        : 80
charge                     : 0
spin                       : .0
first test random number   : .9648

########################################################################
# WARNING! Please study the warnings concerning your input carefully
#  - XTBPATH is not set, using XTBHOME instead
#  - the use of '-opt' is discouraged, please use '--opt' next time
#  - the use of '-chrg' is discouraged, please use '--chrg' next time
#  - the use of '-uhf' is discouraged, please use '--uhf' next time
########################################################################

           ------------------------------------------------- 
          |                 G F N 2 - x T B                 |
          | Geometry, Frequencies, Noncovalent interactions |
          |            JCTC 2018 parametrisation            |
           ------------------------------------------------- 
      method parameters     
 k(s)        :  1.8500
 k(p)        :  2.2300
 k(d)        :  2.2300
 k(f)        :  2.0000
 kEN (H0ij)  : -2.0000
 D4 a1       :  0.5200
 D4 a2       :  5.0000
 D4 s6       :  1.0000
 D4 s8       :  2.7000
 D4 s9       :  5.0000
 alphaj      :  2.0000


            Z     q(EN)     CN     RAES       Cart. coordinates
     1  S   6.0    0.68    4.09    3.85     2.84553     0.82629     2.01927
     2  O   6.0   -0.32    1.22    1.80     4.10626    -0.39603    -0.18178
     3  O   6.0   -0.33    1.25    1.80     0.63748    -0.72758     2.81811
     4  O   6.0   -0.26    1.11    1.80     4.67145     1.02934     4.15303
     5  O   6.0   -0.33    1.28    1.80     1.96692     3.39942     1.28772
     6  O   6.0   -0.40    1.69    1.81    -1.60585    -0.04034    -3.46439
     7  H   1.0    0.17    0.95    1.42    -2.76890    -0.21179    -4.91410
     8  O   6.0   -0.29    2.04    1.83    -2.49568     5.66473     1.80707
     9  H   1.0    0.17    1.04    1.43    -0.73496     5.20667     1.87556
    10  H   1.0    0.15    0.97    1.43    -2.62010     7.23625     2.71782
    11  O   6.0   -0.23    2.92    2.60    -3.39717     0.97674     0.64106
    12  H   1.0    0.16    1.17    1.46    -2.94753     0.60345    -1.13329
    13  H   1.0    0.15    1.06    1.44    -2.24588     0.13452     1.84738
    14  H   1.0    0.14    1.04    1.43    -3.52073     2.81382     0.95945
    15  O   6.0   -0.22    2.92    2.58     1.80346     3.02490    -3.61830
    16  H   1.0    0.13    0.96    1.43     3.39919     2.20331    -4.13648
    17  H   1.0    0.16    1.17    1.46     0.33607     1.88345    -3.80237
    18  H   1.0    0.15    1.07    1.44     1.91529     3.74750    -1.89876
    19  O   6.0   -0.23    2.93    2.60     0.99815    -3.59814    -2.17005
    20  H   1.0    0.15    1.07    1.44     2.56123    -2.78325    -1.55152
    21  H   1.0    0.12    1.06    1.44     0.21437    -4.68706    -0.87006
    22  H   1.0    0.16    1.17    1.46    -0.21229    -2.35413    -2.86198
    23  N   5.0   -0.22    3.04    1.93    -0.71047    -5.97107     2.05579
    24  H   1.0    0.11    0.99    1.43     0.48917    -7.28003     2.80315
    25  H   1.0    0.11    0.99    1.43    -2.45567    -6.40700     2.74523
    26  H   1.0    0.13    1.02    1.43    -0.22933    -4.29397     2.87242

  Z AO/shell   Hii/eV     exponent
  1     Wed Apr 25 08:07:45 CEST 2018   EN: 2.200 GM2: 0.406  GM3: 0.0800  RAES: 1.40
     1s    -10.707211    1.230000
  7     Wed Apr 25 08:07:45 CEST 2018   EN: 3.040 GM2: 0.461  GM3:-0.0640  RAES: 1.90
     2s    -16.686243    2.339881
     2p    -12.523956    2.014332
  8     Wed Apr 25 08:07:45 CEST 2018   EN: 3.440 GM2: 0.452  GM3:-0.0517  RAES: 1.80
     2s    -20.229985    2.439742
     2p    -15.503117    2.137023
 16     Tue Apr 24 11:44:34 CEST 2018   EN: 2.580 GM2: 0.340  GM3:-0.0502  RAES: 3.10
     3s    -20.029654    1.981333
     3p    -11.377694    2.025643
     3d     -0.420282    1.702555
 no old-style atom pair restraining (fixing) potential

molecular fragmentation (1/2 indicates fragments):
11111222222222222222222222
# atoms in fragment 1/2:     5    21
 fragment masses (1/2) :       96.06      109.12
CMA distance (Bohr)    :   4.707
constraining FC (au)   :  0.0500
           ------------------------------------------------- 
          |        Self-Consistent Charge Iterations        |
           ------------------------------------------------- 

 Ncao       : 65
 Nao        : 64
 Nshell     : 38
 Nel        : 80
 T(el)      :   300.0
 intcut     :    25.0
 scfconv/Eh :  0.100E-05
   qconv/e  :  0.100E-03
 intneglect :  0.100E-07
 broydamp   :      0.250
 iter      E             dE          RMSdq      gap      omega  full diag
   1    -50.5456899 -0.505457E+02  0.697E+00   10.18       0.0  T
   2    -50.5860907 -0.404008E-01  0.501E+00    9.62       1.0  T
   3    -50.6185553 -0.324646E-01  0.115E+00    6.77       1.0  T
   4    -50.6233863 -0.483099E-02  0.477E-01    6.95       1.0  T
   5    -50.6237280 -0.341676E-03  0.299E-01    6.74       1.0  T
   6    -50.6241473 -0.419266E-03  0.128E-01    6.77       1.0  T
   7    -50.6242435 -0.962010E-04  0.527E-02    6.86       1.0  T
   8    -50.6242564 -0.129941E-04  0.317E-02    6.87       1.0  T
   9    -50.6242623 -0.581452E-05  0.126E-02    6.86       1.6  T
  10    -50.6242631 -0.883754E-06  0.223E-03    6.86       8.8  T
  11    -50.6242632 -0.224988E-07  0.868E-04    6.86      22.6  T
  12    -50.6242632 -0.208352E-08  0.407E-04    6.86      48.2  T
speedup  0.97
cpu  time for SCC    0.01 s
wall time for SCC    0.01 s

   *** convergence criteria satisfied after 12 iterations ***

          eigenvalues
 #    :          28         29         30         31         32         33         34         35
 occ. :        2.000      2.000      2.000      2.000      2.000      2.000      2.000      2.000
 eps  :       -12.193    -11.971    -11.898    -11.831    -11.376    -10.729    -10.660    -10.048
 #    :          36         37         38         39         40         41         42         43
 occ. :        2.000      2.000      2.000      2.000      2.000      0.000      0.000      0.000
 eps  :       -10.007     -9.864     -9.458     -8.647     -8.617     -1.757     -0.253      0.184
 #    :          44         45         46         47         48         49         50         51
 occ. :        0.000      0.000      0.000      0.000      0.000      0.000      0.000      0.000
 eps  :         0.569      1.833      2.229      2.673      2.963      3.673      4.306      5.042


   #   Z            q   n(s)   n(p)   n(d)      C6AA      α(0)
   1  16 S      1.476  1.607  1.915  1.003    94.050    16.322
   2   8 O     -0.802  1.776  5.027  0.000    31.656     7.543
   3   8 O     -0.801  1.773  5.028  0.000    31.621     7.539
   4   8 O     -0.750  1.795  4.956  0.000    30.121     7.358
   5   8 O     -0.805  1.775  5.029  0.000    31.729     7.552
   6   8 O     -0.833  1.825  5.008  0.000    32.549     7.651
   7   1 H      0.222  0.778  0.000  0.000     1.010     1.579
   8   8 O     -0.623  1.729  4.893  0.000    25.732     6.846
   9   1 H      0.338  0.662  0.000  0.000     0.616     1.233
  10   1 H      0.288  0.712  0.000  0.000     0.758     1.368
  11   8 O     -0.455  1.655  4.799  0.000    21.884     6.318
  12   1 H      0.398  0.602  0.000  0.000     0.484     1.091
  13   1 H      0.401  0.599  0.000  0.000     0.482     1.091
  14   1 H      0.400  0.600  0.000  0.000     0.485     1.094
  15   8 O     -0.421  1.647  4.774  0.000    21.201     6.219
  16   1 H      0.381  0.619  0.000  0.000     0.522     1.135
  17   1 H      0.407  0.593  0.000  0.000     0.468     1.072
  18   1 H      0.409  0.591  0.000  0.000     0.469     1.076
  19   8 O     -0.454  1.652  4.802  0.000    21.863     6.315
  20   1 H      0.400  0.600  0.000  0.000     0.484     1.093
  21   1 H      0.381  0.619  0.000  0.000     0.520     1.133
  22   1 H      0.397  0.603  0.000  0.000     0.486     1.093
  23   7 N     -0.464  1.383  4.081  0.000    32.244     8.433
  24   1 H      0.152  0.848  0.000  0.000     1.386     1.844
  25   1 H      0.148  0.852  0.000  0.000     1.416     1.864
  26   1 H      0.208  0.792  0.000  0.000     1.064     1.616

 Mol. C6AA /au·bohr⁶  :       5548.446028
 Mol. C8AA /au·bohr⁸  :     120633.699931
 Mol. α(0) /au        :        107.478797

 
 Wiberg/Mayer (AO) data. WBOs > 0.1 written file <wbo>
 largest (>0.05) Wiberg bond orders for each atom
           total WBO             WBO to atom ...
     1  S   5.022    O    4 1.366    O    2 1.226    O    3 1.208    O    5 1.188
     2  O   1.663    S    1 1.226    H   20 0.104    O    4 0.099    O    3 0.093    O    5 0.087
     3  O   1.672    S    1 1.208    H   13 0.102    O    4 0.096    O    2 0.093    O    5 0.088
     4  O   1.671    S    1 1.366    O    2 0.099    O    3 0.096    O    5 0.094
     5  O   1.683    S    1 1.188    H   18 0.104    O    4 0.094    O    3 0.088    O    2 0.087    H    9 0.055
     6  O   1.670    H    7 0.944    H   17 0.186    H   12 0.174    H   22 0.171    O   15 0.060    O   11 0.058    O   19 0.057
     7  H   0.950    O    6 0.944
     8  O   1.849    H   10 0.904    H    9 0.826    H   14 0.067
     9  H   0.886    O    8 0.826    O    5 0.055
    10  H   0.917    O    8 0.904
    11  O   2.290    H   14 0.765    H   13 0.727    H   12 0.664    O    6 0.058
    12  H   0.842    O   11 0.664    O    6 0.174
    13  H   0.839    O   11 0.727    O    3 0.102
    14  H   0.840    O   11 0.765    O    8 0.067
    15  O   2.313    H   16 0.843    H   18 0.720    H   17 0.644    O    6 0.060
    16  H   0.855    O   15 0.843
    17  H   0.834    O   15 0.644    O    6 0.186
    18  H   0.833    O   15 0.720    O    5 0.104
    19  O   2.291    H   21 0.756    H   20 0.726    H   22 0.667    O    6 0.057
    20  H   0.840    O   19 0.726    O    2 0.104
    21  H   0.854    O   19 0.756    N   23 0.090
    22  H   0.842    O   19 0.667    O    6 0.171
    23  N   3.019    H   24 0.974    H   25 0.973    H   26 0.923    H   21 0.090
    24  H   0.977    N   23 0.974
    25  H   0.978    N   23 0.973
    26  H   0.957    N   23 0.923
 MOs/occ written to file <molden.input>
 
molecular dipole:
                 x           y           z       tot (Debye)
 q only:       -3.342      -0.624      -3.823
   full:       -3.092      -0.466      -3.201      11.373
molecular quadrupole (traceless):
                xx          xy          yy          xz          yz          zz
 q only:      -15.283      -3.972      18.950     -24.414      -6.296      -3.666
  q+dip:      -17.526      -2.711      19.499     -23.057      -7.748      -1.973
   full:      -17.265      -2.839      19.608     -22.941      -7.582      -2.343

SCC energy    :     -50.6242632
rep           :       0.2763940
ES            :       0.3635340
AES           :      -0.0809277
AXC           :      -0.0084501
disp          :      -0.0197549
XB            :       0.0000000
fix           :       0.0000000
total E       :     -50.3475526
atomizationE  :       4.8778568     3060.90
(atE without considering molecular charge,
 total energy contains solvation terms)
H-L gap (eV)  :          6.8600
           ------------------------------------------------- 
          |                 ===============                 |
          |                   A N C O P T                   |
          |                 ===============                 |
          |          Approximate Normal Coordinate          |
          |           Rational Function Optimizer           |
           ------------------------------------------------- 
dumping coords to <xtbopt.coord> and <xtbopt.log>
 optlevel               2
 Maxcycle             520
 Maxmicro              25
 Econv         1.000000000000000E-007
 Gconv         2.000000000000000E-004
 Maxdispl       1.00000000000000     
 Hlow          5.000000000000000E-003
 S6             20.0000000000000     
 Nvar               72

generating ANC from model Hessian ...
 Shifting diagonal of input Hessian by   4.778777546156096E-003
 Lowest  eigenvalues of input Hessian
   -0.000000   -0.000000   -0.000000   -0.000000   -0.000000    0.000000
    0.005000    0.005031    0.005879    0.006167    0.006523    0.006646
    0.007495    0.008236    0.008769    0.008953    0.009657    0.010456
 Highest eigenvalues
    1.576960    1.578439    1.579869    3.082511    3.082782    3.084660
 
cpu  time for ANC gen    0.02 s
wall time for ANC gen    0.02 s
................................................................................
.............................. CYCLE    1 ......................................
................................................................................
   1    -50.6242632 -0.506243E+02  0.156E-04    6.86       0.0  T
   2    -50.6242632 -0.535394E-10  0.109E-04    6.86     180.4  T
   3    -50.6242632 -0.315126E-10  0.681E-05    6.86     287.9  T
speedup  1.03
cpu  time for SCC    0.00 s
wall time for SCC    0.00 s
speedup  0.96
cpu  time for grad    0.01 s
wall time for grad    0.01 s
 E :    -50.34755256  G :  0.203977    pred/act E change:  0.000D+00  0.253D-07
Maxdispl :   0.2498   ||displ|| :   0.4656   Lambda : -0.498D-01
Largest |displ|/coords:  0.2498 (  32)  0.1504 (  27)  0.1379 (  22)
................................................................................
.............................. CYCLE    2 ......................................
................................................................................
   1    -50.6419717 -0.506420E+02  0.392E-01    7.10       0.0  T
   2    -50.6424024 -0.430625E-03  0.292E-01    7.29       1.0  T
   3    -50.6426038 -0.201431E-03  0.106E-01    7.59       1.0  T
   4    -50.6426236 -0.197849E-04  0.319E-02    7.60       1.0  T
   5    -50.6426283 -0.475585E-05  0.100E-02    7.58       2.0  T
   6    -50.6426285 -0.189309E-06  0.486E-03    7.58       4.0  T
   7    -50.6426286 -0.112459E-06  0.210E-03    7.58       9.4  T
speedup  1.11
cpu  time for SCC    0.01 s
wall time for SCC    0.01 s
speedup  1.04
cpu  time for grad    0.01 s
wall time for grad    0.01 s
 E :    -50.38943903  G :  0.130240    pred/act E change:  0.000D+00 -0.419D-01
Maxdispl :   0.3300   ||displ|| :   0.5049   Lambda : -0.326D-01
Largest |displ|/coords:  0.3300 (  32)  0.1621 (  27)  0.1530 (  22)
................................................................................
.............................. CYCLE    3 ......................................
................................................................................
   1    -50.6520505 -0.506521E+02  0.403E-01    7.83       0.0  T
   2    -50.6528044 -0.753914E-03  0.291E-01    8.00       1.0  T
   3    -50.6531674 -0.363003E-03  0.119E-01    8.27       1.0  T
   4    -50.6531908 -0.233746E-04  0.333E-02    8.29       1.0  T
   5    -50.6531948 -0.400450E-05  0.116E-02    8.29       1.7  T
   6    -50.6531951 -0.343939E-06  0.575E-03    8.28       3.4  T
   7    -50.6531953 -0.148240E-06  0.247E-03    8.28       7.9  T
speedup  0.97
cpu  time for SCC    0.01 s
wall time for SCC    0.01 s
speedup  0.97
cpu  time for grad    0.01 s
wall time for grad    0.01 s
 E :    -50.41479143  G :  0.078270    pred/act E change: -0.303D-01 -0.254D-01
Maxdispl :   0.2203   ||displ|| :   0.4367   Lambda : -0.132D-01
Largest |displ|/coords:  0.2203 (  32)  0.1498 (   9)  0.1363 (  18)
................................................................................
.............................. CYCLE    4 ......................................
................................................................................
   1    -50.6552482 -0.506552E+02  0.334E-01    8.43       0.0  T
   2    -50.6558731 -0.624931E-03  0.234E-01    8.54       1.0  T
   3    -50.6561672 -0.294030E-03  0.100E-01    8.69       1.0  T
   4    -50.6561822 -0.150005E-04  0.262E-02    8.71       1.0  T
   5    -50.6561843 -0.209597E-05  0.932E-03    8.71       2.1  T
   6    -50.6561845 -0.236512E-06  0.479E-03    8.71       4.1  T
   7    -50.6561846 -0.867108E-07  0.195E-03    8.71      10.1  T
speedup  0.94
cpu  time for SCC    0.01 s
wall time for SCC    0.01 s
speedup  1.02
cpu  time for grad    0.01 s
wall time for grad    0.01 s
 E :    -50.42342709  G :  0.047268    pred/act E change: -0.205D-01 -0.864D-02
Maxdispl :   0.2024   ||displ|| :   0.3705   Lambda : -0.474D-02
Largest |displ|/coords:  0.2024 (   6)  0.1461 (  15)  0.0965 (  10)
................................................................................
.............................. CYCLE    5 ......................................
................................................................................
   1    -50.6566351 -0.506566E+02  0.287E-01    8.74       0.0  T
   2    -50.6568121 -0.176968E-03  0.212E-01    8.80       1.0  T
   3    -50.6568828 -0.706922E-04  0.725E-02    8.89       1.0  T
   4    -50.6568939 -0.110774E-04  0.172E-02    8.88       1.1  T
   5    -50.6568954 -0.149825E-05  0.519E-03    8.88       3.8  T
   6    -50.6568954 -0.427606E-07  0.231E-03    8.88       8.5  T
speedup  0.89
cpu  time for SCC    0.00 s
wall time for SCC    0.01 s
speedup  0.94
cpu  time for grad    0.01 s
wall time for grad    0.01 s
 E :    -50.42620276  G :  0.027102    pred/act E change: -0.787D-02 -0.278D-02
Maxdispl :   0.2329   ||displ|| :   0.3873   Lambda : -0.269D-02
Largest |displ|/coords:  0.2329 (   9)  0.1709 (   6)  0.1173 (   2)
................................................................................
.............................. CYCLE    6 ......................................
................................................................................
   1    -50.6615479 -0.506615E+02  0.279E-01    8.87       0.0  T
   2    -50.6616939 -0.146031E-03  0.207E-01    8.91       1.0  T
   3    -50.6617506 -0.567270E-04  0.657E-02    8.98       1.0  T
   4    -50.6617633 -0.126532E-04  0.156E-02    8.97       1.3  T
   5    -50.6617643 -0.979395E-06  0.496E-03    8.97       4.0  T
   6    -50.6617643 -0.296652E-07  0.231E-03    8.96       8.5  T
speedup  1.09
cpu  time for SCC    0.01 s
wall time for SCC    0.01 s
speedup  1.02
cpu  time for grad    0.01 s
wall time for grad    0.01 s
 E :    -50.42697725  G :  0.027932    pred/act E change: -0.269D-02 -0.774D-03
Maxdispl :   0.1261   ||displ|| :   0.2539   Lambda : -0.188D-02
Largest |displ|/coords:  0.1261 (  15)  0.1153 (   7)  0.1022 (   2)
................................................................................
.............................. CYCLE    7 ......................................
................................................................................
   1    -50.6646870 -0.506647E+02  0.290E-01    8.99       0.0  T
   2    -50.6647151 -0.280185E-04  0.221E-01    8.99       1.0  T
   3    -50.6647358 -0.207434E-04  0.279E-02    8.99       1.0  T
   4    -50.6647402 -0.435403E-05  0.671E-03    8.99       2.9  T
   5    -50.6647402 -0.607238E-07  0.307E-03    8.99       6.4  T
   6    -50.6647402 -0.800161E-08  0.127E-03    8.99      15.4  T
speedup  0.93
cpu  time for SCC    0.00 s
wall time for SCC    0.01 s
speedup  1.03
cpu  time for grad    0.01 s
wall time for grad    0.01 s
 E :    -50.42770732  G :  0.025350    pred/act E change: -0.155D-02 -0.730D-03
Maxdispl :   0.1044   ||displ|| :   0.1923   Lambda : -0.118D-02
Largest |displ|/coords:  0.1044 (   4)  0.0781 (  18)  0.0516 (  32)
................................................................................
.............................. CYCLE    8 ......................................
................................................................................
   1    -50.6659302 -0.506659E+02  0.113E-01    8.92       0.0  T
   2    -50.6659679 -0.377218E-04  0.816E-02    8.91       1.0  T
   3    -50.6659844 -0.165543E-04  0.291E-02    8.88       1.0  T
   4    -50.6659867 -0.223595E-05  0.664E-03    8.88       3.0  T
   5    -50.6659868 -0.918695E-07  0.245E-03    8.89       8.0  T
   6    -50.6659868 -0.100749E-07  0.126E-03    8.89      15.5  T
speedup  1.11
cpu  time for SCC    0.01 s
wall time for SCC    0.01 s
speedup  1.03
cpu  time for grad    0.01 s
wall time for grad    0.01 s
 E :    -50.42804802  G :  0.013759    pred/act E change: -0.100D-02 -0.341D-03
Maxdispl :   0.0863   ||displ|| :   0.1768   Lambda : -0.696D-03
Largest |displ|/coords:  0.0863 (   6)  0.0588 (   4)  0.0584 (  11)
................................................................................
.............................. CYCLE    9 ......................................
................................................................................
   1    -50.6618518 -0.506619E+02  0.159E-01    8.86       0.0  T
   2    -50.6618624 -0.106558E-04  0.119E-01    8.86       1.0  T
   3    -50.6618687 -0.621068E-05  0.189E-02    8.86       1.0  T
   4    -50.6618702 -0.158506E-05  0.497E-03    8.86       3.9  T
   5    -50.6618703 -0.379366E-07  0.213E-03    8.86       9.2  T
   6    -50.6618703 -0.515009E-08  0.106E-03    8.86      18.6  T
speedup  0.73
cpu  time for SCC    0.00 s
wall time for SCC    0.01 s
speedup  0.94
cpu  time for grad    0.01 s
wall time for grad    0.01 s
 E :    -50.42836160  G :  0.017026    pred/act E change: -0.610D-03 -0.314D-03
Maxdispl :   0.0896   ||displ|| :   0.1668   Lambda : -0.739D-03
Largest |displ|/coords:  0.0896 (   2)  0.0685 (  24)  0.0447 (   7)
................................................................................
.............................. CYCLE   10 ......................................
................................................................................
   1    -50.6643657 -0.506644E+02  0.128E-01    8.87       0.0  T
   2    -50.6644178 -0.521288E-04  0.913E-02    8.88       1.0  T
   3    -50.6644418 -0.239938E-04  0.329E-02    8.90       1.0  T
   4    -50.6644445 -0.274706E-05  0.557E-03    8.90       3.5  T
   5    -50.6644446 -0.798250E-07  0.278E-03    8.90       7.0  T
   6    -50.6644446 -0.140482E-07  0.142E-03    8.90      13.8  T
speedup  1.09
cpu  time for SCC    0.01 s
wall time for SCC    0.01 s
speedup  1.02
cpu  time for grad    0.01 s
wall time for grad    0.01 s
 E :    -50.42855676  G :  0.012384    pred/act E change: -0.359D-03 -0.195D-03
Maxdispl :   0.0855   ||displ|| :   0.1622   Lambda : -0.506D-03
Largest |displ|/coords:  0.0855 (   1)  0.0816 (   4)  0.0435 (  15)
................................................................................
.............................. CYCLE   11 ......................................
................................................................................
   1    -50.6647055 -0.506647E+02  0.137E-01    8.90       0.0  T
   2    -50.6647114 -0.592478E-05  0.102E-01    8.90       1.0  T
   3    -50.6647154 -0.392792E-05  0.138E-02    8.90       1.4  T
   4    -50.6647163 -0.894611E-06  0.382E-03    8.90       5.1  T
   5    -50.6647163 -0.202466E-07  0.168E-03    8.90      11.7  T
   6    -50.6647163 -0.360312E-08  0.841E-04    8.90      23.3  T
speedup  0.93
cpu  time for SCC    0.00 s
wall time for SCC    0.01 s
speedup  1.01
cpu  time for grad    0.01 s
wall time for grad    0.01 s
 E :    -50.42878001  G :  0.012745    pred/act E change: -0.380D-03 -0.223D-03
Maxdispl :   0.0755   ||displ|| :   0.1597   Lambda : -0.398D-03
Largest |displ|/coords:  0.0755 (   6)  0.0587 (   4)  0.0552 (   2)
................................................................................
.............................. CYCLE   12 ......................................
................................................................................
   1    -50.6643550 -0.506644E+02  0.944E-02    8.89       0.0  T
   2    -50.6643594 -0.447867E-05  0.704E-02    8.89       1.0  T
   3    -50.6643622 -0.281130E-05  0.133E-02    8.88       1.5  T
   4    -50.6643628 -0.592654E-06  0.435E-03    8.88       4.5  T
   5    -50.6643629 -0.214497E-07  0.127E-03    8.88      15.5  T
   6    -50.6643629 -0.254197E-08  0.712E-04    8.88      27.5  T
speedup  0.93
cpu  time for SCC    0.00 s
wall time for SCC    0.01 s
speedup  0.96
cpu  time for grad    0.01 s
wall time for grad    0.01 s
 E :    -50.42892464  G :  0.010569    pred/act E change: -0.260D-03 -0.145D-03
Maxdispl :   0.0531   ||displ|| :   0.1113   Lambda : -0.219D-03
Largest |displ|/coords:  0.0531 (   1)  0.0454 (   8)  0.0381 (  12)
................................................................................
.............................. CYCLE   13 ......................................
................................................................................
   1    -50.6643286 -0.506643E+02  0.788E-02    8.87       0.0  T
   2    -50.6643327 -0.411845E-05  0.572E-02    8.87       1.0  T
   3    -50.6643350 -0.232778E-05  0.139E-02    8.87       1.4  T
   4    -50.6643355 -0.439435E-06  0.338E-03    8.87       5.8  T
   5    -50.6643355 -0.180441E-07  0.123E-03    8.87      15.9  T
   6    -50.6643355 -0.237516E-08  0.645E-04    8.87      30.4  T
speedup  0.94
cpu  time for SCC    0.00 s
wall time for SCC    0.01 s
speedup  1.04
cpu  time for grad    0.01 s
wall time for grad    0.01 s
 E :    -50.42905145  G :  0.010224    pred/act E change: -0.204D-03 -0.127D-03
Maxdispl :   0.1050   ||displ|| :   0.1660   Lambda : -0.283D-03
Largest |displ|/coords:  0.1050 (   1)  0.0710 (   4)  0.0636 (  24)
................................................................................
.............................. CYCLE   14 ......................................
................................................................................
   1    -50.6655033 -0.506655E+02  0.116E-01    8.88       0.0  T
   2    -50.6655220 -0.187137E-04  0.843E-02    8.88       1.0  T
   3    -50.6655303 -0.830671E-05  0.243E-02    8.89       1.0  T
   4    -50.6655322 -0.186264E-05  0.564E-03    8.89       3.5  T
   5    -50.6655322 -0.486642E-07  0.215E-03    8.89       9.1  T
   6    -50.6655322 -0.530637E-08  0.117E-03    8.89      16.8  T
speedup  1.13
cpu  time for SCC    0.01 s
wall time for SCC    0.01 s
speedup  1.04
cpu  time for grad    0.01 s
wall time for grad    0.01 s
 E :    -50.42922705  G :  0.011418    pred/act E change: -0.111D-03 -0.176D-03
Maxdispl :   0.1818   ||displ|| :   0.2758   Lambda : -0.375D-03
Largest |displ|/coords:  0.1818 (   1)  0.1131 (   4)  0.0826 (  24)
................................................................................
.............................. CYCLE   15 ......................................
................................................................................
   1    -50.6652557 -0.506653E+02  0.191E-01    8.89       0.0  T
   2    -50.6652897 -0.340183E-04  0.142E-01    8.90       1.0  T
   3    -50.6653073 -0.175676E-04  0.382E-02    8.90       1.0  T
   4    -50.6653116 -0.437076E-05  0.119E-02    8.90       1.6  T
   5    -50.6653118 -0.194432E-06  0.364E-03    8.90       5.4  T
   6    -50.6653118 -0.194901E-07  0.202E-03    8.90       9.7  T
   7    -50.6653118 -0.786158E-08  0.553E-04    8.90      35.4  T
speedup  0.97
cpu  time for SCC    0.01 s
wall time for SCC    0.01 s
speedup  0.97
cpu  time for grad    0.01 s
wall time for grad    0.01 s
 E :    -50.42958584  G :  0.017305    pred/act E change: -0.146D-03 -0.359D-03
Maxdispl :   0.5224   ||displ|| :   0.8087   Lambda : -0.163D-02
Largest |displ|/coords:  0.5224 (   1)  0.2948 (   4)  0.2551 (  24)
................................................................................
.............................. CYCLE   16 ......................................
................................................................................
   1    -50.6633416 -0.506633E+02  0.605E-01    8.91       0.0  T
   2    -50.6637819 -0.440275E-03  0.447E-01    8.91       1.0  T
   3    -50.6640113 -0.229441E-03  0.134E-01    8.90       1.0  T
   4    -50.6640625 -0.512264E-04  0.451E-02    8.90       1.0  T
   5    -50.6640655 -0.294387E-05  0.130E-02    8.90       1.5  T
   6    -50.6640657 -0.239554E-06  0.709E-03    8.90       2.8  T
   7    -50.6640658 -0.924086E-07  0.202E-03    8.90       9.7  T
   8    -50.6640658 -0.109381E-07  0.494E-04    8.90      39.7  T
speedup  0.99
cpu  time for SCC    0.01 s
wall time for SCC    0.01 s
speedup  0.98
cpu  time for grad    0.01 s
wall time for grad    0.02 s
 E :    -50.43058501  G :  0.051518    pred/act E change: -0.202D-03 -0.999D-03
Maxdispl :   0.0582   ||displ|| :   0.1710   Lambda : -0.243D-02
Largest |displ|/coords:  0.0582 (   1)  0.0544 (  22)  0.0537 (   2)
................................................................................
.............................. CYCLE   17 ......................................
................................................................................
   1    -50.6732372 -0.506732E+02  0.203E-01    8.92       0.0  T
   2    -50.6732787 -0.415228E-04  0.150E-01    8.92       1.0  T
   3    -50.6733055 -0.268147E-04  0.352E-02    8.93       1.0  T
   4    -50.6733098 -0.432014E-05  0.998E-03    8.93       2.0  T
   5    -50.6733100 -0.164955E-06  0.373E-03    8.93       5.3  T
   6    -50.6733100 -0.113789E-07  0.192E-03    8.93      10.2  T
speedup  0.96
cpu  time for SCC    0.00 s
wall time for SCC    0.01 s
speedup  0.97
cpu  time for grad    0.01 s
wall time for grad    0.01 s
 E :    -50.43112784  G :  0.048164    pred/act E change: -0.135D-02 -0.543D-03
Maxdispl :   0.1335   ||displ|| :   0.2347   Lambda : -0.261D-02
Largest |displ|/coords:  0.1335 (   1)  0.1055 (   4)  0.0507 (  24)
................................................................................
.............................. CYCLE   18 ......................................
................................................................................
   1    -50.6770497 -0.506770E+02  0.171E-01    8.94       0.0  T
   2    -50.6770899 -0.401275E-04  0.128E-01    8.94       1.0  T
   3    -50.6771127 -0.227859E-04  0.389E-02    8.93       1.0  T
   4    -50.6771174 -0.471121E-05  0.141E-02    8.93       1.4  T
   5    -50.6771177 -0.336153E-06  0.414E-03    8.93       4.7  T
   6    -50.6771177 -0.287944E-07  0.226E-03    8.93       8.7  T
speedup  0.94
cpu  time for SCC    0.00 s
wall time for SCC    0.01 s
speedup  1.04
cpu  time for grad    0.01 s
wall time for grad    0.01 s
 E :    -50.43339853  G :  0.044533    pred/act E change: -0.125D-02 -0.227D-02
Maxdispl :   0.2937   ||displ|| :   0.5729   Lambda : -0.952D-02
Largest |displ|/coords:  0.2937 (   1)  0.1617 (  47)  0.1548 (  67)
................................................................................
.............................. CYCLE   19 ......................................
................................................................................
   1    -50.6959414 -0.506959E+02  0.547E-01    9.04       0.0  T
   2    -50.6964273 -0.485968E-03  0.409E-01    9.02       1.0  T
   3    -50.6967515 -0.324184E-03  0.135E-01    8.96       1.0  T
   4    -50.6968030 -0.515241E-04  0.509E-02    8.97       1.0  T
   5    -50.6968070 -0.397017E-05  0.145E-02    8.97       1.3  T
   6    -50.6968073 -0.297798E-06  0.817E-03    8.97       2.4  T
   7    -50.6968074 -0.790630E-07  0.195E-03    8.97      10.1  T
   8    -50.6968074 -0.107220E-07  0.507E-04    8.97      38.7  T
speedup  1.00
cpu  time for SCC    0.01 s
wall time for SCC    0.01 s
speedup  0.99
cpu  time for grad    0.01 s
wall time for grad    0.02 s
 E :    -50.43802982  G :  0.073474    pred/act E change: -0.138D-02 -0.463D-02
Maxdispl :   0.1419   ||displ|| :   0.3279   Lambda : -0.832D-02
Largest |displ|/coords:  0.1419 (   1)  0.0954 (   3)  0.0843 (  26)
................................................................................
.............................. CYCLE   20 ......................................
................................................................................
   1    -50.6885621 -0.506886E+02  0.376E-01    8.80       0.0  T
   2    -50.6887526 -0.190574E-03  0.273E-01    8.81       1.0  T
   3    -50.6888759 -0.123252E-03  0.786E-02    8.84       1.0  T
   4    -50.6888936 -0.177336E-04  0.225E-02    8.83       1.0  T
   5    -50.6888944 -0.758708E-06  0.854E-03    8.83       2.3  T
   6    -50.6888945 -0.974391E-07  0.430E-03    8.83       4.6  T
   7    -50.6888945 -0.214364E-07  0.128E-03    8.83      15.3  T
speedup  0.98
cpu  time for SCC    0.01 s
wall time for SCC    0.01 s
speedup  0.99
cpu  time for grad    0.01 s
wall time for grad    0.01 s
 E :    -50.43958015  G :  0.043534    pred/act E change: -0.632D-02 -0.155D-02
Maxdispl :   0.1556   ||displ|| :   0.3691   Lambda : -0.612D-02
Largest |displ|/coords:  0.1556 (   1)  0.1283 (   4)  0.1138 (  30)
................................................................................
.............................. CYCLE   21 ......................................
................................................................................
   1    -50.7106269 -0.507106E+02  0.290E-01    8.92       0.0  T
   2    -50.7108333 -0.206406E-03  0.216E-01    8.92       1.0  T
   3    -50.7109668 -0.133480E-03  0.868E-02    8.90       1.0  T
   4    -50.7109860 -0.191574E-04  0.305E-02    8.91       1.0  T
   5    -50.7109877 -0.178086E-05  0.970E-03    8.91       2.0  T
   6    -50.7109878 -0.860763E-07  0.470E-03    8.91       4.2  T
   7    -50.7109878 -0.220212E-07  0.105E-03    8.91      18.6  T
speedup  0.98
cpu  time for SCC    0.01 s
wall time for SCC    0.01 s
speedup  0.99
cpu  time for grad    0.01 s
wall time for grad    0.01 s
 E :    -50.44367161  G :  0.033736    pred/act E change: -0.461D-02 -0.409D-02
Maxdispl :   0.1487   ||displ|| :   0.4223   Lambda : -0.606D-02
Largest |displ|/coords:  0.1487 (  24)  0.1406 (  12)  0.1273 (   4)
................................................................................
.............................. CYCLE   22 ......................................
................................................................................
   1    -50.7225421 -0.507225E+02  0.320E-01    8.82       0.0  T
   2    -50.7226166 -0.744677E-04  0.235E-01    8.81       1.0  T
   3    -50.7226663 -0.497409E-04  0.537E-02    8.79       1.0  T
   4    -50.7226737 -0.738944E-05  0.175E-02    8.80       1.1  T
   5    -50.7226742 -0.529958E-06  0.597E-03    8.80       3.3  T
   6    -50.7226743 -0.480106E-07  0.315E-03    8.80       6.2  T
speedup  0.96
cpu  time for SCC    0.00 s
wall time for SCC    0.01 s
speedup  0.98
cpu  time for grad    0.01 s
wall time for grad    0.01 s
 E :    -50.44360808  G :  0.065226    pred/act E change: -0.348D-02  0.635D-04
Maxdispl :   0.1036   ||displ|| :   0.3209   Lambda : -0.107D-01
Largest |displ|/coords:  0.1036 (   8)  0.1024 (  25)  0.0980 (  24)
................................................................................
.............................. CYCLE   23 ......................................
................................................................................
   1    -50.7102332 -0.507102E+02  0.312E-01    8.84       0.0  T
   2    -50.7103649 -0.131772E-03  0.226E-01    8.85       1.0  T
   3    -50.7104461 -0.811970E-04  0.619E-02    8.88       1.0  T
   4    -50.7104572 -0.110532E-04  0.178E-02    8.88       1.1  T
   5    -50.7104577 -0.513488E-06  0.637E-03    8.88       3.1  T
   6    -50.7104578 -0.541864E-07  0.300E-03    8.88       6.5  T
   7    -50.7104578 -0.197385E-07  0.102E-03    8.88      19.2  T
speedup  0.98
cpu  time for SCC    0.01 s
wall time for SCC    0.01 s
speedup  0.99
cpu  time for grad    0.01 s
wall time for grad    0.01 s
 E :    -50.44455927  G :  0.048029    pred/act E change: -0.357D-02 -0.951D-03
Maxdispl :   0.0709   ||displ|| :   0.1903   Lambda : -0.434D-02
Largest |displ|/coords:  0.0709 (  24)  0.0570 (   3)  0.0501 (  30)
................................................................................
.............................. CYCLE   24 ......................................
................................................................................
   1    -50.7158815 -0.507159E+02  0.145E-01    8.82       0.0  T
   2    -50.7159020 -0.204964E-04  0.108E-01    8.82       1.0  T
   3    -50.7159167 -0.147338E-04  0.242E-02    8.81       1.0  T
   4    -50.7159187 -0.198549E-05  0.716E-03    8.81       2.7  T
   5    -50.7159188 -0.763167E-07  0.270E-03    8.81       7.3  T
   6    -50.7159188 -0.956433E-08  0.124E-03    8.81      15.8  T
speedup  1.11
cpu  time for SCC    0.01 s
wall time for SCC    0.01 s
speedup  1.04
cpu  time for grad    0.01 s
wall time for grad    0.01 s
 E :    -50.44685055  G :  0.017510    pred/act E change: -0.590D-02 -0.229D-02
Maxdispl :   0.1059   ||displ|| :   0.2745   Lambda : -0.188D-02
Largest |displ|/coords:  0.1059 (   6)  0.0973 (   8)  0.0691 (  14)
................................................................................
.............................. CYCLE   25 ......................................
................................................................................
   1    -50.7164654 -0.507165E+02  0.174E-01    8.77       0.0  T
   2    -50.7165034 -0.380135E-04  0.127E-01    8.76       1.0  T
   3    -50.7165249 -0.215020E-04  0.372E-02    8.75       1.0  T
   4    -50.7165285 -0.364951E-05  0.125E-02    8.76       1.6  T
   5    -50.7165288 -0.277463E-06  0.461E-03    8.76       4.3  T
   6    -50.7165288 -0.388234E-07  0.224E-03    8.76       8.8  T
   7    -50.7165289 -0.931617E-08  0.777E-04    8.76      25.2  T
speedup  1.13
cpu  time for SCC    0.01 s
wall time for SCC    0.01 s
speedup  1.05
cpu  time for grad    0.01 s
wall time for grad    0.01 s
 E :    -50.44680711  G :  0.028553    pred/act E change: -0.225D-02  0.434D-04
Maxdispl :   0.0748   ||displ|| :   0.1734   Lambda : -0.173D-02
Largest |displ|/coords:  0.0748 (   3)  0.0637 (   4)  0.0600 (   8)

generating ANC from model Hessian ...
 Shifting diagonal of input Hessian by   4.749813008346843E-003
 Lowest  eigenvalues of input Hessian
   -0.000000   -0.000000   -0.000000   -0.000000    0.000000    0.000000
    0.005000    0.005121    0.005603    0.005751    0.006065    0.006305
    0.006995    0.007484    0.008661    0.009740    0.010668    0.011649
 Highest eigenvalues
    1.388827    1.401090    1.426148    2.544832    3.341003    3.773685
 
cpu  time for ANC gen    0.02 s
wall time for ANC gen    0.02 s
................................................................................
.............................. CYCLE   26 ......................................
................................................................................
   1    -50.7234846 -0.507235E+02  0.112E-01    8.79       0.0  T
   2    -50.7234973 -0.126735E-04  0.809E-02    8.79       1.0  T
   3    -50.7235032 -0.592954E-05  0.174E-02    8.80       1.1  T
   4    -50.7235045 -0.130417E-05  0.398E-03    8.80       4.9  T
   5    -50.7235045 -0.244118E-07  0.173E-03    8.80      11.3  T
   6    -50.7235045 -0.193972E-08  0.679E-04    8.80      28.9  T
   7    -50.7235045 -0.154612E-08  0.224E-04    8.80      87.4  T
speedup  1.15
cpu  time for SCC    0.01 s
wall time for SCC    0.01 s
speedup  1.02
cpu  time for grad    0.01 s
wall time for grad    0.01 s
 E :    -50.44757375  G :  0.019291    pred/act E change:  0.000D+00 -0.767D-03
Maxdispl :   0.1103   ||displ|| :   0.2276   Lambda : -0.112D-02
Largest |displ|/coords:  0.1103 (   5)  0.0974 (   6)  0.0630 (   7)
................................................................................
.............................. CYCLE   27 ......................................
................................................................................
   1    -50.7202835 -0.507203E+02  0.111E-01    8.78       0.0  T
   2    -50.7202923 -0.882262E-05  0.832E-02    8.78       1.0  T
   3    -50.7202970 -0.472122E-05  0.173E-02    8.78       1.1  T
   4    -50.7202983 -0.123868E-05  0.504E-03    8.78       3.9  T
   5    -50.7202983 -0.662695E-07  0.155E-03    8.78      12.7  T
   6    -50.7202983 -0.217066E-08  0.946E-04    8.78      20.7  T
speedup  0.98
cpu  time for SCC    0.01 s
wall time for SCC    0.01 s
speedup  0.98
cpu  time for grad    0.01 s
wall time for grad    0.01 s
 E :    -50.44822637  G :  0.008674    pred/act E change:  0.000D+00 -0.653D-03
Maxdispl :   0.0799   ||displ|| :   0.2001   Lambda : -0.434D-03
Largest |displ|/coords:  0.0799 (   6)  0.0773 (   3)  0.0771 (  12)
................................................................................
.............................. CYCLE   28 ......................................
................................................................................
   1    -50.7187285 -0.507187E+02  0.940E-02    8.76       0.0  T
   2    -50.7187313 -0.280630E-05  0.702E-02    8.76       1.0  T
   3    -50.7187328 -0.143957E-05  0.101E-02    8.76       1.9  T
   4    -50.7187332 -0.434994E-06  0.330E-03    8.76       5.9  T
   5    -50.7187332 -0.238240E-07  0.894E-04    8.76      21.9  T
   6    -50.7187332 -0.827256E-09  0.576E-04    8.76      34.1  T
speedup  0.93
cpu  time for SCC    0.00 s
wall time for SCC    0.01 s
speedup  0.97
cpu  time for grad    0.01 s
wall time for grad    0.01 s
 E :    -50.44845248  G :  0.007700    pred/act E change: -0.588D-03 -0.226D-03
Maxdispl :   0.0894   ||displ|| :   0.1710   Lambda : -0.232D-03
Largest |displ|/coords:  0.0894 (   3)  0.0832 (   6)  0.0631 (   5)
................................................................................
.............................. CYCLE   29 ......................................
................................................................................
   1    -50.7188514 -0.507189E+02  0.757E-02    8.77       0.0  T
   2    -50.7188530 -0.150815E-05  0.568E-02    8.77       1.0  T
   3    -50.7188541 -0.112022E-05  0.740E-03    8.77       2.7  T
   4    -50.7188543 -0.204299E-06  0.273E-03    8.77       7.2  T
   5    -50.7188543 -0.108402E-07  0.866E-04    8.77      22.6  T
speedup  0.89
cpu  time for SCC    0.00 s
wall time for SCC    0.00 s
speedup  1.04
cpu  time for grad    0.01 s
wall time for grad    0.01 s
 E :    -50.44863171  G :  0.008053    pred/act E change: -0.226D-03 -0.179D-03
Maxdispl :   0.1780   ||displ|| :   0.3108   Lambda : -0.388D-03
Largest |displ|/coords:  0.1780 (   6)  0.1397 (   3)  0.1248 (  13)
................................................................................
.............................. CYCLE   30 ......................................
................................................................................
   1    -50.7203422 -0.507203E+02  0.146E-01    8.79       0.0  T
   2    -50.7203487 -0.654032E-05  0.110E-01    8.78       1.0  T
   3    -50.7203535 -0.483356E-05  0.155E-02    8.79       1.3  T
   4    -50.7203545 -0.942956E-06  0.537E-03    8.79       3.7  T
   5    -50.7203545 -0.367613E-07  0.181E-03    8.79      10.9  T
   6    -50.7203545 -0.465621E-08  0.938E-04    8.79      20.9  T
speedup  0.96
cpu  time for SCC    0.00 s
wall time for SCC    0.01 s
speedup  0.98
cpu  time for grad    0.01 s
wall time for grad    0.01 s
 E :    -50.44890125  G :  0.007856    pred/act E change: -0.119D-03 -0.270D-03
Maxdispl :   0.1353   ||displ|| :   0.2807   Lambda : -0.285D-03
Largest |displ|/coords:  0.1353 (   6)  0.1277 (   3)  0.1185 (  13)
................................................................................
.............................. CYCLE   31 ......................................
................................................................................
   1    -50.7227364 -0.507227E+02  0.131E-01    8.81       0.0  T
   2    -50.7227433 -0.686611E-05  0.988E-02    8.82       1.0  T
   3    -50.7227473 -0.400864E-05  0.157E-02    8.82       1.2  T
   4    -50.7227485 -0.114709E-05  0.491E-03    8.82       4.0  T
   5    -50.7227485 -0.305345E-07  0.171E-03    8.82      11.5  T
   6    -50.7227485 -0.401992E-08  0.880E-04    8.82      22.3  T
speedup  0.96
cpu  time for SCC    0.00 s
wall time for SCC    0.01 s
speedup  0.98
cpu  time for grad    0.01 s
wall time for grad    0.01 s
 E :    -50.44908510  G :  0.007654    pred/act E change: -0.213D-03 -0.184D-03
Maxdispl :   0.1470   ||displ|| :   0.2738   Lambda : -0.236D-03
Largest |displ|/coords:  0.1470 (   6)  0.1430 (   3)  0.0905 (   1)
................................................................................
.............................. CYCLE   32 ......................................
................................................................................
   1    -50.7246463 -0.507246E+02  0.124E-01    8.84       0.0  T
   2    -50.7246527 -0.640719E-05  0.935E-02    8.85       1.0  T
   3    -50.7246567 -0.402572E-05  0.157E-02    8.85       1.3  T
   4    -50.7246578 -0.104193E-05  0.469E-03    8.85       4.2  T
   5    -50.7246578 -0.254419E-07  0.159E-03    8.85      12.3  T
   6    -50.7246578 -0.332113E-08  0.829E-04    8.85      23.7  T
speedup  0.96
cpu  time for SCC    0.01 s
wall time for SCC    0.01 s
speedup  0.98
cpu  time for grad    0.01 s
wall time for grad    0.01 s
 E :    -50.44923490  G :  0.007841    pred/act E change: -0.154D-03 -0.150D-03
Maxdispl :   0.1023   ||displ|| :   0.2039   Lambda : -0.193D-03
Largest |displ|/coords:  0.1023 (   3)  0.1000 (   2)  0.0747 (   6)
................................................................................
.............................. CYCLE   33 ......................................
................................................................................
   1    -50.7261366 -0.507261E+02  0.844E-02    8.87       0.0  T
   2    -50.7261398 -0.327454E-05  0.631E-02    8.88       1.0  T
   3    -50.7261416 -0.172645E-05  0.112E-02    8.88       1.7  T
   4    -50.7261421 -0.538368E-06  0.334E-03    8.88       5.9  T
   5    -50.7261421 -0.143368E-07  0.112E-03    8.88      17.5  T
   6    -50.7261421 -0.168126E-08  0.620E-04    8.88      31.6  T
speedup  0.96
cpu  time for SCC    0.00 s
wall time for SCC    0.01 s
speedup  0.98
cpu  time for grad    0.01 s
wall time for grad    0.01 s
 E :    -50.44937467  G :  0.006712    pred/act E change: -0.127D-03 -0.140D-03
Maxdispl :   0.1587   ||displ|| :   0.2640   Lambda : -0.199D-03
Largest |displ|/coords:  0.1587 (   2)  0.1267 (   3)  0.0937 (   6)
................................................................................
.............................. CYCLE   34 ......................................
................................................................................
   1    -50.7256057 -0.507256E+02  0.107E-01    8.89       0.0  T
   2    -50.7256098 -0.410140E-05  0.800E-02    8.89       1.0  T
   3    -50.7256122 -0.239353E-05  0.128E-02    8.90       1.5  T
   4    -50.7256129 -0.638617E-06  0.445E-03    8.90       4.4  T
   5    -50.7256129 -0.240995E-07  0.143E-03    8.90      13.7  T
   6    -50.7256129 -0.311268E-08  0.814E-04    8.90      24.1  T
speedup  0.98
cpu  time for SCC    0.00 s
wall time for SCC    0.01 s
speedup  0.98
cpu  time for grad    0.01 s
wall time for grad    0.01 s
 E :    -50.44951134  G :  0.006553    pred/act E change: -0.101D-03 -0.137D-03
Maxdispl :   0.2069   ||displ|| :   0.2936   Lambda : -0.204D-03
Largest |displ|/coords:  0.2069 (   2)  0.1532 (   3)  0.0876 (   5)
................................................................................
.............................. CYCLE   35 ......................................
................................................................................
   1    -50.7270521 -0.507271E+02  0.113E-01    8.90       0.0  T
   2    -50.7270579 -0.580908E-05  0.843E-02    8.90       1.0  T
   3    -50.7270612 -0.327766E-05  0.145E-02    8.92       1.4  T
   4    -50.7270621 -0.874779E-06  0.502E-03    8.91       3.9  T
   5    -50.7270621 -0.363671E-07  0.168E-03    8.91      11.7  T
   6    -50.7270621 -0.389036E-08  0.908E-04    8.91      21.6  T
speedup  0.96
cpu  time for SCC    0.01 s
wall time for SCC    0.01 s
speedup  0.98
cpu  time for grad    0.01 s
wall time for grad    0.01 s
 E :    -50.44960873  G :  0.009986    pred/act E change: -0.106D-03 -0.974D-04
Maxdispl :   0.1791   ||displ|| :   0.2624   Lambda : -0.186D-03
Largest |displ|/coords:  0.1791 (   2)  0.1334 (   3)  0.0931 (   6)
................................................................................
.............................. CYCLE   36 ......................................
................................................................................
   1    -50.7242314 -0.507242E+02  0.101E-01    8.90       0.0  T
   2    -50.7242376 -0.622263E-05  0.757E-02    8.91       1.0  T
   3    -50.7242407 -0.309952E-05  0.144E-02    8.92       1.4  T
   4    -50.7242416 -0.921016E-06  0.474E-03    8.92       4.1  T
   5    -50.7242416 -0.388132E-07  0.160E-03    8.92      12.2  T
   6    -50.7242416 -0.376023E-08  0.894E-04    8.92      21.9  T
speedup  0.96
cpu  time for SCC    0.00 s
wall time for SCC    0.01 s
speedup  0.98
cpu  time for grad    0.01 s
wall time for grad    0.01 s
 E :    -50.44973195  G :  0.009236    pred/act E change: -0.111D-03 -0.123D-03
Maxdispl :   0.1740   ||displ|| :   0.2468   Lambda : -0.311D-03
Largest |displ|/coords:  0.1740 (   2)  0.0851 (   8)  0.0720 (   3)
................................................................................
.............................. CYCLE   37 ......................................
................................................................................
   1    -50.7252252 -0.507252E+02  0.111E-01    8.92       0.0  T
   2    -50.7252430 -0.178707E-04  0.816E-02    8.92       1.0  T
   3    -50.7252513 -0.828126E-05  0.235E-02    8.93       1.0  T
   4    -50.7252530 -0.166942E-05  0.688E-03    8.93       2.9  T
   5    -50.7252531 -0.982271E-07  0.248E-03    8.93       7.9  T
   6    -50.7252531 -0.849984E-08  0.133E-03    8.93      14.8  T
speedup  0.98
cpu  time for SCC    0.01 s
wall time for SCC    0.01 s
speedup  0.98
cpu  time for grad    0.01 s
wall time for grad    0.01 s
 E :    -50.44979592  G :  0.011901    pred/act E change: -0.995D-04 -0.640D-04
Maxdispl :   0.1814   ||displ|| :   0.2902   Lambda : -0.432D-03
Largest |displ|/coords:  0.1814 (   2)  0.1476 (   3)  0.0962 (   1)
................................................................................
.............................. CYCLE   38 ......................................
................................................................................
   1    -50.7230181 -0.507230E+02  0.138E-01    8.93       0.0  T
   2    -50.7230405 -0.224091E-04  0.102E-01    8.93       1.0  T
   3    -50.7230498 -0.931871E-05  0.259E-02    8.94       1.0  T
   4    -50.7230525 -0.270675E-05  0.784E-03    8.94       2.5  T
   5    -50.7230526 -0.131082E-06  0.266E-03    8.94       7.4  T
   6    -50.7230526 -0.956862E-08  0.150E-03    8.94      13.1  T
speedup  0.94
cpu  time for SCC    0.00 s
wall time for SCC    0.01 s
speedup  0.98
cpu  time for grad    0.01 s
wall time for grad    0.01 s
 E :    -50.45006661  G :  0.011659    pred/act E change: -0.165D-03 -0.271D-03
Maxdispl :   0.1520   ||displ|| :   0.2172   Lambda : -0.323D-03
Largest |displ|/coords:  0.1520 (   2)  0.0861 (   3)  0.0620 (   1)
................................................................................
.............................. CYCLE   39 ......................................
................................................................................
   1    -50.7251746 -0.507252E+02  0.123E-01    8.95       0.0  T
   2    -50.7252038 -0.291716E-04  0.912E-02    8.96       1.0  T
   3    -50.7252174 -0.136674E-04  0.295E-02    8.96       1.0  T
   4    -50.7252201 -0.271666E-05  0.902E-03    8.96       2.2  T
   5    -50.7252203 -0.190660E-06  0.319E-03    8.96       6.1  T
   6    -50.7252203 -0.132620E-07  0.169E-03    8.96      11.6  T
   7    -50.7252203 -0.485529E-08  0.398E-04    8.96      49.3  T
speedup  1.00
cpu  time for SCC    0.01 s
wall time for SCC    0.01 s
speedup  0.99
cpu  time for grad    0.01 s
wall time for grad    0.01 s
 E :    -50.45028787  G :  0.014722    pred/act E change: -0.234D-03 -0.221D-03
Maxdispl :   0.1890   ||displ|| :   0.3496   Lambda : -0.677D-03
Largest |displ|/coords:  0.1890 (   2)  0.1537 (   1)  0.0985 (   4)
................................................................................
.............................. CYCLE   40 ......................................
................................................................................
   1    -50.7311424 -0.507311E+02  0.218E-01    9.02       0.0  T
   2    -50.7312783 -0.135922E-03  0.161E-01    9.00       1.0  T
   3    -50.7313431 -0.647799E-04  0.628E-02    8.90       1.0  T
   4    -50.7313520 -0.888033E-05  0.193E-02    8.89       1.0  T
   5    -50.7313528 -0.859529E-06  0.660E-03    8.90       3.0  T
   6    -50.7313529 -0.533894E-07  0.346E-03    8.90       5.7  T
   7    -50.7313529 -0.183558E-07  0.798E-04    8.90      24.6  T
   8    -50.7313529 -0.265353E-08  0.198E-04    8.90      99.0  T
speedup  1.03
cpu  time for SCC    0.01 s
wall time for SCC    0.01 s
speedup  1.01
cpu  time for grad    0.01 s
wall time for grad    0.01 s
 E :    -50.45078607  G :  0.015773    pred/act E change: -0.169D-03 -0.498D-03
Maxdispl :   0.2361   ||displ|| :   0.3929   Lambda : -0.863D-03
Largest |displ|/coords:  0.2361 (   2)  0.1574 (   1)  0.1016 (  14)
................................................................................
.............................. CYCLE   41 ......................................
................................................................................
   1    -50.7383287 -0.507383E+02  0.256E-01    8.93       0.0  T
   2    -50.7385000 -0.171278E-03  0.191E-01    8.85       1.0  T
   3    -50.7385892 -0.891938E-04  0.740E-02    8.70       1.0  T
   4    -50.7386020 -0.128505E-04  0.233E-02    8.70       1.0  T
   5    -50.7386033 -0.125394E-05  0.837E-03    8.70       2.3  T
   6    -50.7386034 -0.816781E-07  0.427E-03    8.70       4.6  T
   7    -50.7386034 -0.316432E-07  0.896E-04    8.70      21.9  T
   8    -50.7386034 -0.323173E-08  0.230E-04    8.70      85.2  T
speedup  1.01
cpu  time for SCC    0.01 s
wall time for SCC    0.01 s
speedup  1.01
cpu  time for grad    0.01 s
wall time for grad    0.01 s
 E :    -50.45126093  G :  0.019019    pred/act E change: -0.380D-03 -0.475D-03
Maxdispl :   0.1894   ||displ|| :   0.3079   Lambda : -0.100D-02
Largest |displ|/coords:  0.1894 (   3)  0.1696 (   2)  0.0654 (   5)
................................................................................
.............................. CYCLE   42 ......................................
................................................................................
   1    -50.7462248 -0.507462E+02  0.129E-01    8.76       0.0  T
   2    -50.7462392 -0.143712E-04  0.942E-02    8.74       1.0  T
   3    -50.7462446 -0.541075E-05  0.228E-02    8.71       1.0  T
   4    -50.7462464 -0.181342E-05  0.555E-03    8.72       3.5  T
   5    -50.7462465 -0.392048E-07  0.185E-03    8.73      10.6  T
   6    -50.7462465 -0.383863E-08  0.920E-04    8.73      21.3  T
speedup  1.13
cpu  time for SCC    0.01 s
wall time for SCC    0.01 s
speedup  1.04
cpu  time for grad    0.01 s
wall time for grad    0.01 s
 E :    -50.45134192  G :  0.026475    pred/act E change: -0.498D-03 -0.810D-04
Maxdispl :   0.2698   ||displ|| :   0.4168   Lambda : -0.172D-02
Largest |displ|/coords:  0.2698 (   2)  0.1954 (   6)  0.1330 (   3)
................................................................................
.............................. CYCLE   43 ......................................
................................................................................
   1    -50.7348617 -0.507349E+02  0.210E-01    8.59       0.0  T
   2    -50.7348848 -0.230922E-04  0.155E-01    8.60       1.0  T
   3    -50.7348972 -0.124150E-04  0.281E-02    8.59       1.0  T
   4    -50.7349004 -0.322499E-05  0.897E-03    8.57       2.2  T
   5    -50.7349005 -0.126745E-06  0.297E-03    8.57       6.6  T
   6    -50.7349005 -0.128972E-07  0.170E-03    8.57      11.6  T
speedup  0.96
cpu  time for SCC    0.00 s
wall time for SCC    0.01 s
speedup  0.98
cpu  time for grad    0.01 s
wall time for grad    0.01 s
 E :    -50.45193421  G :  0.015848    pred/act E change: -0.550D-03 -0.592D-03
Maxdispl :   0.0690   ||displ|| :   0.1443   Lambda : -0.584D-03
Largest |displ|/coords:  0.0690 (   6)  0.0512 (  11)  0.0475 (   3)
................................................................................
.............................. CYCLE   44 ......................................
................................................................................
   1    -50.7382704 -0.507383E+02  0.112E-01    8.59       0.0  T
   2    -50.7382812 -0.107872E-04  0.843E-02    8.58       1.0  T
   3    -50.7382888 -0.761671E-05  0.192E-02    8.55       1.0  T
   4    -50.7382903 -0.146015E-05  0.612E-03    8.55       3.2  T
   5    -50.7382903 -0.604861E-07  0.249E-03    8.55       7.9  T
   6    -50.7382903 -0.833372E-08  0.134E-03    8.55      14.7  T
speedup  0.94
cpu  time for SCC    0.00 s
wall time for SCC    0.01 s
speedup  0.98
cpu  time for grad    0.01 s
wall time for grad    0.01 s
 E :    -50.45220279  G :  0.008033    pred/act E change: -0.101D-02 -0.269D-03
Maxdispl :   0.0585   ||displ|| :   0.1084   Lambda : -0.184D-03
Largest |displ|/coords:  0.0585 (   2)  0.0567 (   1)  0.0274 (  16)
................................................................................
.............................. CYCLE   45 ......................................
................................................................................
   1    -50.7406515 -0.507407E+02  0.732E-02    8.55       0.0  T
   2    -50.7406530 -0.153583E-05  0.546E-02    8.55       1.0  T
   3    -50.7406540 -0.996633E-06  0.723E-03    8.55       2.7  T
   4    -50.7406542 -0.224008E-06  0.213E-03    8.55       9.2  T
   5    -50.7406542 -0.611858E-08  0.875E-04    8.55      22.4  T
speedup  0.93
cpu  time for SCC    0.00 s
wall time for SCC    0.00 s
speedup  0.98
cpu  time for grad    0.01 s
wall time for grad    0.01 s
 E :    -50.45231278  G :  0.006068    pred/act E change: -0.298D-03 -0.110D-03
Maxdispl :   0.0896   ||displ|| :   0.1709   Lambda : -0.201D-03
Largest |displ|/coords:  0.0896 (   3)  0.0560 (   1)  0.0497 (  11)
................................................................................
.............................. CYCLE   46 ......................................
................................................................................
   1    -50.7399534 -0.507400E+02  0.105E-01    8.50       0.0  T
   2    -50.7399557 -0.224228E-05  0.781E-02    8.50       1.0  T
   3    -50.7399574 -0.175231E-05  0.104E-02    8.50       1.9  T
   4    -50.7399577 -0.285433E-06  0.414E-03    8.50       4.7  T
   5    -50.7399577 -0.174679E-07  0.957E-04    8.50      20.5  T
   6    -50.7399577 -0.118758E-08  0.657E-04    8.50      29.8  T
speedup  0.96
cpu  time for SCC    0.00 s
wall time for SCC    0.01 s
speedup  0.98
cpu  time for grad    0.01 s
wall time for grad    0.01 s
 E :    -50.45246773  G :  0.005195    pred/act E change: -0.928D-04 -0.155D-03
Maxdispl :   0.1223   ||displ|| :   0.3260   Lambda : -0.326D-03
Largest |displ|/coords:  0.1223 (  11)  0.1199 (   1)  0.1062 (   3)
................................................................................
.............................. CYCLE   47 ......................................
................................................................................
   1    -50.7391776 -0.507392E+02  0.214E-01    8.38       0.0  T
   2    -50.7391927 -0.151265E-04  0.161E-01    8.37       1.0  T
   3    -50.7392046 -0.119506E-04  0.266E-02    8.33       1.0  T
   4    -50.7392068 -0.212194E-05  0.106E-02    8.33       1.8  T
   5    -50.7392069 -0.142292E-06  0.297E-03    8.34       6.6  T
   6    -50.7392069 -0.159101E-07  0.197E-03    8.34      10.0  T
speedup  1.15
cpu  time for SCC    0.01 s
wall time for SCC    0.01 s
speedup  1.06
cpu  time for grad    0.01 s
wall time for grad    0.01 s
 E :    -50.45257890  G :  0.009703    pred/act E change: -0.103D-03 -0.111D-03
Maxdispl :   0.0489   ||displ|| :   0.1157   Lambda : -0.167D-03
Largest |displ|/coords:  0.0489 (   6)  0.0418 (   3)  0.0407 (   5)
................................................................................
.............................. CYCLE   48 ......................................
................................................................................
   1    -50.7379811 -0.507380E+02  0.615E-02    8.36       0.0  T
   2    -50.7379840 -0.289476E-05  0.457E-02    8.36       1.0  T
   3    -50.7379855 -0.156719E-05  0.100E-02    8.38       2.0  T
   4    -50.7379859 -0.376107E-06  0.322E-03    8.38       6.1  T
   5    -50.7379859 -0.235919E-07  0.119E-03    8.38      16.5  T
   6    -50.7379859 -0.216217E-08  0.603E-04    8.38      32.5  T
speedup  1.13
cpu  time for SCC    0.01 s
wall time for SCC    0.01 s
speedup  1.05
cpu  time for grad    0.01 s
wall time for grad    0.01 s
 E :    -50.45266663  G :  0.006233    pred/act E change: -0.180D-03 -0.877D-04
Maxdispl :   0.0268   ||displ|| :   0.0525   Lambda : -0.833D-04
Largest |displ|/coords:  0.0268 (   1)  0.0225 (   5)  0.0208 (   3)
................................................................................
.............................. CYCLE   49 ......................................
................................................................................
   1    -50.7392904 -0.507393E+02  0.330E-02    8.42       0.0  T
   2    -50.7392912 -0.870679E-06  0.244E-02    8.42       1.0  T
   3    -50.7392916 -0.381832E-06  0.570E-03    8.41       3.4  T
   4    -50.7392917 -0.111940E-06  0.186E-03    8.41      10.5  T
   5    -50.7392917 -0.594449E-08  0.484E-04    8.41      40.5  T
speedup  1.09
cpu  time for SCC    0.00 s
wall time for SCC    0.00 s
speedup  1.03
cpu  time for grad    0.01 s
wall time for grad    0.01 s
 E :    -50.45272098  G :  0.003599    pred/act E change: -0.845D-04 -0.543D-04
Maxdispl :   0.1337   ||displ|| :   0.2082   Lambda : -0.103D-03
Largest |displ|/coords:  0.1337 (   1)  0.0580 (  15)  0.0541 (  11)
................................................................................
.............................. CYCLE   50 ......................................
................................................................................
   1    -50.7389214 -0.507389E+02  0.132E-01    8.43       0.0  T
   2    -50.7389237 -0.227038E-05  0.994E-02    8.42       1.0  T
   3    -50.7389259 -0.219751E-05  0.939E-03    8.42       2.1  T
   4    -50.7389262 -0.265058E-06  0.379E-03    8.42       5.2  T
   5    -50.7389262 -0.128784E-07  0.112E-03    8.42      17.5  T
   6    -50.7389262 -0.175301E-08  0.657E-04    8.42      29.8  T
   7    -50.7389262 -0.703096E-09  0.143E-04    8.42     137.1  T
speedup  1.15
cpu  time for SCC    0.01 s
wall time for SCC    0.01 s
speedup  1.02
cpu  time for grad    0.01 s
wall time for grad    0.01 s
 E :    -50.45278737  G :  0.003581    pred/act E change: -0.418D-04 -0.664D-04
Maxdispl :   0.0803   ||displ|| :   0.1279   Lambda : -0.494D-04
Largest |displ|/coords:  0.0803 (   1)  0.0483 (  15)  0.0430 (   5)
................................................................................
.............................. CYCLE   51 ......................................
................................................................................
   1    -50.7390504 -0.507391E+02  0.876E-02    8.43       0.0  T
   2    -50.7390520 -0.166952E-05  0.661E-02    8.42       1.0  T
   3    -50.7390532 -0.110801E-05  0.844E-03    8.41       2.3  T
   4    -50.7390534 -0.296020E-06  0.300E-03    8.41       6.5  T
   5    -50.7390535 -0.971831E-08  0.852E-04    8.41      23.0  T
   6    -50.7390535 -0.981601E-09  0.514E-04    8.41      38.2  T
speedup  0.93
cpu  time for SCC    0.00 s
wall time for SCC    0.01 s
speedup  1.00
cpu  time for grad    0.01 s
wall time for grad    0.01 s
 E :    -50.45281862  G :  0.004107    pred/act E change: -0.539D-04 -0.312D-04
Maxdispl :   0.1121   ||displ|| :   0.1424   Lambda : -0.538D-04
Largest |displ|/coords:  0.1121 (   1)  0.0435 (  15)  0.0363 (   4)
................................................................................
.............................. CYCLE   52 ......................................
................................................................................
   1    -50.7389164 -0.507389E+02  0.856E-02    8.43       0.0  T
   2    -50.7389171 -0.697760E-06  0.641E-02    8.44       1.0  T
   3    -50.7389177 -0.613744E-06  0.666E-03    8.44       2.9  T
   4    -50.7389178 -0.742134E-07  0.198E-03    8.44       9.9  T
   5    -50.7389178 -0.435319E-08  0.592E-04    8.44      33.2  T
speedup  1.11
cpu  time for SCC    0.00 s
wall time for SCC    0.00 s
speedup  1.04
cpu  time for grad    0.01 s
wall time for grad    0.01 s
 E :    -50.45285020  G :  0.003774    pred/act E change: -0.251D-04 -0.316D-04
Maxdispl :   0.0573   ||displ|| :   0.0887   Lambda : -0.310D-04
Largest |displ|/coords:  0.0573 (   1)  0.0299 (  11)  0.0250 (  15)

generating ANC from model Hessian ...
 Shifting diagonal of input Hessian by   5.145079576067967E-003
 Lowest  eigenvalues of input Hessian
    0.005000   -0.000000    0.000000    0.000000    0.000000    0.000000
    0.000000    0.005327    0.005730    0.005940    0.006199    0.006526
    0.006838    0.007073    0.007501    0.008285    0.008988    0.010518
 Highest eigenvalues
    1.389674    1.402121    1.411278    2.746999    3.190116    3.797853
 
cpu  time for ANC gen    0.02 s
wall time for ANC gen    0.02 s
................................................................................
.............................. CYCLE   53 ......................................
................................................................................
   1    -50.7390309 -0.507390E+02  0.559E-02    8.44       0.0  T
   2    -50.7390314 -0.539440E-06  0.419E-02    8.44       1.0  T
   3    -50.7390319 -0.471763E-06  0.552E-03    8.44       3.6  T
   4    -50.7390320 -0.684313E-07  0.173E-03    8.44      11.4  T
   5    -50.7390320 -0.349438E-08  0.506E-04    8.44      38.7  T
   6    -50.7390320 -0.328072E-09  0.316E-04    8.44      62.0  T
speedup  1.15
cpu  time for SCC    0.01 s
wall time for SCC    0.01 s
speedup  1.01
cpu  time for grad    0.01 s
wall time for grad    0.01 s
 E :    -50.45287081  G :  0.003015    pred/act E change:  0.000D+00 -0.206D-04
Maxdispl :   0.0302   ||displ|| :   0.0507   Lambda : -0.273D-04
Largest |displ|/coords:  0.0302 (   6)  0.0205 (   4)  0.0185 (   7)
................................................................................
.............................. CYCLE   54 ......................................
................................................................................
   1    -50.7395206 -0.507395E+02  0.281E-02    8.45       0.0  T
   2    -50.7395207 -0.959524E-07  0.210E-02    8.45       1.0  T
   3    -50.7395207 -0.624680E-07  0.179E-03    8.45      11.0  T
   4    -50.7395207 -0.151456E-07  0.703E-04    8.45      27.9  T
   5    -50.7395207 -0.579760E-09  0.230E-04    8.45      85.2  T
speedup  1.06
cpu  time for SCC    0.01 s
wall time for SCC    0.00 s
speedup  0.98
cpu  time for grad    0.01 s
wall time for grad    0.01 s
 E :    -50.45289351  G :  0.001836    pred/act E change:  0.000D+00 -0.227D-04
Maxdispl :   0.1087   ||displ|| :   0.1614   Lambda : -0.598D-04
Largest |displ|/coords:  0.1087 (   6)  0.0648 (   7)  0.0431 (   1)
................................................................................
.............................. CYCLE   55 ......................................
................................................................................
   1    -50.7397078 -0.507397E+02  0.886E-02    8.45       0.0  T
   2    -50.7397088 -0.961479E-06  0.662E-02    8.46       1.0  T
   3    -50.7397093 -0.518343E-06  0.570E-03    8.47       3.4  T
   4    -50.7397095 -0.179865E-06  0.213E-03    8.47       9.2  T
   5    -50.7397095 -0.477046E-08  0.723E-04    8.46      27.1  T
   6    -50.7397095 -0.633420E-09  0.373E-04    8.46      52.6  T
speedup  0.93
cpu  time for SCC    0.00 s
wall time for SCC    0.01 s
speedup  1.01
cpu  time for grad    0.01 s
wall time for grad    0.01 s
 E :    -50.45293353  G :  0.002498    pred/act E change: -0.137D-04 -0.400D-04
Maxdispl :   0.0785   ||displ|| :   0.1231   Lambda : -0.286D-04
Largest |displ|/coords:  0.0785 (   6)  0.0613 (   7)  0.0319 (   1)
................................................................................
.............................. CYCLE   56 ......................................
................................................................................
   1    -50.7394408 -0.507394E+02  0.691E-02    8.46       0.0  T
   2    -50.7394413 -0.491136E-06  0.517E-02    8.46       1.0  T
   3    -50.7394417 -0.375113E-06  0.405E-03    8.46       4.8  T
   4    -50.7394418 -0.732526E-07  0.178E-03    8.46      11.0  T
   5    -50.7394418 -0.304215E-08  0.555E-04    8.46      35.3  T
   6    -50.7394418 -0.424684E-09  0.310E-04    8.46      63.2  T
speedup  0.94
cpu  time for SCC    0.00 s
wall time for SCC    0.01 s
speedup  1.01
cpu  time for grad    0.01 s
wall time for grad    0.01 s
 E :    -50.45295348  G :  0.003714    pred/act E change: -0.307D-04 -0.200D-04
Maxdispl :   0.0737   ||displ|| :   0.1271   Lambda : -0.391D-04
Largest |displ|/coords:  0.0737 (   6)  0.0644 (   7)  0.0327 (   1)
................................................................................
.............................. CYCLE   57 ......................................
................................................................................
   1    -50.7395399 -0.507395E+02  0.745E-02    8.46       0.0  T
   2    -50.7395405 -0.688118E-06  0.559E-02    8.45       1.0  T
   3    -50.7395412 -0.625272E-06  0.489E-03    8.45       4.0  T
   4    -50.7395412 -0.819373E-07  0.216E-03    8.45       9.1  T
   5    -50.7395413 -0.422597E-08  0.632E-04    8.45      31.1  T
   6    -50.7395413 -0.590092E-09  0.378E-04    8.45      51.9  T
speedup  0.94
cpu  time for SCC    0.00 s
wall time for SCC    0.01 s
speedup  1.01
cpu  time for grad    0.01 s
wall time for grad    0.01 s
 E :    -50.45298115  G :  0.002986    pred/act E change: -0.145D-04 -0.277D-04
Maxdispl :   0.0485   ||displ|| :   0.0887   Lambda : -0.257D-04
Largest |displ|/coords:  0.0485 (   7)  0.0402 (   6)  0.0284 (   4)
................................................................................
.............................. CYCLE   58 ......................................
................................................................................
   1    -50.7401155 -0.507401E+02  0.504E-02    8.45       0.0  T
   2    -50.7401161 -0.585649E-06  0.376E-02    8.45       1.0  T
   3    -50.7401165 -0.330461E-06  0.479E-03    8.44       4.1  T
   4    -50.7401166 -0.103317E-06  0.147E-03    8.45      13.3  T
   5    -50.7401166 -0.238386E-08  0.528E-04    8.45      37.2  T
   6    -50.7401166 -0.396426E-09  0.292E-04    8.45      67.3  T
speedup  1.13
cpu  time for SCC    0.01 s
wall time for SCC    0.01 s
speedup  1.01
cpu  time for grad    0.01 s
wall time for grad    0.01 s
 E :    -50.45299660  G :  0.001463    pred/act E change: -0.199D-04 -0.155D-04
Maxdispl :   0.0810   ||displ|| :   0.1315   Lambda : -0.145D-04
Largest |displ|/coords:  0.0810 (   6)  0.0648 (   7)  0.0473 (   1)
................................................................................
.............................. CYCLE   59 ......................................
................................................................................
   1    -50.7395377 -0.507395E+02  0.729E-02    8.43       0.0  T
   2    -50.7395383 -0.602316E-06  0.546E-02    8.43       1.0  T
   3    -50.7395389 -0.578673E-06  0.502E-03    8.43       3.9  T
   4    -50.7395390 -0.619130E-07  0.202E-03    8.43       9.7  T
   5    -50.7395390 -0.409269E-08  0.595E-04    8.43      33.0  T
   6    -50.7395390 -0.503768E-09  0.367E-04    8.43      53.4  T
speedup  0.96
cpu  time for SCC    0.01 s
wall time for SCC    0.01 s
speedup  1.01
cpu  time for grad    0.01 s
wall time for grad    0.01 s
 E :    -50.45299836  G :  0.002552    pred/act E change: -0.129D-04 -0.175D-05
Maxdispl :   0.0300   ||displ|| :   0.0477   Lambda : -0.133D-04
Largest |displ|/coords:  0.0300 (   6)  0.0238 (   7)  0.0119 (   8)
................................................................................
.............................. CYCLE   60 ......................................
................................................................................
   1    -50.7404070 -0.507404E+02  0.274E-02    8.45       0.0  T
   2    -50.7404072 -0.142723E-06  0.205E-02    8.44       1.0  T
   3    -50.7404073 -0.709006E-07  0.217E-03    8.44       9.0  T
   4    -50.7404073 -0.282876E-07  0.701E-04    8.44      28.0  T
   5    -50.7404073 -0.473030E-09  0.252E-04    8.44      77.9  T
speedup  0.91
cpu  time for SCC    0.00 s
wall time for SCC    0.00 s
speedup  0.98
cpu  time for grad    0.01 s
wall time for grad    0.01 s
 E :    -50.45300426  G :  0.000709    pred/act E change: -0.739D-05 -0.590D-05
Maxdispl :   0.0115   ||displ|| :   0.0236   Lambda : -0.311D-05
Largest |displ|/coords:  0.0115 (   1)  0.0113 (   7)  0.0096 (   6)
................................................................................
.............................. CYCLE   61 ......................................
................................................................................
   1    -50.7403975 -0.507404E+02  0.143E-02    8.44       0.0  T
   2    -50.7403975 -0.162021E-07  0.107E-02    8.44       1.8  T
   3    -50.7403975 -0.168950E-07  0.927E-04    8.45      21.2  T
   4    -50.7403975 -0.132571E-08  0.288E-04    8.44      68.1  T
speedup  0.81
cpu  time for SCC    0.00 s
wall time for SCC    0.00 s
speedup  0.98
cpu  time for grad    0.01 s
wall time for grad    0.01 s
 E :    -50.45300569  G :  0.000628    pred/act E change: -0.666D-05 -0.143D-05
Maxdispl :   0.0176   ||displ|| :   0.0298   Lambda : -0.223D-05
Largest |displ|/coords:  0.0176 (   6)  0.0160 (   1)  0.0119 (   7)
................................................................................
.............................. CYCLE   62 ......................................
................................................................................
   1    -50.7404154 -0.507404E+02  0.162E-02    8.45       0.0  T
   2    -50.7404154 -0.310950E-07  0.121E-02    8.45       1.6  T
   3    -50.7404155 -0.273920E-07  0.127E-03    8.45      15.4  T
   4    -50.7404155 -0.338860E-08  0.499E-04    8.45      39.3  T
   5    -50.7404155 -0.215813E-09  0.113E-04    8.45     173.6  T
speedup  0.89
cpu  time for SCC    0.00 s
wall time for SCC    0.00 s
speedup  1.00
cpu  time for grad    0.01 s
wall time for grad    0.01 s
 E :    -50.45300725  G :  0.000522    pred/act E change: -0.156D-05 -0.156D-05
Maxdispl :   0.0167   ||displ|| :   0.0251   Lambda : -0.132D-05
Largest |displ|/coords:  0.0167 (   6)  0.0133 (   1)  0.0070 (   7)
................................................................................
.............................. CYCLE   63 ......................................
................................................................................
   1    -50.7404586 -0.507405E+02  0.126E-02    8.45       0.0  T
   2    -50.7404586 -0.168015E-07  0.938E-03    8.45       2.1  T
   3    -50.7404587 -0.139330E-07  0.989E-04    8.45      19.8  T
   4    -50.7404587 -0.174529E-08  0.356E-04    8.45      55.0  T
speedup  0.86
cpu  time for SCC    0.00 s
wall time for SCC    0.00 s
speedup  0.99
cpu  time for grad    0.01 s
wall time for grad    0.01 s
 E :    -50.45300809  G :  0.000498    pred/act E change: -0.111D-05 -0.842D-06
Maxdispl :   0.0074   ||displ|| :   0.0135   Lambda : -0.701D-06
Largest |displ|/coords:  0.0074 (   6)  0.0059 (   1)  0.0044 (   7)
................................................................................
.............................. CYCLE   64 ......................................
................................................................................
   1    -50.7404829 -0.507405E+02  0.711E-03    8.45       0.0  T
   2    -50.7404829 -0.521855E-08  0.526E-03    8.45       3.7  T
   3    -50.7404829 -0.375987E-08  0.583E-04    8.45      33.6  T
   4    -50.7404829 -0.547168E-09  0.128E-04    8.45     153.2  T
speedup  0.86
cpu  time for SCC    0.00 s
wall time for SCC    0.00 s
speedup  0.99
cpu  time for grad    0.01 s
wall time for grad    0.01 s
 E :    -50.45300858  G :  0.000401    pred/act E change: -0.663D-06 -0.492D-06
Maxdispl :   0.0102   ||displ|| :   0.0159   Lambda : -0.757D-06
Largest |displ|/coords:  0.0102 (   6)  0.0060 (   8)  0.0049 (   1)
................................................................................
.............................. CYCLE   65 ......................................
................................................................................
   1    -50.7404929 -0.507405E+02  0.967E-03    8.45       0.0  T
   2    -50.7404929 -0.894471E-08  0.720E-03    8.45       2.7  T
   3    -50.7404929 -0.891693E-08  0.734E-04    8.45      26.7  T
   4    -50.7404929 -0.723738E-09  0.139E-04    8.45     141.3  T
speedup  0.83
cpu  time for SCC    0.00 s
wall time for SCC    0.00 s
speedup  0.98
cpu  time for grad    0.01 s
wall time for grad    0.01 s
 E :    -50.45300910  G :  0.000308    pred/act E change: -0.350D-06 -0.513D-06
Maxdispl :   0.0054   ||displ|| :   0.0110   Lambda : -0.438D-06
Largest |displ|/coords:  0.0054 (   6)  0.0049 (   8)  0.0039 (   2)
................................................................................
.............................. CYCLE   66 ......................................
................................................................................
   1    -50.7404721 -0.507405E+02  0.723E-03    8.45       0.0  T
   2    -50.7404721 -0.534168E-08  0.540E-03    8.45       3.6  T
   3    -50.7404721 -0.482081E-08  0.503E-04    8.45      39.0  T
   4    -50.7404721 -0.518980E-09  0.133E-04    8.45     147.8  T
speedup  0.83
cpu  time for SCC    0.00 s
wall time for SCC    0.00 s
speedup  0.99
cpu  time for grad    0.01 s
wall time for grad    0.01 s
 E :    -50.45300939  G :  0.000202    pred/act E change: -0.379D-06 -0.298D-06
Maxdispl :   0.0041   ||displ|| :   0.0070   Lambda : -0.220D-06
Largest |displ|/coords:  0.0041 (   2)  0.0024 (   8)  0.0023 (   9)
................................................................................
.............................. CYCLE   67 ......................................
................................................................................
   1    -50.7404671 -0.507405E+02  0.478E-03    8.45       0.0  T
   2    -50.7404671 -0.296297E-08  0.359E-03    8.45       5.5  T
   3    -50.7404671 -0.279465E-08  0.343E-04    8.45      57.3  T
   4    -50.7404671 -0.315133E-09  0.118E-04    8.45     165.6  T
speedup  0.83
cpu  time for SCC    0.00 s
wall time for SCC    0.00 s
speedup  0.98
cpu  time for grad    0.01 s
wall time for grad    0.01 s
 E :    -50.45300955  G :  0.000142    pred/act E change: -0.219D-06 -0.153D-06
Maxdispl :   0.0036   ||displ|| :   0.0062   Lambda : -0.140D-06
Largest |displ|/coords:  0.0036 (   2)  0.0025 (   9)  0.0024 (   3)
................................................................................
.............................. CYCLE   68 ......................................
................................................................................
   1    -50.7404615 -0.507405E+02  0.371E-03    8.45       0.0  T
   2    -50.7404615 -0.163285E-08  0.278E-03    8.45       7.1  T
   3    -50.7404615 -0.166676E-08  0.311E-04    8.45      63.1  T
   4    -50.7404615 -0.134868E-09  0.976E-05    8.45     201.0  T
speedup  0.83
cpu  time for SCC    0.00 s
wall time for SCC    0.00 s
speedup  0.99
cpu  time for grad    0.01 s
wall time for grad    0.01 s
 E :    -50.45300965  G :  0.000138    pred/act E change: -0.110D-06 -0.105D-06
Maxdispl :   0.0035   ||displ|| :   0.0081   Lambda : -0.125D-06
Largest |displ|/coords:  0.0035 (   2)  0.0031 (   6)  0.0031 (   9)
................................................................................
.............................. CYCLE   69 ......................................
................................................................................
   1    -50.7404559 -0.507405E+02  0.428E-03    8.45       0.0  T
   2    -50.7404559 -0.143139E-08  0.320E-03    8.45       6.1  T
   3    -50.7404559 -0.152444E-08  0.264E-04    8.45      74.2  T
   4    -50.7404559 -0.104137E-09  0.848E-05    8.45     231.2  T
speedup  0.86
cpu  time for SCC    0.00 s
wall time for SCC    0.00 s
speedup  0.99
cpu  time for grad    0.01 s
wall time for grad    0.01 s
 E :    -50.45300975  G :  0.000161    pred/act E change: -0.702D-07 -0.933D-07
Maxdispl :   0.0038   ||displ|| :   0.0073   Lambda : -0.110D-06
Largest |displ|/coords:  0.0038 (   2)  0.0030 (   3)  0.0030 (   9)

   *** GEOMETRY OPTIMIZATION CONVERGED AFTER 69 ITERATIONS ***

------------------------------------------------------------------------
 total energy gain (kcal):     -0.0872
------------------------------------------------------------------------
================
 final structure:
================
$coord
        3.14807886943663        1.32247400923910        2.00282355873357      S 
        4.31454305135158       -0.21933066821162       -0.16530231577458      O 
        1.15534735331625       -0.45857113886492        3.18067196691574      O 
        5.01391447329140        1.94324558419145        3.81297568697628      O 
        1.80067062038666        3.44698883513857        0.89202127009275      O 
       -1.82068246259264       -0.03484979225809       -3.99649397334692      O 
       -2.95431451565943        0.30783628028152       -5.36542258255488      H 
       -2.88184332097346        5.06432040062030        1.89853705644105      O 
       -1.10458073761222        4.83365130783268        1.45435066340385      H 
       -2.90071833162075        5.85529384091839        3.52738416874330      H 
       -3.07437579916473        0.10942367316016        0.98505284074168      O 
       -2.78321223853586        0.04316095849087       -0.83952406784404      H 
       -0.55153354863216       -0.25615162192953        2.28521454911234      H 
       -3.41522826467280        1.89411879667875        1.36114197326008      H 
        2.13477727542865        2.94338309109457       -4.05943994362288      O 
        3.66840750331224        1.98345568498550       -4.21258585313738      H 
       -0.39713363372838        1.18406730264453       -4.16196699464375      H 
        2.05313137999393        3.44693573984121       -2.27839184239663      H 
        1.37717678770942       -3.51688451654423       -1.86912005473744      O 
        3.12366795665027       -1.63264405982977       -0.84779529001059      H 
        0.42641720950713       -4.31418332859918       -0.45085076425972      H 
        0.13675206486965       -2.59659413718098       -2.86161309218292      H 
       -1.35391363183800       -5.29048447773043        1.99486132958823      N 
       -1.90625999394130       -7.10678103765653        2.22150801050518      H 
       -2.90960954131887       -4.17329946377125        1.98385354641288      H 
       -0.29947850606701       -4.77858124364310        3.50811017248251      H 
$end
 
 Bond Distances (Angstroems)
 ---------------------------
S1-O2=1.5372         S1-O3=1.5456         S1-O4=1.4143         S1-O5=1.4553         O2-S1=1.5372         O2-H20=1.0426        
O3-S1=1.5456         O3-H13=1.0256        O4-S1=1.4143         O5-S1=1.4553         O6-H7=0.9579         O6-H17=0.9956        
H7-O6=0.9579         O8-H9=0.9771         O8-H10=0.9583        H9-O8=0.9771         H10-O8=0.9583        O11-H12=0.9784       
O11-H14=0.9819       H12-O11=0.9784       H13-O3=1.0256        H14-O11=0.9819       O15-H16=0.9609       O15-H18=0.9804       
H16-O15=0.9609       H17-O6=0.9956        H18-O15=0.9804       O19-H21=0.9972       O19-H22=0.9715       H20-O2=1.0426        
H21-O19=0.9972       H22-O19=0.9715       N23-H24=1.0117       N23-H25=1.0135       N23-H26=1.0129       H24-N23=1.0117       
H25-N23=1.0135       H26-N23=1.0129       
 N  H  Rav=1.0127 sigma=0.0007  Rmin=1.0117  Rmax=1.0135     3
 O  H  Rav=0.9856 sigma=0.0251  Rmin=0.9579  Rmax=1.0426    12
 S  O  Rav=1.4881 sigma=0.0553  Rmin=1.4143  Rmax=1.5456     4
 
 selected bond angles (degree)
 --------------------
O3-S1-O2=104.55                O4-S1-O2=110.39                O4-S1-O3=110.17                O5-S1-O2=107.78                
O5-S1-O3=107.44                O5-S1-O4=115.86                H20-O2-S1=113.36               H13-O3-S1=110.54               
H17-O6-H7=106.54               H10-O8-H9=106.32               
 
 selected dihedral angles (degree)
 ---------------------------------
H20-O2-S1-O3= 24.30           H20-O2-S1-O4=142.76           H20-O2-S1-O5=270.19           H13-O3-S1-O2=271.51           
H13-O3-S1-O4=152.90           H13-O3-S1-O5= 25.85           
 
 CMA Distance (Angstroems)
 ---------------------------
R(CMA):  2.6585

========================================================================
 FINAL SINGLEPOINT CALCULATION ON OPTIMIZED GEOMETRY
========================================================================

 Ncao       : 65
 Nao        : 64
 Nshell     : 38
 Nel        : 80
 T(el)      :   300.0
 intcut     :    25.0
 scfconv/Eh :  0.100E-05
   qconv/e  :  0.100E-03
 intneglect :  0.100E-07
 broydamp   :      0.250
 iter      E             dE          RMSdq      gap      omega  full diag
   1    -50.7404559 -0.507405E+02  0.295E-05    8.45       0.0  T
   2    -50.7404559 -0.802913E-12  0.195E-05    8.45    1006.4  T
   3    -50.7404559 -0.333955E-12  0.472E-06    8.45    4156.5  T
speedup  1.11
cpu  time for SCC    0.00 s
wall time for SCC    0.00 s

   *** convergence criteria satisfied after 3 iterations ***

          eigenvalues
 #    :          28         29         30         31         32         33         34         35
 occ. :        2.000      2.000      2.000      2.000      2.000      2.000      2.000      2.000
 eps  :       -13.773    -13.392    -13.038    -12.753    -12.673    -12.599    -12.523    -12.355
 #    :          36         37         38         39         40         41         42         43
 occ. :        2.000      2.000      2.000      2.000      2.000      0.000      0.000      0.000
 eps  :       -12.257    -12.192    -12.170    -12.062    -11.381     -2.932     -0.979     -0.540
 #    :          44         45         46         47         48         49         50         51
 occ. :        0.000      0.000      0.000      0.000      0.000      0.000      0.000      0.000
 eps  :         0.119      0.852      1.063      1.537      2.994      3.539      4.215      5.396


   #   Z            q   n(s)   n(p)   n(d)      C6AA      α(0)
   1  16 S      1.689  1.573  1.787  0.951    89.024    15.880
   2   8 O     -0.638  1.760  4.878  0.000    26.088     6.895
   3   8 O     -0.634  1.760  4.874  0.000    26.000     6.883
   4   8 O     -0.642  1.752  4.890  0.000    27.184     6.990
   5   8 O     -0.738  1.765  4.974  0.000    29.775     7.316
   6   8 O     -0.635  1.748  4.886  0.000    26.039     6.887
   7   1 H      0.290  0.710  0.000  0.000     0.750     1.361
   8   8 O     -0.605  1.742  4.863  0.000    25.302     6.789
   9   1 H      0.328  0.672  0.000  0.000     0.642     1.259
  10   1 H      0.287  0.713  0.000  0.000     0.763     1.372
  11   8 O     -0.632  1.763  4.869  0.000    25.950     6.876
  12   1 H      0.333  0.667  0.000  0.000     0.630     1.247
  13   1 H      0.394  0.606  0.000  0.000     0.494     1.102
  14   1 H      0.337  0.663  0.000  0.000     0.620     1.237
  15   8 O     -0.608  1.745  4.863  0.000    25.387     6.800
  16   1 H      0.300  0.700  0.000  0.000     0.721     1.333
  17   1 H      0.342  0.658  0.000  0.000     0.609     1.226
  18   1 H      0.327  0.673  0.000  0.000     0.644     1.261
  19   8 O     -0.619  1.759  4.859  0.000    25.612     6.832
  20   1 H      0.397  0.603  0.000  0.000     0.486     1.093
  21   1 H      0.330  0.670  0.000  0.000     0.638     1.255
  22   1 H      0.329  0.671  0.000  0.000     0.641     1.258
  23   7 N     -0.443  1.363  4.080  0.000    31.621     8.351
  24   1 H      0.159  0.841  0.000  0.000     1.340     1.813
  25   1 H      0.180  0.820  0.000  0.000     1.212     1.724
  26   1 H      0.173  0.827  0.000  0.000     1.256     1.755

 Mol. C6AA /au·bohr⁶  :       5454.383073
 Mol. C8AA /au·bohr⁸  :     117808.619065
 Mol. α(0) /au        :        106.795246

 
 Wiberg/Mayer (AO) data. WBOs > 0.1 written file <wbo>
 largest (>0.05) Wiberg bond orders for each atom
           total WBO             WBO to atom ...
     1  S   4.874    O    4 1.514    O    5 1.297    O    2 1.018    O    3 0.999
     2  O   1.949    S    1 1.018    H   20 0.629    O    5 0.084    O    4 0.082    O    3 0.068    O   19 0.055
     3  O   1.957    S    1 0.999    H   13 0.663    O    5 0.087    O    4 0.079    O    2 0.068    O   11 0.051
     4  O   1.818    S    1 1.514    O    5 0.119    O    2 0.082    O    3 0.079
     5  O   1.731    S    1 1.297    O    4 0.119    O    3 0.087    O    2 0.084    H   18 0.058
     6  O   1.867    H    7 0.906    H   17 0.791    H   12 0.053
     7  H   0.916    O    6 0.906
     8  O   1.869    H   10 0.913    H    9 0.843    H   14 0.059
     9  H   0.892    O    8 0.843
    10  H   0.918    O    8 0.913
    11  O   1.943    H   12 0.833    H   14 0.824    H   13 0.162    O    3 0.051
    12  H   0.889    O   11 0.833    O    6 0.053
    13  H   0.845    O    3 0.663    O   11 0.162
    14  H   0.886    O   11 0.824    O    8 0.059
    15  O   1.898    H   16 0.903    H   18 0.832    H   17 0.090
    16  H   0.910    O   15 0.903
    17  H   0.883    O    6 0.791    O   15 0.090
    18  H   0.893    O   15 0.832    O    5 0.058
    19  O   1.970    H   22 0.851    H   21 0.789    H   20 0.193    O    2 0.055
    20  H   0.842    O    2 0.629    O   19 0.193
    21  H   0.891    O   19 0.789    N   23 0.099
    22  H   0.892    O   19 0.851
    23  N   3.049    H   24 0.971    H   26 0.965    H   25 0.961    H   21 0.099
    24  H   0.975    N   23 0.971
    25  H   0.967    N   23 0.961
    26  H   0.970    N   23 0.965
 MOs/occ written to file <molden.input>
 
molecular dipole:
                 x           y           z       tot (Debye)
 q only:       -1.592      -1.109      -0.662
   full:       -1.743      -0.991      -0.398       5.196
molecular quadrupole (traceless):
                xx          xy          yy          xz          yz          zz
 q only:       -8.004      -1.105       4.688      -7.380      -2.112       3.316
  q+dip:       -9.593       0.835       4.541      -7.847      -3.489       5.053
   full:       -9.404       0.842       4.306      -7.798      -3.321       5.097

SCC energy    :     -50.7404559
rep           :       0.2871050
ES            :       0.2331727
AES           :      -0.0535306
AXC           :      -0.0068994
disp          :      -0.0193936
XB            :       0.0000000
fix           :       0.0000000
total E       :     -50.4530097
atomizationE  :       4.9833139     3127.08
(atE without considering molecular charge,
 total energy contains solvation terms)
H-L gap (eV)  :          8.4491
optimized geometry written to: xtbopt.xyz


------------------------------------------------------------------------
 * finished run on 2019/09/16 at 12:11:38.218     
------------------------------------------------------------------------
 total:
 * wall-time:     0 d,  0 h,  0 min,  1.715 sec
 *  cpu-time:     0 d,  0 h,  0 min,  1.695 sec
 * ratio c/w:     0.988 speedup
 SCF:
 * wall-time:     0 d,  0 h,  0 min,  0.148 sec
 *  cpu-time:     0 d,  0 h,  0 min,  0.144 sec
 * ratio c/w:     0.975 speedup
 ANC optimizer:
 * wall-time:     0 d,  0 h,  0 min,  1.543 sec
 *  cpu-time:     0 d,  0 h,  0 min,  1.529 sec
 * ratio c/w:     0.991 speedup

