      -----------------------------------------------------------      
     |                   =====================                   |     
     |                           x T B                           |     
     |                   =====================                   |     
     |                         S. Grimme                         |     
     |          Mulliken Center for Theoretical Chemistry        |     
     |                    University of Bonn                     |     
     |                 Version 6.0.1 (SAW181210)                 |     
      -----------------------------------------------------------      

   This program is distributed in the hope that it will be useful,
   but WITHOUT ANY WARRANTY; without even the implied warranty of
   MERCHANTABILITY or FITNESS FOR A PARTICULAR PURPOSE.
   
   FOR NON-COMMERCIAL, ACADEMIA USE ONLY.
   
   Cite this work as:
   S. Grimme, C. Bannwarth, P. Shushkov, J. Comput. Theory Chem., 2017,
   13, 1989-2009.
   C. Bannwarth, S. Ehlert and S. Grimme., ChemRxiv, 2018, preprint.
   http://doi.org/10.26434/chemrxiv.7246238.v1
   
   for sTDA-xTB:
   S. Grimme and C. Bannwarth, J. Chem. Phys., 2016, 145, 054103.
   
   in the mass-spec context:
   V. Asgeirsson, C. Bauer and S. Grimme, Chem. Sci., 2017, 8, 4879.
   
   if GBSA is used:
   P. Shushkov, F. März and S. Grimme, unpublished.
   
   for ANC optimizer:
   S. Grimme, unpublished.
   Rational Function algorithm used in ANCopt:
   F. Eckert, P. Pulay, H.-J. Werner, J. Comput. Chem., 1997, 18, 1473.
   
   with help from (in alphabetical order)
   C. Bannwarth, F. Bohle, G. Brandenburg, E. Caldeweyher, M. Checinski,
   S. Dohm, S. Ehlert, S. Ehrlich, F. März, H. Neugebauer, J. Pisarek,
   P. Pracht, P. Shushkov, and S. Spicher.
   
 * started run on 2019/09/16 at 12:43:20.466     
========================================================================
 # omp threads = 1
========================================================================
number of atoms            : 26
number of electrons        : 80
charge                     : 0
spin                       : .0
first test random number   : .2910

########################################################################
# WARNING! Please study the warnings concerning your input carefully
#  - XTBPATH is not set, using XTBHOME instead
#  - the use of '-opt' is discouraged, please use '--opt' next time
#  - the use of '-chrg' is discouraged, please use '--chrg' next time
#  - the use of '-uhf' is discouraged, please use '--uhf' next time
########################################################################

           ------------------------------------------------- 
          |                 G F N 2 - x T B                 |
          | Geometry, Frequencies, Noncovalent interactions |
          |            JCTC 2018 parametrisation            |
           ------------------------------------------------- 
      method parameters     
 k(s)        :  1.8500
 k(p)        :  2.2300
 k(d)        :  2.2300
 k(f)        :  2.0000
 kEN (H0ij)  : -2.0000
 D4 a1       :  0.5200
 D4 a2       :  5.0000
 D4 s6       :  1.0000
 D4 s8       :  2.7000
 D4 s9       :  5.0000
 alphaj      :  2.0000


            Z     q(EN)     CN     RAES       Cart. coordinates
     1  S   6.0    0.67    4.16    3.97     0.26753    -0.51057     2.03848
     2  O   6.0   -0.32    1.21    1.80    -1.97911    -2.17898     1.72685
     3  O   6.0   -0.30    1.20    1.80     0.99333    -0.41175     4.75722
     4  O   6.0   -0.33    1.22    1.80     2.41362    -1.53486     0.53075
     5  O   6.0   -0.33    1.22    1.80    -0.35772     2.08333     1.13908
     6  O   6.0   -0.36    1.56    1.80    -0.77176    -0.84550    -5.82295
     7  H   1.0    0.17    0.94    1.42    -1.49270    -0.84955    -7.54457
     8  O   6.0   -0.29    2.04    1.83    -5.80392    -0.64874     4.73099
     9  H   1.0    0.15    0.97    1.43    -7.26330    -1.73699     4.75386
    10  H   1.0    0.17    1.05    1.44    -4.62778    -1.44449     3.59164
    11  O   6.0   -0.22    2.93    2.62    -0.31275    -4.10633    -2.74946
    12  H   1.0    0.14    1.03    1.43     1.27845    -3.73525    -1.84379
    13  H   1.0    0.14    0.99    1.43    -1.78673    -4.11299    -1.60170
    14  H   1.0    0.16    1.22    1.47    -0.56860    -2.96772    -4.20878
    15  O   6.0   -0.22    2.92    2.60     1.09442     2.60269    -3.57172
    16  H   1.0    0.13    1.06    1.44     2.94012     2.32834    -3.48254
    17  H   1.0    0.16    1.22    1.47     0.24703     1.32420    -4.63822
    18  H   1.0    0.15    1.07    1.44     0.32206     2.71968    -1.87428
    19  O   6.0   -0.22    2.92    2.58    -2.51673     2.72704     6.06211
    20  H   1.0    0.15    1.06    1.44    -0.98648     1.67832     6.28201
    21  H   1.0    0.13    0.97    1.43    -2.34458     3.92796     4.64149
    22  H   1.0    0.14    1.04    1.44    -4.06199     1.68689     5.91447
    23  N   5.0   -0.22    3.04    1.93     5.96708     1.31199    -2.50795
    24  H   1.0    0.13    1.02    1.43     5.09323     0.14748    -1.24645
    25  H   1.0    0.11    0.99    1.43     7.19362     2.37785    -1.47325
    26  H   1.0    0.10    0.99    1.43     7.06365     0.16795    -3.60328

  Z AO/shell   Hii/eV     exponent
  1     Wed Apr 25 08:07:45 CEST 2018   EN: 2.200 GM2: 0.406  GM3: 0.0800  RAES: 1.40
     1s    -10.707211    1.230000
  7     Wed Apr 25 08:07:45 CEST 2018   EN: 3.040 GM2: 0.461  GM3:-0.0640  RAES: 1.90
     2s    -16.686243    2.339881
     2p    -12.523956    2.014332
  8     Wed Apr 25 08:07:45 CEST 2018   EN: 3.440 GM2: 0.452  GM3:-0.0517  RAES: 1.80
     2s    -20.229985    2.439742
     2p    -15.503117    2.137023
 16     Tue Apr 24 11:44:34 CEST 2018   EN: 2.580 GM2: 0.340  GM3:-0.0502  RAES: 3.10
     3s    -20.029654    1.981333
     3p    -11.377694    2.025643
     3d     -0.420282    1.702555
 no old-style atom pair restraining (fixing) potential

molecular fragmentation (1/2 indicates fragments):
11111222222222222222222222
# atoms in fragment 1/2:     5    21
 fragment masses (1/2) :       96.06      109.12
CMA distance (Bohr)    :   2.789
constraining FC (au)   :  0.0500
           ------------------------------------------------- 
          |        Self-Consistent Charge Iterations        |
           ------------------------------------------------- 

 Ncao       : 65
 Nao        : 64
 Nshell     : 38
 Nel        : 80
 T(el)      :   300.0
 intcut     :    25.0
 scfconv/Eh :  0.100E-05
   qconv/e  :  0.100E-03
 intneglect :  0.100E-07
 broydamp   :      0.250
 iter      E             dE          RMSdq      gap      omega  full diag
   1    -50.5303387 -0.505303E+02  0.702E+00   10.22       0.0  T
   2    -50.5714959 -0.411572E-01  0.504E+00    9.92       1.0  T
   3    -50.6060611 -0.345652E-01  0.111E+00    6.62       1.0  T
   4    -50.6105726 -0.451150E-02  0.531E-01    7.03       1.0  T
   5    -50.6112736 -0.701038E-03  0.244E-01    7.04       1.0  T
   6    -50.6115426 -0.269005E-03  0.122E-01    7.14       1.0  T
   7    -50.6116305 -0.878920E-04  0.451E-02    7.18       1.0  T
   8    -50.6116397 -0.920421E-05  0.270E-02    7.18       1.0  T
   9    -50.6116439 -0.416230E-05  0.107E-02    7.19       1.8  T
  10    -50.6116444 -0.563368E-06  0.202E-03    7.20       9.7  T
  11    -50.6116444 -0.138062E-07  0.105E-03    7.20      18.7  T
  12    -50.6116444 -0.410692E-08  0.324E-04    7.20      60.5  T
  13    -50.6116444 -0.503022E-09  0.626E-05    7.20     313.2  T
speedup  1.02
cpu  time for SCC    0.02 s
wall time for SCC    0.02 s

   *** convergence criteria satisfied after 13 iterations ***

          eigenvalues
 #    :          28         29         30         31         32         33         34         35
 occ. :        2.000      2.000      2.000      2.000      2.000      2.000      2.000      2.000
 eps  :       -12.353    -11.915    -11.026    -10.933    -10.855    -10.268    -10.145    -10.091
 #    :          36         37         38         39         40         41         42         43
 occ. :        2.000      2.000      2.000      2.000      2.000      0.000      0.000      0.000
 eps  :        -9.916     -9.898     -9.748     -9.609     -9.048     -1.850     -0.543      0.636
 #    :          44         45         46         47         48         49         50         51
 occ. :        0.000      0.000      0.000      0.000      0.000      0.000      0.000      0.000
 eps  :         0.910      2.106      2.174      2.518      2.775      3.141      4.838      5.414


   #   Z            q   n(s)   n(p)   n(d)      C6AA      α(0)
   1  16 S      1.498  1.609  1.902  0.991    93.506    16.275
   2   8 O     -0.810  1.784  5.027  0.000    31.899     7.572
   3   8 O     -0.785  1.784  5.001  0.000    31.143     7.482
   4   8 O     -0.789  1.775  5.014  0.000    31.248     7.495
   5   8 O     -0.811  1.779  5.032  0.000    31.931     7.576
   6   8 O     -0.879  1.818  5.061  0.000    33.974     7.818
   7   1 H      0.189  0.811  0.000  0.000     1.177     1.705
   8   8 O     -0.625  1.727  4.898  0.000    25.789     6.854
   9   1 H      0.291  0.709  0.000  0.000     0.748     1.359
  10   1 H      0.339  0.661  0.000  0.000     0.614     1.231
  11   8 O     -0.421  1.645  4.776  0.000    21.202     6.219
  12   1 H      0.395  0.605  0.000  0.000     0.493     1.103
  13   1 H      0.385  0.615  0.000  0.000     0.514     1.126
  14   1 H      0.410  0.590  0.000  0.000     0.459     1.061
  15   8 O     -0.454  1.655  4.799  0.000    21.860     6.315
  16   1 H      0.376  0.624  0.000  0.000     0.531     1.144
  17   1 H      0.404  0.596  0.000  0.000     0.470     1.074
  18   1 H      0.389  0.611  0.000  0.000     0.505     1.116
  19   8 O     -0.387  1.628  4.759  0.000    20.552     6.123
  20   1 H      0.421  0.579  0.000  0.000     0.448     1.052
  21   1 H      0.402  0.598  0.000  0.000     0.481     1.090
  22   1 H      0.423  0.577  0.000  0.000     0.445     1.047
  23   7 N     -0.459  1.385  4.074  0.000    32.079     8.412
  24   1 H      0.205  0.795  0.000  0.000     1.081     1.629
  25   1 H      0.146  0.854  0.000  0.000     1.427     1.871
  26   1 H      0.146  0.854  0.000  0.000     1.427     1.871

 Mol. C6AA /au·bohr⁶  :       5563.939240
 Mol. C8AA /au·bohr⁸  :     120862.664469
 Mol. α(0) /au        :        107.621061

 
 Wiberg/Mayer (AO) data. WBOs > 0.1 written file <wbo>
 largest (>0.05) Wiberg bond orders for each atom
           total WBO             WBO to atom ...
     1  S   4.989    O    3 1.253    O    4 1.252    O    2 1.231    O    5 1.221
     2  O   1.645    S    1 1.231    O    3 0.097    O    5 0.096    O    4 0.094    H   10 0.059
     3  O   1.678    S    1 1.253    H   20 0.100    O    2 0.097    O    5 0.095    O    4 0.087
     4  O   1.667    S    1 1.252    O    5 0.095    O    2 0.094    O    3 0.087    H   12 0.062
     5  O   1.649    S    1 1.221    O    2 0.096    O    4 0.095    O    3 0.095    H   18 0.091
     6  O   1.507    H    7 0.948    H   14 0.212    H   17 0.203    O   11 0.063    O   15 0.062
     7  H   0.964    O    6 0.948
     8  O   1.851    H    9 0.902    H   10 0.822    H   22 0.074
     9  H   0.915    O    8 0.902
    10  H   0.885    O    8 0.822    O    2 0.059
    11  O   2.312    H   13 0.816    H   12 0.773    H   14 0.613    O    6 0.063
    12  H   0.844    O   11 0.773    O    4 0.062
    13  H   0.852    O   11 0.816
    14  H   0.832    O   11 0.613    O    6 0.212
    15  O   2.287    H   16 0.766    H   18 0.749    H   17 0.627    O    6 0.062
    16  H   0.858    O   15 0.766    N   23 0.085
    17  H   0.837    O   15 0.627    O    6 0.203
    18  H   0.848    O   15 0.749    O    5 0.091
    19  O   2.354    H   21 0.822    H   22 0.740    H   20 0.715
    20  H   0.823    O   19 0.715    O    3 0.100
    21  H   0.838    O   19 0.822
    22  H   0.821    O   19 0.740    O    8 0.074
    23  N   3.015    H   26 0.975    H   25 0.975    H   24 0.923    H   16 0.085
    24  H   0.958    N   23 0.923
    25  H   0.979    N   23 0.975
    26  H   0.979    N   23 0.975
 MOs/occ written to file <molden.input>
 
molecular dipole:
                 x           y           z       tot (Debye)
 q only:       -1.209       1.321       0.521
   full:       -1.004       0.818       0.502       3.529
molecular quadrupole (traceless):
                xx          xy          yy          xz          yz          zz
 q only:        2.593       1.270       2.676     -21.131      13.754      -5.269
  q+dip:        9.937       2.737      -0.869     -18.140      12.177      -9.068
   full:        9.924       3.022      -1.007     -18.201      12.321      -8.917

SCC energy    :     -50.6116444
rep           :       0.2762552
ES            :       0.3696995
AES           :      -0.0783660
AXC           :      -0.0084932
disp          :      -0.0184525
XB            :       0.0000000
fix           :       0.0000000
total E       :     -50.3351896
atomizationE  :       4.8654937     3053.14
(atE without considering molecular charge,
 total energy contains solvation terms)
H-L gap (eV)  :          7.1981
           ------------------------------------------------- 
          |                 ===============                 |
          |                   A N C O P T                   |
          |                 ===============                 |
          |          Approximate Normal Coordinate          |
          |           Rational Function Optimizer           |
           ------------------------------------------------- 
dumping coords to <xtbopt.coord> and <xtbopt.log>
 optlevel               2
 Maxcycle             520
 Maxmicro              25
 Econv         1.000000000000000E-007
 Gconv         2.000000000000000E-004
 Maxdispl       1.00000000000000     
 Hlow          5.000000000000000E-003
 S6             20.0000000000000     
 Nvar               72

generating ANC from model Hessian ...
 Shifting diagonal of input Hessian by   5.001051790905010E-003
 Lowest  eigenvalues of input Hessian
    0.005000   -0.000000   -0.000000   -0.000000    0.000000    0.000000
    0.000000    0.005125    0.005214    0.005678    0.006116    0.006440
    0.006495    0.007027    0.007209    0.007564    0.008108    0.008164
 Highest eigenvalues
    1.556599    1.586806    1.589604    3.076451    3.078839    3.085129
 
cpu  time for ANC gen    0.01 s
wall time for ANC gen    0.01 s
................................................................................
.............................. CYCLE    1 ......................................
................................................................................
   1    -50.6116444 -0.506116E+02  0.302E-05    7.20       0.0  T
   2    -50.6116444 -0.182609E-11  0.229E-05    7.20     857.5  T
   3    -50.6116444 -0.152056E-11  0.898E-06    7.20    2183.4  T
speedup  0.94
cpu  time for SCC    0.00 s
wall time for SCC    0.00 s
speedup  1.00
cpu  time for grad    0.01 s
wall time for grad    0.01 s
 E :    -50.33518956  G :  0.181941    pred/act E change:  0.000D+00  0.122D-07
Maxdispl :   0.2391   ||displ|| :   0.4726   Lambda : -0.477D-01
Largest |displ|/coords:  0.2391 (  24)  0.1713 (  33)  0.1475 (  21)
................................................................................
.............................. CYCLE    2 ......................................
................................................................................
   1    -50.6309100 -0.506309E+02  0.390E-01    7.60       0.0  T
   2    -50.6312649 -0.354913E-03  0.290E-01    7.73       1.0  T
   3    -50.6314343 -0.169452E-03  0.855E-02    7.99       1.0  T
   4    -50.6314612 -0.268697E-04  0.315E-02    7.96       1.0  T
   5    -50.6314627 -0.151694E-05  0.863E-03    7.95       2.3  T
   6    -50.6314629 -0.172731E-06  0.476E-03    7.95       4.1  T
   7    -50.6314630 -0.845420E-07  0.197E-03    7.95      10.0  T
speedup  1.03
cpu  time for SCC    0.01 s
wall time for SCC    0.01 s
speedup  1.00
cpu  time for grad    0.01 s
wall time for grad    0.01 s
 E :    -50.37620840  G :  0.117059    pred/act E change:  0.000D+00 -0.410D-01
Maxdispl :   0.3183   ||displ|| :   0.5519   Lambda : -0.340D-01
Largest |displ|/coords:  0.3183 (  24)  0.2244 (  33)  0.1824 (  21)
................................................................................
.............................. CYCLE    3 ......................................
................................................................................
   1    -50.6451987 -0.506452E+02  0.424E-01    8.15       0.0  T
   2    -50.6459732 -0.774430E-03  0.311E-01    8.27       1.0  T
   3    -50.6463194 -0.346231E-03  0.124E-01    8.44       1.0  T
   4    -50.6463463 -0.268989E-04  0.444E-02    8.42       1.0  T
   5    -50.6463488 -0.249546E-05  0.121E-02    8.41       1.6  T
   6    -50.6463491 -0.358605E-06  0.656E-03    8.42       3.0  T
   7    -50.6463493 -0.157600E-06  0.267E-03    8.42       7.3  T
   8    -50.6463493 -0.430031E-07  0.868E-04    8.42      22.6  T
speedup  1.04
cpu  time for SCC    0.01 s
wall time for SCC    0.01 s
speedup  1.00
cpu  time for grad    0.02 s
wall time for grad    0.02 s
 E :    -50.40467581  G :  0.083311    pred/act E change: -0.292D-01 -0.285D-01
Maxdispl :   0.3274   ||displ|| :   0.5390   Lambda : -0.201D-01
Largest |displ|/coords:  0.3274 (  24)  0.2067 (  21)  0.1758 (  33)
................................................................................
.............................. CYCLE    4 ......................................
................................................................................
   1    -50.6552794 -0.506553E+02  0.427E-01    8.55       0.0  T
   2    -50.6563902 -0.111080E-02  0.308E-01    8.64       1.0  T
   3    -50.6568723 -0.482116E-03  0.144E-01    8.74       1.0  T
   4    -50.6568966 -0.243030E-04  0.524E-02    8.74       1.0  T
   5    -50.6569010 -0.437677E-05  0.144E-02    8.73       1.4  T
   6    -50.6569014 -0.422946E-06  0.734E-03    8.73       2.7  T
   7    -50.6569015 -0.163806E-06  0.281E-03    8.73       7.0  T
   8    -50.6569016 -0.435324E-07  0.109E-03    8.73      18.1  T
speedup  1.04
cpu  time for SCC    0.01 s
wall time for SCC    0.01 s
speedup  1.00
cpu  time for grad    0.02 s
wall time for grad    0.02 s
 E :    -50.41960104  G :  0.070270    pred/act E change: -0.222D-01 -0.149D-01
Maxdispl :   0.1364   ||displ|| :   0.3754   Lambda : -0.816D-02
Largest |displ|/coords:  0.1364 (  21)  0.1362 (   6)  0.1247 (   5)
................................................................................
.............................. CYCLE    5 ......................................
................................................................................
   1    -50.6635920 -0.506636E+02  0.287E-01    8.94       0.0  T
   2    -50.6639859 -0.393854E-03  0.206E-01    9.03       1.0  T
   3    -50.6641546 -0.168748E-03  0.902E-02    9.18       1.0  T
   4    -50.6641650 -0.103463E-04  0.307E-02    9.18       1.0  T
   5    -50.6641666 -0.163131E-05  0.724E-03    9.18       2.7  T
   6    -50.6641667 -0.872577E-07  0.406E-03    9.18       4.8  T
   7    -50.6641667 -0.392671E-07  0.141E-03    9.18      13.9  T
speedup  1.04
cpu  time for SCC    0.01 s
wall time for SCC    0.01 s
speedup  1.05
cpu  time for grad    0.02 s
wall time for grad    0.02 s
 E :    -50.42608000  G :  0.062020    pred/act E change: -0.130D-01 -0.648D-02
Maxdispl :   0.1461   ||displ|| :   0.3173   Lambda : -0.612D-02
Largest |displ|/coords:  0.1461 (   5)  0.1127 (  10)  0.1075 (   2)
................................................................................
.............................. CYCLE    6 ......................................
................................................................................
   1    -50.6750652 -0.506751E+02  0.237E-01    9.36       0.0  T
   2    -50.6753250 -0.259760E-03  0.169E-01    9.37       1.0  T
   3    -50.6754503 -0.125363E-03  0.756E-02    9.36       1.0  T
   4    -50.6754586 -0.830682E-05  0.195E-02    9.37       1.0  T
   5    -50.6754594 -0.782117E-06  0.670E-03    9.37       2.9  T
   6    -50.6754595 -0.472260E-07  0.385E-03    9.37       5.1  T
   7    -50.6754595 -0.152710E-07  0.817E-04    9.37      24.0  T
speedup  1.04
cpu  time for SCC    0.01 s
wall time for SCC    0.01 s
speedup  0.99
cpu  time for grad    0.01 s
wall time for grad    0.02 s
 E :    -50.43090753  G :  0.059159    pred/act E change: -0.466D-02 -0.483D-02
Maxdispl :   0.1288   ||displ|| :   0.3308   Lambda : -0.636D-02
Largest |displ|/coords:  0.1288 (   8)  0.1080 (  12)  0.1066 (   5)
................................................................................
.............................. CYCLE    7 ......................................
................................................................................
   1    -50.6803231 -0.506803E+02  0.316E-01    9.48       0.0  T
   2    -50.6804673 -0.144212E-03  0.235E-01    9.48       1.0  T
   3    -50.6805361 -0.688742E-04  0.631E-02    9.49       1.0  T
   4    -50.6805515 -0.153687E-04  0.155E-02    9.50       1.3  T
   5    -50.6805522 -0.662306E-06  0.464E-03    9.50       4.2  T
   6    -50.6805522 -0.269043E-07  0.285E-03    9.50       6.9  T
speedup  1.03
cpu  time for SCC    0.01 s
wall time for SCC    0.01 s
speedup  0.99
cpu  time for grad    0.01 s
wall time for grad    0.01 s
 E :    -50.43522578  G :  0.055024    pred/act E change: -0.337D-02 -0.432D-02
Maxdispl :   0.1476   ||displ|| :   0.3733   Lambda : -0.686D-02
Largest |displ|/coords:  0.1476 (  10)  0.1446 (   8)  0.1425 (   2)
................................................................................
.............................. CYCLE    8 ......................................
................................................................................
   1    -50.6952915 -0.506953E+02  0.472E-01    9.57       0.0  T
   2    -50.6955925 -0.301013E-03  0.354E-01    9.57       1.0  T
   3    -50.6957477 -0.155215E-03  0.978E-02    9.57       1.0  T
   4    -50.6957830 -0.353420E-04  0.232E-02    9.57       1.0  T
   5    -50.6957845 -0.142117E-05  0.829E-03    9.57       2.4  T
   6    -50.6957845 -0.536193E-07  0.498E-03    9.57       3.9  T
   7    -50.6957846 -0.284797E-07  0.888E-04    9.57      22.1  T
speedup  1.04
cpu  time for SCC    0.01 s
wall time for SCC    0.01 s
speedup  0.99
cpu  time for grad    0.01 s
wall time for grad    0.02 s
 E :    -50.43855235  G :  0.058046    pred/act E change: -0.353D-02 -0.333D-02
Maxdispl :   0.2058   ||displ|| :   0.3377   Lambda : -0.606D-02
Largest |displ|/coords:  0.2058 (  12)  0.1245 (   6)  0.1019 (   8)
................................................................................
.............................. CYCLE    9 ......................................
................................................................................
   1    -50.6969350 -0.506969E+02  0.438E-01    9.59       0.0  T
   2    -50.6970649 -0.129903E-03  0.328E-01    9.59       1.0  T
   3    -50.6971344 -0.695124E-04  0.653E-02    9.59       1.0  T
   4    -50.6971527 -0.183654E-04  0.169E-02    9.59       1.2  T
   5    -50.6971536 -0.870894E-06  0.540E-03    9.59       3.6  T
   6    -50.6971536 -0.211480E-07  0.317E-03    9.59       6.2  T
speedup  1.05
cpu  time for SCC    0.01 s
wall time for SCC    0.01 s
speedup  1.00
cpu  time for grad    0.01 s
wall time for grad    0.01 s
 E :    -50.44208055  G :  0.050743    pred/act E change: -0.391D-02 -0.353D-02
Maxdispl :   0.1132   ||displ|| :   0.2951   Lambda : -0.534D-02
Largest |displ|/coords:  0.1132 (  10)  0.1047 (   2)  0.0765 (   6)
................................................................................
.............................. CYCLE   10 ......................................
................................................................................
   1    -50.7078902 -0.507079E+02  0.274E-01    9.62       0.0  T
   2    -50.7079502 -0.599262E-04  0.201E-01    9.62       1.0  T
   3    -50.7079904 -0.402681E-04  0.501E-02    9.63       1.0  T
   4    -50.7079954 -0.498403E-05  0.133E-02    9.64       1.5  T
   5    -50.7079958 -0.416655E-06  0.436E-03    9.64       4.5  T
   6    -50.7079959 -0.197938E-07  0.233E-03    9.64       8.4  T
speedup  1.05
cpu  time for SCC    0.01 s
wall time for SCC    0.01 s
speedup  0.99
cpu  time for grad    0.01 s
wall time for grad    0.01 s
 E :    -50.44401626  G :  0.042120    pred/act E change: -0.337D-02 -0.194D-02
Maxdispl :   0.1907   ||displ|| :   0.4087   Lambda : -0.549D-02
Largest |displ|/coords:  0.1907 (  13)  0.1888 (   9)  0.1488 (   5)
................................................................................
.............................. CYCLE   11 ......................................
................................................................................
   1    -50.7057280 -0.507057E+02  0.502E-01    9.55       0.0  T
   2    -50.7060956 -0.367630E-03  0.364E-01    9.54       1.0  T
   3    -50.7062703 -0.174642E-03  0.103E-01    9.52       1.0  T
   4    -50.7063034 -0.331880E-04  0.187E-02    9.53       1.0  T
   5    -50.7063041 -0.654782E-06  0.871E-03    9.53       2.3  T
   6    -50.7063043 -0.170977E-06  0.512E-03    9.53       3.8  T
   7    -50.7063043 -0.293274E-07  0.996E-04    9.53      19.7  T
speedup  1.06
cpu  time for SCC    0.01 s
wall time for SCC    0.01 s
speedup  1.06
cpu  time for grad    0.02 s
wall time for grad    0.02 s
 E :    -50.44506659  G :  0.075054    pred/act E change: -0.290D-02 -0.105D-02
Maxdispl :   0.2013   ||displ|| :   0.4557   Lambda : -0.171D-01
Largest |displ|/coords:  0.2013 (   9)  0.1888 (  13)  0.1736 (  14)
................................................................................
.............................. CYCLE   12 ......................................
................................................................................
   1    -50.7303686 -0.507304E+02  0.666E-01    9.60       0.0  T
   2    -50.7307724 -0.403849E-03  0.494E-01    9.61       1.0  T
   3    -50.7310531 -0.280653E-03  0.109E-01    9.61       1.0  T
   4    -50.7310955 -0.423904E-04  0.182E-02    9.61       1.1  T
   5    -50.7310965 -0.977999E-06  0.114E-02    9.61       1.7  T
   6    -50.7310966 -0.105019E-06  0.380E-03    9.61       5.2  T
   7    -50.7310966 -0.401913E-07  0.949E-04    9.61      20.7  T
speedup  0.88
cpu  time for SCC    0.01 s
wall time for SCC    0.01 s
speedup  0.99
cpu  time for grad    0.01 s
wall time for grad    0.02 s
 E :    -50.44356788  G :  0.100923    pred/act E change: -0.320D-02  0.150D-02
Maxdispl :   0.1254   ||displ|| :   0.3456   Lambda : -0.176D-01
Largest |displ|/coords:  0.1254 (  29)  0.0952 (  33)  0.0943 (  34)
................................................................................
.............................. CYCLE   13 ......................................
................................................................................
   1    -50.7051405 -0.507051E+02  0.424E-01    9.53       0.0  T
   2    -50.7053533 -0.212804E-03  0.313E-01    9.53       1.0  T
   3    -50.7054929 -0.139605E-03  0.856E-02    9.55       1.0  T
   4    -50.7055126 -0.196774E-04  0.266E-02    9.54       1.0  T
   5    -50.7055135 -0.918908E-06  0.830E-03    9.54       2.4  T
   6    -50.7055137 -0.173788E-06  0.512E-03    9.54       3.8  T
   7    -50.7055137 -0.420380E-07  0.121E-03    9.54      16.2  T
speedup  0.91
cpu  time for SCC    0.01 s
wall time for SCC    0.01 s
speedup  1.00
cpu  time for grad    0.01 s
wall time for grad    0.01 s
 E :    -50.44802360  G :  0.053897    pred/act E change: -0.103D-01 -0.446D-02
Maxdispl :   0.0911   ||displ|| :   0.2532   Lambda : -0.783D-02
Largest |displ|/coords:  0.0911 (  28)  0.0775 (  24)  0.0762 (   2)
................................................................................
.............................. CYCLE   14 ......................................
................................................................................
   1    -50.7295018 -0.507295E+02  0.262E-01    9.62       0.0  T
   2    -50.7296724 -0.170654E-03  0.193E-01    9.61       1.0  T
   3    -50.7297869 -0.114538E-03  0.758E-02    9.60       1.0  T
   4    -50.7298001 -0.131343E-04  0.219E-02    9.60       1.0  T
   5    -50.7298010 -0.926922E-06  0.816E-03    9.60       2.4  T
   6    -50.7298011 -0.467510E-07  0.382E-03    9.60       5.1  T
   7    -50.7298011 -0.186562E-07  0.976E-04    9.60      20.1  T
speedup  1.06
cpu  time for SCC    0.01 s
wall time for SCC    0.01 s
speedup  1.00
cpu  time for grad    0.01 s
wall time for grad    0.01 s
 E :    -50.45117295  G :  0.039692    pred/act E change: -0.986D-02 -0.315D-02
Maxdispl :   0.1814   ||displ|| :   0.2539   Lambda : -0.306D-02
Largest |displ|/coords:  0.1814 (   5)  0.0924 (   6)  0.0538 (   2)
................................................................................
.............................. CYCLE   15 ......................................
................................................................................
   1    -50.7242438 -0.507242E+02  0.227E-01    9.57       0.0  T
   2    -50.7242666 -0.227390E-04  0.170E-01    9.57       1.0  T
   3    -50.7242829 -0.163261E-04  0.275E-02    9.58       1.0  T
   4    -50.7242858 -0.294144E-05  0.717E-03    9.58       2.7  T
   5    -50.7242859 -0.645927E-07  0.346E-03    9.58       5.7  T
   6    -50.7242859 -0.182961E-07  0.161E-03    9.58      12.2  T
speedup  1.05
cpu  time for SCC    0.01 s
wall time for SCC    0.01 s
speedup  1.00
cpu  time for grad    0.01 s
wall time for grad    0.01 s
 E :    -50.45312532  G :  0.025573    pred/act E change: -0.417D-02 -0.195D-02
Maxdispl :   0.1573   ||displ|| :   0.3528   Lambda : -0.367D-02
Largest |displ|/coords:  0.1573 (   4)  0.1374 (   2)  0.1130 (   6)
................................................................................
.............................. CYCLE   16 ......................................
................................................................................
   1    -50.7216913 -0.507217E+02  0.292E-01    9.51       0.0  T
   2    -50.7217193 -0.280569E-04  0.220E-01    9.52       1.0  T
   3    -50.7217434 -0.240551E-04  0.339E-02    9.53       1.0  T
   4    -50.7217464 -0.307145E-05  0.136E-02    9.53       1.4  T
   5    -50.7217466 -0.152873E-06  0.330E-03    9.53       5.9  T
   6    -50.7217466 -0.135854E-07  0.198E-03    9.53       9.9  T
speedup  1.05
cpu  time for SCC    0.01 s
wall time for SCC    0.01 s
speedup  1.00
cpu  time for grad    0.01 s
wall time for grad    0.01 s
 E :    -50.45458486  G :  0.033489    pred/act E change: -0.163D-02 -0.146D-02
Maxdispl :   0.0930   ||displ|| :   0.1965   Lambda : -0.214D-02
Largest |displ|/coords:  0.0930 (   5)  0.0640 (   6)  0.0495 (   4)
................................................................................
.............................. CYCLE   17 ......................................
................................................................................
   1    -50.7316093 -0.507316E+02  0.140E-01    9.51       0.0  T
   2    -50.7316406 -0.313009E-04  0.103E-01    9.51       1.0  T
   3    -50.7316608 -0.202091E-04  0.305E-02    9.51       1.0  T
   4    -50.7316637 -0.287837E-05  0.798E-03    9.51       2.5  T
   5    -50.7316638 -0.105010E-06  0.312E-03    9.51       6.3  T
   6    -50.7316638 -0.585996E-08  0.159E-03    9.51      12.3  T
speedup  1.05
cpu  time for SCC    0.01 s
wall time for SCC    0.01 s
speedup  0.99
cpu  time for grad    0.01 s
wall time for grad    0.01 s
 E :    -50.45577031  G :  0.021666    pred/act E change: -0.206D-02 -0.119D-02
Maxdispl :   0.0524   ||displ|| :   0.1500   Lambda : -0.102D-02
Largest |displ|/coords:  0.0524 (   8)  0.0509 (  34)  0.0505 (  28)
................................................................................
.............................. CYCLE   18 ......................................
................................................................................
   1    -50.7341475 -0.507341E+02  0.110E-01    9.53       0.0  T
   2    -50.7341584 -0.108888E-04  0.817E-02    9.52       1.0  T
   3    -50.7341647 -0.632020E-05  0.200E-02    9.52       1.0  T
   4    -50.7341658 -0.113712E-05  0.810E-03    9.52       2.4  T
   5    -50.7341659 -0.858854E-07  0.160E-03    9.52      12.2  T
   6    -50.7341659 -0.274656E-08  0.977E-04    9.52      20.1  T
speedup  1.05
cpu  time for SCC    0.01 s
wall time for SCC    0.01 s
speedup  1.07
cpu  time for grad    0.01 s
wall time for grad    0.01 s
 E :    -50.45629229  G :  0.013001    pred/act E change: -0.111D-02 -0.522D-03
Maxdispl :   0.1246   ||displ|| :   0.2194   Lambda : -0.709D-03
Largest |displ|/coords:  0.1246 (   4)  0.0866 (   6)  0.0541 (  10)
................................................................................
.............................. CYCLE   19 ......................................
................................................................................
   1    -50.7327939 -0.507328E+02  0.126E-01    9.52       0.0  T
   2    -50.7328022 -0.827601E-05  0.948E-02    9.52       1.0  T
   3    -50.7328079 -0.569946E-05  0.154E-02    9.52       1.3  T
   4    -50.7328090 -0.116857E-05  0.641E-03    9.52       3.1  T
   5    -50.7328091 -0.772427E-07  0.202E-03    9.52       9.7  T
   6    -50.7328091 -0.442127E-08  0.105E-03    9.52      18.6  T
speedup  0.88
cpu  time for SCC    0.00 s
wall time for SCC    0.01 s
speedup  0.99
cpu  time for grad    0.01 s
wall time for grad    0.01 s
 E :    -50.45677563  G :  0.008665    pred/act E change: -0.520D-03 -0.483D-03
Maxdispl :   0.1509   ||displ|| :   0.2760   Lambda : -0.556D-03
Largest |displ|/coords:  0.1509 (   4)  0.1091 (   6)  0.1064 (  10)
................................................................................
.............................. CYCLE   20 ......................................
................................................................................
   1    -50.7315958 -0.507316E+02  0.142E-01    9.52       0.0  T
   2    -50.7316064 -0.106089E-04  0.107E-01    9.52       1.0  T
   3    -50.7316130 -0.664911E-05  0.166E-02    9.52       1.2  T
   4    -50.7316147 -0.169671E-05  0.661E-03    9.52       3.0  T
   5    -50.7316148 -0.719992E-07  0.214E-03    9.52       9.2  T
   6    -50.7316148 -0.495437E-08  0.111E-03    9.52      17.6  T
speedup  0.88
cpu  time for SCC    0.00 s
wall time for SCC    0.01 s
speedup  1.00
cpu  time for grad    0.01 s
wall time for grad    0.01 s
 E :    -50.45705627  G :  0.009123    pred/act E change: -0.372D-03 -0.281D-03
Maxdispl :   0.0722   ||displ|| :   0.1306   Lambda : -0.229D-03
Largest |displ|/coords:  0.0722 (  10)  0.0424 (   4)  0.0385 (  21)
................................................................................
.............................. CYCLE   21 ......................................
................................................................................
   1    -50.7309466 -0.507309E+02  0.742E-02    9.51       0.0  T
   2    -50.7309486 -0.195702E-05  0.550E-02    9.51       1.0  T
   3    -50.7309500 -0.144636E-05  0.756E-03    9.51       2.6  T
   4    -50.7309502 -0.224354E-06  0.320E-03    9.51       6.1  T
   5    -50.7309502 -0.126882E-07  0.917E-04    9.51      21.4  T
   6    -50.7309502 -0.162346E-08  0.479E-04    9.51      41.0  T
speedup  0.86
cpu  time for SCC    0.01 s
wall time for SCC    0.01 s
speedup  0.99
cpu  time for grad    0.01 s
wall time for grad    0.01 s
 E :    -50.45717854  G :  0.007733    pred/act E change: -0.299D-03 -0.122D-03
Maxdispl :   0.0942   ||displ|| :   0.1607   Lambda : -0.255D-03
Largest |displ|/coords:  0.0942 (  10)  0.0491 (   3)  0.0439 (   4)
................................................................................
.............................. CYCLE   22 ......................................
................................................................................
   1    -50.7328939 -0.507329E+02  0.737E-02    9.54       0.0  T
   2    -50.7328965 -0.265046E-05  0.553E-02    9.53       1.0  T
   3    -50.7328982 -0.172750E-05  0.957E-03    9.53       2.1  T
   4    -50.7328986 -0.375707E-06  0.381E-03    9.53       5.1  T
   5    -50.7328987 -0.251442E-07  0.106E-03    9.53      18.6  T
   6    -50.7328987 -0.171809E-08  0.594E-04    9.53      33.0  T
speedup  1.02
cpu  time for SCC    0.01 s
wall time for SCC    0.01 s
speedup  0.98
cpu  time for grad    0.01 s
wall time for grad    0.01 s
 E :    -50.45733092  G :  0.007016    pred/act E change: -0.116D-03 -0.152D-03
Maxdispl :   0.1093   ||displ|| :   0.2119   Lambda : -0.251D-03
Largest |displ|/coords:  0.1093 (  10)  0.0796 (   4)  0.0784 (   3)
................................................................................
.............................. CYCLE   23 ......................................
................................................................................
   1    -50.7329686 -0.507330E+02  0.106E-01    9.54       0.0  T
   2    -50.7329716 -0.296323E-05  0.798E-02    9.54       1.0  T
   3    -50.7329741 -0.251012E-05  0.905E-03    9.54       2.2  T
   4    -50.7329745 -0.372864E-06  0.474E-03    9.54       4.1  T
   5    -50.7329745 -0.300077E-07  0.112E-03    9.54      17.5  T
   6    -50.7329745 -0.179782E-08  0.698E-04    9.54      28.1  T
speedup  1.02
cpu  time for SCC    0.01 s
wall time for SCC    0.01 s
speedup  0.97
cpu  time for grad    0.01 s
wall time for grad    0.01 s
 E :    -50.45750122  G :  0.007409    pred/act E change: -0.131D-03 -0.170D-03
Maxdispl :   0.1199   ||displ|| :   0.2577   Lambda : -0.253D-03
Largest |displ|/coords:  0.1199 (  10)  0.1189 (   3)  0.1026 (   4)
................................................................................
.............................. CYCLE   24 ......................................
................................................................................
   1    -50.7328991 -0.507329E+02  0.129E-01    9.53       0.0  T
   2    -50.7329033 -0.420786E-05  0.972E-02    9.53       1.0  T
   3    -50.7329070 -0.371249E-05  0.111E-02    9.53       1.8  T
   4    -50.7329075 -0.481656E-06  0.544E-03    9.53       3.6  T
   5    -50.7329075 -0.324112E-07  0.132E-03    9.53      14.9  T
   6    -50.7329075 -0.259448E-08  0.816E-04    9.53      24.0  T
speedup  0.85
cpu  time for SCC    0.00 s
wall time for SCC    0.01 s
speedup  0.99
cpu  time for grad    0.01 s
wall time for grad    0.01 s
 E :    -50.45757293  G :  0.009211    pred/act E change: -0.131D-03 -0.717D-04
Maxdispl :   0.0550   ||displ|| :   0.1190   Lambda : -0.220D-03
Largest |displ|/coords:  0.0550 (   3)  0.0415 (   7)  0.0365 (   1)
................................................................................
.............................. CYCLE   25 ......................................
................................................................................
   1    -50.7334647 -0.507335E+02  0.751E-02    9.52       0.0  T
   2    -50.7334677 -0.300064E-05  0.560E-02    9.52       1.0  T
   3    -50.7334699 -0.218997E-05  0.103E-02    9.52       1.9  T
   4    -50.7334703 -0.382752E-06  0.330E-03    9.52       6.0  T
   5    -50.7334703 -0.166984E-07  0.119E-03    9.52      16.5  T
   6    -50.7334703 -0.206101E-08  0.637E-04    9.52      30.8  T
speedup  1.02
cpu  time for SCC    0.01 s
wall time for SCC    0.01 s
speedup  0.98
cpu  time for grad    0.01 s
wall time for grad    0.01 s
 E :    -50.45769040  G :  0.008101    pred/act E change: -0.135D-03 -0.117D-03
Maxdispl :   0.0329   ||displ|| :   0.0785   Lambda : -0.113D-03
Largest |displ|/coords:  0.0329 (   4)  0.0296 (  14)  0.0236 (   3)

generating ANC from model Hessian ...
 Shifting diagonal of input Hessian by   5.027873572402127E-003
 Lowest  eigenvalues of input Hessian
    0.005000   -0.000000   -0.000000    0.000000    0.000000    0.000000
    0.000000    0.005292    0.005442    0.005747    0.006348    0.006780
    0.006937    0.007898    0.008249    0.008755    0.010955    0.013019
 Highest eigenvalues
    1.390115    1.399797    1.410852    2.845035    3.376899    3.524791
 
cpu  time for ANC gen    0.01 s
wall time for ANC gen    0.02 s
................................................................................
.............................. CYCLE   26 ......................................
................................................................................
   1    -50.7332371 -0.507332E+02  0.449E-02    9.51       0.0  T
   2    -50.7332382 -0.115931E-05  0.336E-02    9.51       1.0  T
   3    -50.7332388 -0.609626E-06  0.564E-03    9.51       3.5  T
   4    -50.7332390 -0.186074E-06  0.188E-03    9.51      10.4  T
   5    -50.7332390 -0.477328E-08  0.536E-04    9.51      36.6  T
   6    -50.7332390 -0.427271E-09  0.290E-04    9.51      67.7  T
speedup  1.03
cpu  time for SCC    0.01 s
wall time for SCC    0.01 s
speedup  1.01
cpu  time for grad    0.01 s
wall time for grad    0.01 s
 E :    -50.45776559  G :  0.006045    pred/act E change:  0.000D+00 -0.752D-04
Maxdispl :   0.0351   ||displ|| :   0.0913   Lambda : -0.154D-03
Largest |displ|/coords:  0.0351 (   2)  0.0347 (   6)  0.0303 (   3)
................................................................................
.............................. CYCLE   27 ......................................
................................................................................
   1    -50.7333385 -0.507333E+02  0.816E-02    9.50       0.0  T
   2    -50.7333398 -0.126361E-05  0.620E-02    9.50       1.0  T
   3    -50.7333410 -0.127216E-05  0.537E-03    9.50       3.6  T
   4    -50.7333412 -0.124451E-06  0.225E-03    9.50       8.7  T
   5    -50.7333412 -0.700597E-08  0.722E-04    9.50      27.2  T
speedup  1.02
cpu  time for SCC    0.00 s
wall time for SCC    0.00 s
speedup  0.98
cpu  time for grad    0.01 s
wall time for grad    0.01 s
 E :    -50.45787933  G :  0.003571    pred/act E change:  0.000D+00 -0.114D-03
Maxdispl :   0.0903   ||displ|| :   0.1922   Lambda : -0.176D-03
Largest |displ|/coords:  0.0903 (   2)  0.0741 (   6)  0.0674 (   3)
................................................................................
.............................. CYCLE   28 ......................................
................................................................................
   1    -50.7323985 -0.507324E+02  0.166E-01    9.48       0.0  T
   2    -50.7324028 -0.431387E-05  0.125E-01    9.48       1.0  T
   3    -50.7324071 -0.427001E-05  0.101E-02    9.48       1.9  T
   4    -50.7324075 -0.426941E-06  0.396E-03    9.48       5.0  T
   5    -50.7324075 -0.171921E-07  0.143E-03    9.48      13.7  T
   6    -50.7324075 -0.142452E-08  0.703E-04    9.48      27.9  T
   7    -50.7324075 -0.146592E-08  0.141E-04    9.48     139.4  T
speedup  1.03
cpu  time for SCC    0.01 s
wall time for SCC    0.01 s
speedup  1.02
cpu  time for grad    0.02 s
wall time for grad    0.02 s
 E :    -50.45800403  G :  0.004617    pred/act E change: -0.777D-04 -0.125D-03
Maxdispl :   0.1061   ||displ|| :   0.2016   Lambda : -0.118D-03
Largest |displ|/coords:  0.1061 (   2)  0.0772 (   3)  0.0684 (   7)
................................................................................
.............................. CYCLE   29 ......................................
................................................................................
   1    -50.7314129 -0.507314E+02  0.159E-01    9.46       0.0  T
   2    -50.7314166 -0.368611E-05  0.120E-01    9.47       1.0  T
   3    -50.7314202 -0.359385E-05  0.949E-03    9.47       2.1  T
   4    -50.7314205 -0.387454E-06  0.295E-03    9.47       6.6  T
   5    -50.7314206 -0.526271E-08  0.146E-03    9.47      13.4  T
speedup  1.02
cpu  time for SCC    0.00 s
wall time for SCC    0.00 s
speedup  0.98
cpu  time for grad    0.01 s
wall time for grad    0.01 s
 E :    -50.45807328  G :  0.008249    pred/act E change: -0.915D-04 -0.692D-04
Maxdispl :   0.0795   ||displ|| :   0.1396   Lambda : -0.125D-03
Largest |displ|/coords:  0.0795 (   2)  0.0635 (   3)  0.0594 (   7)
................................................................................
.............................. CYCLE   30 ......................................
................................................................................
   1    -50.7327546 -0.507328E+02  0.707E-02    9.47       0.0  T
   2    -50.7327557 -0.107953E-05  0.534E-02    9.47       1.0  T
   3    -50.7327566 -0.946325E-06  0.506E-03    9.46       3.9  T
   4    -50.7327567 -0.135847E-06  0.158E-03    9.47      12.4  T
   5    -50.7327567 -0.269400E-08  0.727E-04    9.47      27.0  T
speedup  1.02
cpu  time for SCC    0.00 s
wall time for SCC    0.00 s
speedup  0.98
cpu  time for grad    0.01 s
wall time for grad    0.01 s
 E :    -50.45815576  G :  0.003694    pred/act E change: -0.615D-04 -0.825D-04
Maxdispl :   0.1478   ||displ|| :   0.2361   Lambda : -0.110D-03
Largest |displ|/coords:  0.1478 (   2)  0.0990 (   3)  0.0890 (   7)
................................................................................
.............................. CYCLE   31 ......................................
................................................................................
   1    -50.7325360 -0.507325E+02  0.139E-01    9.46       0.0  T
   2    -50.7325391 -0.310753E-05  0.105E-01    9.46       1.0  T
   3    -50.7325420 -0.289757E-05  0.845E-03    9.46       2.3  T
   4    -50.7325424 -0.381628E-06  0.267E-03    9.46       7.3  T
   5    -50.7325424 -0.673953E-08  0.135E-03    9.46      14.6  T
   6    -50.7325424 -0.249942E-08  0.406E-04    9.46      48.3  T
   7    -50.7325424 -0.654929E-09  0.117E-04    9.46     167.2  T
speedup  1.01
cpu  time for SCC    0.01 s
wall time for SCC    0.01 s
speedup  1.01
cpu  time for grad    0.02 s
wall time for grad    0.02 s
 E :    -50.45822364  G :  0.005253    pred/act E change: -0.638D-04 -0.679D-04
Maxdispl :   0.1265   ||displ|| :   0.2146   Lambda : -0.983D-04
Largest |displ|/coords:  0.1265 (   2)  0.0971 (   3)  0.0933 (   7)
................................................................................
.............................. CYCLE   32 ......................................
................................................................................
   1    -50.7328069 -0.507328E+02  0.107E-01    9.46       0.0  T
   2    -50.7328107 -0.380307E-05  0.807E-02    9.46       1.0  T
   3    -50.7328136 -0.283574E-05  0.100E-02    9.46       2.0  T
   4    -50.7328142 -0.582516E-06  0.239E-03    9.46       8.2  T
   5    -50.7328142 -0.852584E-08  0.116E-03    9.46      16.9  T
speedup  1.02
cpu  time for SCC    0.00 s
wall time for SCC    0.00 s
speedup  0.98
cpu  time for grad    0.01 s
wall time for grad    0.01 s
 E :    -50.45827584  G :  0.005144    pred/act E change: -0.578D-04 -0.522D-04
Maxdispl :   0.1393   ||displ|| :   0.1900   Lambda : -0.956D-04
Largest |displ|/coords:  0.1393 (   2)  0.0866 (   3)  0.0570 (   7)
................................................................................
.............................. CYCLE   33 ......................................
................................................................................
   1    -50.7336869 -0.507337E+02  0.834E-02    9.46       0.0  T
   2    -50.7336889 -0.203538E-05  0.630E-02    9.46       1.0  T
   3    -50.7336909 -0.197777E-05  0.778E-03    9.47       2.5  T
   4    -50.7336911 -0.204927E-06  0.236E-03    9.47       8.3  T
   5    -50.7336911 -0.786699E-08  0.957E-04    9.47      20.5  T
speedup  0.98
cpu  time for SCC    0.00 s
wall time for SCC    0.01 s
speedup  0.97
cpu  time for grad    0.01 s
wall time for grad    0.01 s
 E :    -50.45827066  G :  0.008630    pred/act E change: -0.514D-04  0.518D-05
Maxdispl :   0.0389   ||displ|| :   0.0762   Lambda : -0.109D-03
Largest |displ|/coords:  0.0389 (   4)  0.0343 (   6)  0.0309 (   1)
................................................................................
.............................. CYCLE   34 ......................................
................................................................................
   1    -50.7329115 -0.507329E+02  0.483E-02    9.47       0.0  T
   2    -50.7329122 -0.657216E-06  0.364E-02    9.46       1.0  T
   3    -50.7329128 -0.608451E-06  0.445E-03    9.46       4.4  T
   4    -50.7329129 -0.787454E-07  0.173E-03    9.46      11.3  T
   5    -50.7329129 -0.406296E-08  0.633E-04    9.46      31.0  T
speedup  0.85
cpu  time for SCC    0.00 s
wall time for SCC    0.00 s
speedup  0.99
cpu  time for grad    0.01 s
wall time for grad    0.01 s
 E :    -50.45833443  G :  0.003021    pred/act E change: -0.495D-04 -0.638D-04
Maxdispl :   0.1078   ||displ|| :   0.1690   Lambda : -0.448D-04
Largest |displ|/coords:  0.1078 (   2)  0.0623 (   1)  0.0620 (   3)
................................................................................
.............................. CYCLE   35 ......................................
................................................................................
   1    -50.7310825 -0.507311E+02  0.943E-02    9.45       0.0  T
   2    -50.7310845 -0.202448E-05  0.712E-02    9.45       1.0  T
   3    -50.7310863 -0.177251E-05  0.774E-03    9.45       2.5  T
   4    -50.7310865 -0.257073E-06  0.195E-03    9.45      10.0  T
   5    -50.7310865 -0.355703E-08  0.103E-03    9.45      19.0  T
   6    -50.7310865 -0.187240E-08  0.331E-04    9.45      59.2  T
   7    -50.7310865 -0.315836E-09  0.110E-04    9.45     178.1  T
speedup  1.03
cpu  time for SCC    0.01 s
wall time for SCC    0.01 s
speedup  1.03
cpu  time for grad    0.02 s
wall time for grad    0.02 s
 E :    -50.45833076  G :  0.007861    pred/act E change: -0.550D-04  0.367D-05
Maxdispl :   0.0419   ||displ|| :   0.0844   Lambda : -0.912D-04
Largest |displ|/coords:  0.0419 (   5)  0.0279 (   2)  0.0275 (   4)
................................................................................
.............................. CYCLE   36 ......................................
................................................................................
   1    -50.7323597 -0.507324E+02  0.534E-02    9.46       0.0  T
   2    -50.7323615 -0.182407E-05  0.399E-02    9.46       1.0  T
   3    -50.7323627 -0.122803E-05  0.749E-03    9.46       2.6  T
   4    -50.7323630 -0.240684E-06  0.207E-03    9.46       9.5  T
   5    -50.7323630 -0.527881E-08  0.792E-04    9.46      24.8  T
speedup  0.83
cpu  time for SCC    0.00 s
wall time for SCC    0.00 s
speedup  0.99
cpu  time for grad    0.01 s
wall time for grad    0.01 s
 E :    -50.45837330  G :  0.003597    pred/act E change: -0.230D-04 -0.425D-04
Maxdispl :   0.0720   ||displ|| :   0.0977   Lambda : -0.439D-04
Largest |displ|/coords:  0.0720 (   2)  0.0411 (   1)  0.0265 (  10)
................................................................................
.............................. CYCLE   37 ......................................
................................................................................
   1    -50.7328986 -0.507329E+02  0.335E-02    9.46       0.0  T
   2    -50.7328990 -0.413629E-06  0.252E-02    9.46       1.0  T
   3    -50.7328994 -0.313102E-06  0.382E-03    9.47       5.1  T
   4    -50.7328994 -0.551295E-07  0.120E-03    9.46      16.3  T
   5    -50.7328994 -0.224234E-08  0.425E-04    9.46      46.1  T
   6    -50.7328994 -0.231047E-09  0.236E-04    9.46      83.2  T
speedup  1.03
cpu  time for SCC    0.01 s
wall time for SCC    0.01 s
speedup  1.03
cpu  time for grad    0.01 s
wall time for grad    0.01 s
 E :    -50.45839313  G :  0.002610    pred/act E change: -0.459D-04 -0.198D-04
Maxdispl :   0.1294   ||displ|| :   0.1779   Lambda : -0.315D-04
Largest |displ|/coords:  0.1294 (   2)  0.0591 (   7)  0.0579 (   1)
................................................................................
.............................. CYCLE   38 ......................................
................................................................................
   1    -50.7322832 -0.507323E+02  0.732E-02    9.46       0.0  T
   2    -50.7322839 -0.718558E-06  0.553E-02    9.46       1.0  T
   3    -50.7322847 -0.823023E-06  0.466E-03    9.46       4.2  T
   4    -50.7322848 -0.576583E-07  0.181E-03    9.46      10.8  T
   5    -50.7322848 -0.346665E-08  0.642E-04    9.46      30.5  T
   6    -50.7322848 -0.685148E-09  0.338E-04    9.46      58.0  T
speedup  1.03
cpu  time for SCC    0.01 s
wall time for SCC    0.01 s
speedup  1.02
cpu  time for grad    0.01 s
wall time for grad    0.01 s
 E :    -50.45841456  G :  0.002869    pred/act E change: -0.222D-04 -0.214D-04
Maxdispl :   0.1536   ||displ|| :   0.2141   Lambda : -0.315D-04
Largest |displ|/coords:  0.1536 (   2)  0.0841 (   1)  0.0669 (   7)
................................................................................
.............................. CYCLE   39 ......................................
................................................................................
   1    -50.7318726 -0.507319E+02  0.831E-02    9.45       0.0  T
   2    -50.7318736 -0.102970E-05  0.627E-02    9.45       1.0  T
   3    -50.7318748 -0.119018E-05  0.597E-03    9.45       3.3  T
   4    -50.7318749 -0.815607E-07  0.219E-03    9.45       8.9  T
   5    -50.7318749 -0.519312E-08  0.756E-04    9.45      25.9  T
   6    -50.7318749 -0.856041E-09  0.394E-04    9.45      49.8  T
speedup  1.03
cpu  time for SCC    0.01 s
wall time for SCC    0.01 s
speedup  0.97
cpu  time for grad    0.01 s
wall time for grad    0.01 s
 E :    -50.45843295  G :  0.003207    pred/act E change: -0.163D-04 -0.184D-04
Maxdispl :   0.0745   ||displ|| :   0.0957   Lambda : -0.180D-04
Largest |displ|/coords:  0.0745 (   2)  0.0347 (   1)  0.0214 (   7)
................................................................................
.............................. CYCLE   40 ......................................
................................................................................
   1    -50.7324393 -0.507324E+02  0.346E-02    9.45       0.0  T
   2    -50.7324396 -0.271951E-06  0.260E-02    9.45       1.0  T
   3    -50.7324398 -0.246521E-06  0.306E-03    9.45       6.4  T
   4    -50.7324399 -0.337920E-07  0.105E-03    9.45      18.8  T
   5    -50.7324399 -0.146941E-08  0.359E-04    9.45      54.6  T
   6    -50.7324399 -0.161016E-09  0.181E-04    9.45     108.4  T
speedup  0.88
cpu  time for SCC    0.00 s
wall time for SCC    0.01 s
speedup  0.97
cpu  time for grad    0.01 s
wall time for grad    0.01 s
 E :    -50.45844715  G :  0.002466    pred/act E change: -0.165D-04 -0.142D-04
Maxdispl :   0.1996   ||displ|| :   0.2555   Lambda : -0.355D-04
Largest |displ|/coords:  0.1996 (   2)  0.0869 (   1)  0.0641 (   7)
................................................................................
.............................. CYCLE   41 ......................................
................................................................................
   1    -50.7327225 -0.507327E+02  0.987E-02    9.45       0.0  T
   2    -50.7327244 -0.180551E-05  0.745E-02    9.45       1.0  T
   3    -50.7327261 -0.177245E-05  0.725E-03    9.45       2.7  T
   4    -50.7327263 -0.217179E-06  0.264E-03    9.45       7.4  T
   5    -50.7327264 -0.738454E-08  0.946E-04    9.45      20.7  T
   6    -50.7327264 -0.121522E-08  0.414E-04    9.45      47.4  T
speedup  1.00
cpu  time for SCC    0.01 s
wall time for SCC    0.01 s
speedup  1.02
cpu  time for grad    0.01 s
wall time for grad    0.01 s
 E :    -50.45846993  G :  0.002778    pred/act E change: -0.908D-05 -0.228D-04
Maxdispl :   0.1081   ||displ|| :   0.1330   Lambda : -0.239D-04
Largest |displ|/coords:  0.1081 (   2)  0.0367 (   1)  0.0221 (   6)
................................................................................
.............................. CYCLE   42 ......................................
................................................................................
   1    -50.7337574 -0.507338E+02  0.503E-02    9.45       0.0  T
   2    -50.7337582 -0.721226E-06  0.379E-02    9.45       1.0  T
   3    -50.7337586 -0.454263E-06  0.472E-03    9.45       4.2  T
   4    -50.7337587 -0.118763E-06  0.172E-03    9.45      11.4  T
   5    -50.7337587 -0.571291E-08  0.508E-04    9.45      38.6  T
   6    -50.7337587 -0.262126E-09  0.286E-04    9.45      68.6  T
speedup  1.03
cpu  time for SCC    0.01 s
wall time for SCC    0.01 s
speedup  1.03
cpu  time for grad    0.01 s
wall time for grad    0.01 s
 E :    -50.45848360  G :  0.002286    pred/act E change: -0.189D-04 -0.137D-04
Maxdispl :   0.1712   ||displ|| :   0.2146   Lambda : -0.167D-04
Largest |displ|/coords:  0.1712 (   2)  0.0681 (   1)  0.0570 (   7)
................................................................................
.............................. CYCLE   43 ......................................
................................................................................
   1    -50.7331207 -0.507331E+02  0.850E-02    9.43       0.0  T
   2    -50.7331219 -0.122023E-05  0.642E-02    9.43       1.0  T
   3    -50.7331231 -0.116631E-05  0.569E-03    9.44       3.4  T
   4    -50.7331233 -0.150622E-06  0.228E-03    9.43       8.6  T
   5    -50.7331233 -0.538069E-08  0.746E-04    9.43      26.3  T
   6    -50.7331233 -0.715197E-09  0.361E-04    9.43      54.4  T
speedup  0.88
cpu  time for SCC    0.00 s
wall time for SCC    0.01 s
speedup  0.97
cpu  time for grad    0.01 s
wall time for grad    0.01 s
 E :    -50.45849366  G :  0.002270    pred/act E change: -0.121D-04 -0.101D-04
Maxdispl :   0.0560   ||displ|| :   0.0898   Lambda : -0.168D-04
Largest |displ|/coords:  0.0560 (   2)  0.0435 (   3)  0.0204 (   5)
................................................................................
.............................. CYCLE   44 ......................................
................................................................................
   1    -50.7335883 -0.507336E+02  0.381E-02    9.44       0.0  T
   2    -50.7335887 -0.386618E-06  0.288E-02    9.44       1.0  T
   3    -50.7335889 -0.247363E-06  0.359E-03    9.44       5.5  T
   4    -50.7335890 -0.623518E-07  0.171E-03    9.44      11.5  T
   5    -50.7335890 -0.363723E-08  0.357E-04    9.44      55.0  T
   6    -50.7335890 -0.162338E-09  0.218E-04    9.44      89.9  T
speedup  1.05
cpu  time for SCC    0.01 s
wall time for SCC    0.01 s
speedup  1.03
cpu  time for grad    0.01 s
wall time for grad    0.01 s
 E :    -50.45850218  G :  0.001663    pred/act E change: -0.871D-05 -0.851D-05
Maxdispl :   0.0640   ||displ|| :   0.0832   Lambda : -0.128D-04
Largest |displ|/coords:  0.0640 (   2)  0.0284 (   3)  0.0210 (   7)
................................................................................
.............................. CYCLE   45 ......................................
................................................................................
   1    -50.7336118 -0.507336E+02  0.356E-02    9.44       0.0  T
   2    -50.7336120 -0.234192E-06  0.269E-02    9.44       1.0  T
   3    -50.7336122 -0.154984E-06  0.281E-03    9.44       7.0  T
   4    -50.7336122 -0.395526E-07  0.125E-03    9.44      15.7  T
   5    -50.7336122 -0.153327E-08  0.276E-04    9.44      71.0  T
   6    -50.7336122 -0.104293E-09  0.171E-04    9.44     114.8  T
speedup  1.05
cpu  time for SCC    0.01 s
wall time for SCC    0.01 s
speedup  1.04
cpu  time for grad    0.01 s
wall time for grad    0.01 s
 E :    -50.45851056  G :  0.001967    pred/act E change: -0.846D-05 -0.838D-05
Maxdispl :   0.0629   ||displ|| :   0.0912   Lambda : -0.106D-04
Largest |displ|/coords:  0.0629 (   2)  0.0394 (   3)  0.0275 (   7)
................................................................................
.............................. CYCLE   46 ......................................
................................................................................
   1    -50.7335101 -0.507335E+02  0.372E-02    9.44       0.0  T
   2    -50.7335103 -0.228142E-06  0.280E-02    9.44       1.0  T
   3    -50.7335105 -0.163534E-06  0.308E-03    9.44       6.4  T
   4    -50.7335105 -0.357869E-07  0.121E-03    9.44      16.2  T
   5    -50.7335105 -0.112173E-08  0.286E-04    9.44      68.5  T
   6    -50.7335105 -0.115122E-09  0.176E-04    9.44     111.5  T
speedup  0.88
cpu  time for SCC    0.01 s
wall time for SCC    0.01 s
speedup  0.97
cpu  time for grad    0.01 s
wall time for grad    0.01 s
 E :    -50.45851902  G :  0.002103    pred/act E change: -0.647D-05 -0.846D-05
Maxdispl :   0.1157   ||displ|| :   0.1811   Lambda : -0.187D-04
Largest |displ|/coords:  0.1157 (   2)  0.0926 (   3)  0.0547 (   7)
................................................................................
.............................. CYCLE   47 ......................................
................................................................................
   1    -50.7332868 -0.507333E+02  0.745E-02    9.44       0.0  T
   2    -50.7332877 -0.950665E-06  0.559E-02    9.44       1.0  T
   3    -50.7332884 -0.667859E-06  0.644E-03    9.44       3.0  T
   4    -50.7332885 -0.148385E-06  0.240E-03    9.44       8.2  T
   5    -50.7332885 -0.423868E-08  0.595E-04    9.44      33.0  T
   6    -50.7332885 -0.473023E-09  0.353E-04    9.44      55.6  T
speedup  1.05
cpu  time for SCC    0.01 s
wall time for SCC    0.01 s
speedup  1.03
cpu  time for grad    0.01 s
wall time for grad    0.01 s
 E :    -50.45853167  G :  0.002022    pred/act E change: -0.533D-05 -0.127D-04
Maxdispl :   0.0941   ||displ|| :   0.1435   Lambda : -0.104D-04
Largest |displ|/coords:  0.0941 (   2)  0.0764 (   3)  0.0339 (   7)
................................................................................
.............................. CYCLE   48 ......................................
................................................................................
   1    -50.7331396 -0.507331E+02  0.580E-02    9.44       0.0  T
   2    -50.7331402 -0.632710E-06  0.435E-02    9.44       1.0  T
   3    -50.7331407 -0.420980E-06  0.503E-03    9.44       3.9  T
   4    -50.7331408 -0.102601E-06  0.183E-03    9.44      10.7  T
   5    -50.7331408 -0.280984E-08  0.491E-04    9.44      39.9  T
   6    -50.7331408 -0.330964E-09  0.278E-04    9.44      70.5  T
speedup  1.05
cpu  time for SCC    0.01 s
wall time for SCC    0.01 s
speedup  1.04
cpu  time for grad    0.01 s
wall time for grad    0.01 s
 E :    -50.45853888  G :  0.001703    pred/act E change: -0.967D-05 -0.721D-05
Maxdispl :   0.0900   ||displ|| :   0.1481   Lambda : -0.107D-04
Largest |displ|/coords:  0.0900 (   2)  0.0853 (   3)  0.0404 (   7)
................................................................................
.............................. CYCLE   49 ......................................
................................................................................
   1    -50.7331868 -0.507332E+02  0.607E-02    9.44       0.0  T
   2    -50.7331875 -0.738778E-06  0.455E-02    9.44       1.0  T
   3    -50.7331880 -0.484178E-06  0.529E-03    9.45       3.7  T
   4    -50.7331881 -0.120326E-06  0.188E-03    9.45      10.4  T
   5    -50.7331881 -0.311108E-08  0.537E-04    9.45      36.5  T
   6    -50.7331881 -0.435357E-09  0.291E-04    9.45      67.5  T
speedup  1.03
cpu  time for SCC    0.01 s
wall time for SCC    0.01 s
speedup  0.96
cpu  time for grad    0.01 s
wall time for grad    0.01 s
 E :    -50.45854523  G :  0.001605    pred/act E change: -0.532D-05 -0.635D-05
Maxdispl :   0.0987   ||displ|| :   0.1331   Lambda : -0.789D-05
Largest |displ|/coords:  0.0987 (   2)  0.0517 (   3)  0.0332 (   1)
................................................................................
.............................. CYCLE   50 ......................................
................................................................................
   1    -50.7330593 -0.507331E+02  0.538E-02    9.44       0.0  T
   2    -50.7330600 -0.722895E-06  0.404E-02    9.44       1.0  T
   3    -50.7330604 -0.463679E-06  0.471E-03    9.44       4.2  T
   4    -50.7330606 -0.123944E-06  0.163E-03    9.44      12.0  T
   5    -50.7330606 -0.333004E-08  0.531E-04    9.44      36.9  T
   6    -50.7330606 -0.397179E-09  0.269E-04    9.44      73.0  T
speedup  1.05
cpu  time for SCC    0.01 s
wall time for SCC    0.01 s
speedup  0.97
cpu  time for grad    0.01 s
wall time for grad    0.01 s
 E :    -50.45855052  G :  0.001898    pred/act E change: -0.546D-05 -0.529D-05
Maxdispl :   0.0836   ||displ|| :   0.1141   Lambda : -0.171D-04
Largest |displ|/coords:  0.0836 (   3)  0.0380 (   2)  0.0367 (  11)
................................................................................
.............................. CYCLE   51 ......................................
................................................................................
   1    -50.7345857 -0.507346E+02  0.474E-02    9.47       0.0  T
   2    -50.7345869 -0.121294E-05  0.354E-02    9.47       1.0  T
   3    -50.7345875 -0.572587E-06  0.557E-03    9.47       3.5  T
   4    -50.7345877 -0.197818E-06  0.210E-03    9.47       9.3  T
   5    -50.7345877 -0.676142E-08  0.577E-04    9.47      34.0  T
   6    -50.7345877 -0.509203E-09  0.315E-04    9.47      62.3  T
speedup  0.86
cpu  time for SCC    0.00 s
wall time for SCC    0.01 s
speedup  0.96
cpu  time for grad    0.01 s
wall time for grad    0.01 s
 E :    -50.45854951  G :  0.003679    pred/act E change: -0.401D-05  0.101D-05
Maxdispl :   0.1411   ||displ|| :   0.1837   Lambda : -0.245D-04
Largest |displ|/coords:  0.1411 (   2)  0.0569 (   7)  0.0526 (   1)
................................................................................
.............................. CYCLE   52 ......................................
................................................................................
   1    -50.7334443 -0.507334E+02  0.770E-02    9.44       0.0  T
   2    -50.7334460 -0.169221E-05  0.581E-02    9.44       1.0  T
   3    -50.7334470 -0.100658E-05  0.710E-03    9.44       2.8  T
   4    -50.7334474 -0.314186E-06  0.227E-03    9.44       8.6  T
   5    -50.7334474 -0.651493E-08  0.765E-04    9.44      25.6  T
   6    -50.7334474 -0.715978E-09  0.381E-04    9.44      51.5  T
speedup  0.86
cpu  time for SCC    0.00 s
wall time for SCC    0.01 s
speedup  0.97
cpu  time for grad    0.01 s
wall time for grad    0.01 s
 E :    -50.45856534  G :  0.002694    pred/act E change: -0.867D-05 -0.158D-04
Maxdispl :   0.0985   ||displ|| :   0.1393   Lambda : -0.146D-04
Largest |displ|/coords:  0.0985 (   2)  0.0444 (   7)  0.0385 (   1)

generating ANC from model Hessian ...
 Shifting diagonal of input Hessian by   5.027877509415253E-003
 Lowest  eigenvalues of input Hessian
    0.005000   -0.000000   -0.000000   -0.000000    0.000000    0.000000
    0.000000    0.005312    0.005570    0.006019    0.006199    0.006717
    0.007219    0.007810    0.008722    0.008981    0.010296    0.012096
 Highest eigenvalues
    1.396828    1.397837    1.403603    2.798774    3.402732    3.531058
 
cpu  time for ANC gen    0.01 s
wall time for ANC gen    0.02 s
................................................................................
.............................. CYCLE   53 ......................................
................................................................................
   1    -50.7329806 -0.507330E+02  0.583E-02    9.42       0.0  T
   2    -50.7329824 -0.182133E-05  0.439E-02    9.42       1.0  T
   3    -50.7329832 -0.741958E-06  0.725E-03    9.43       2.7  T
   4    -50.7329835 -0.370073E-06  0.218E-03    9.42       9.0  T
   5    -50.7329836 -0.732002E-08  0.713E-04    9.42      27.5  T
   6    -50.7329836 -0.701419E-09  0.358E-04    9.42      54.8  T
speedup  0.86
cpu  time for SCC    0.00 s
wall time for SCC    0.01 s
speedup  0.95
cpu  time for grad    0.01 s
wall time for grad    0.01 s
 E :    -50.45857770  G :  0.003687    pred/act E change:  0.000D+00 -0.124D-04
Maxdispl :   0.0084   ||displ|| :   0.0183   Lambda : -0.164D-04
Largest |displ|/coords:  0.0084 (   3)  0.0078 (  15)  0.0072 (   4)
................................................................................
.............................. CYCLE   54 ......................................
................................................................................
   1    -50.7335409 -0.507335E+02  0.118E-02    9.43       0.0  T
   2    -50.7335410 -0.175376E-06  0.865E-03    9.43       2.3  T
   3    -50.7335411 -0.655971E-07  0.227E-03    9.43       8.6  T
   4    -50.7335411 -0.205237E-07  0.599E-04    9.43      32.7  T
   5    -50.7335411 -0.600956E-09  0.158E-04    9.43     124.2  T
speedup  0.98
cpu  time for SCC    0.00 s
wall time for SCC    0.01 s
speedup  1.00
cpu  time for grad    0.01 s
wall time for grad    0.01 s
 E :    -50.45858994  G :  0.002279    pred/act E change:  0.000D+00 -0.122D-04
Maxdispl :   0.0181   ||displ|| :   0.0367   Lambda : -0.205D-04
Largest |displ|/coords:  0.0181 (   3)  0.0142 (  15)  0.0126 (   7)
................................................................................
.............................. CYCLE   55 ......................................
................................................................................
   1    -50.7342630 -0.507343E+02  0.254E-02    9.44       0.0  T
   2    -50.7342639 -0.906119E-06  0.185E-02    9.44       1.1  T
   3    -50.7342642 -0.305082E-06  0.533E-03    9.44       3.7  T
   4    -50.7342644 -0.104225E-06  0.131E-03    9.44      14.9  T
   5    -50.7342644 -0.234720E-08  0.357E-04    9.44      54.9  T
   6    -50.7342644 -0.168555E-09  0.178E-04    9.44     110.4  T
speedup  1.02
cpu  time for SCC    0.01 s
wall time for SCC    0.01 s
speedup  1.01
cpu  time for grad    0.01 s
wall time for grad    0.01 s
 E :    -50.45860313  G :  0.002621    pred/act E change: -0.818D-05 -0.132D-04
Maxdispl :   0.0326   ||displ|| :   0.0521   Lambda : -0.217D-04
Largest |displ|/coords:  0.0326 (   3)  0.0186 (  15)  0.0157 (  18)
................................................................................
.............................. CYCLE   56 ......................................
................................................................................
   1    -50.7347009 -0.507347E+02  0.361E-02    9.45       0.0  T
   2    -50.7347029 -0.206036E-05  0.264E-02    9.45       1.0  T
   3    -50.7347036 -0.639835E-06  0.778E-03    9.44       2.5  T
   4    -50.7347038 -0.234943E-06  0.180E-03    9.44      10.9  T
   5    -50.7347038 -0.402303E-08  0.526E-04    9.44      37.3  T
   6    -50.7347038 -0.384610E-09  0.251E-04    9.44      78.2  T
speedup  1.02
cpu  time for SCC    0.01 s
wall time for SCC    0.01 s
speedup  1.02
cpu  time for grad    0.01 s
wall time for grad    0.01 s
 E :    -50.45861972  G :  0.003952    pred/act E change: -0.103D-04 -0.166D-04
Maxdispl :   0.0964   ||displ|| :   0.1592   Lambda : -0.664D-04
Largest |displ|/coords:  0.0964 (   3)  0.0599 (  15)  0.0523 (  18)
................................................................................
.............................. CYCLE   57 ......................................
................................................................................
   1    -50.7353244 -0.507353E+02  0.115E-01    9.45       0.0  T
   2    -50.7353508 -0.263739E-04  0.844E-02    9.45       1.0  T
   3    -50.7353593 -0.848500E-05  0.275E-02    9.45       1.0  T
   4    -50.7353619 -0.264404E-05  0.615E-03    9.45       3.2  T
   5    -50.7353620 -0.536883E-07  0.196E-03    9.45      10.0  T
   6    -50.7353620 -0.477511E-08  0.939E-04    9.45      20.9  T
   7    -50.7353620 -0.119056E-08  0.331E-04    9.45      59.2  T
speedup  1.00
cpu  time for SCC    0.01 s
wall time for SCC    0.01 s
speedup  1.01
cpu  time for grad    0.02 s
wall time for grad    0.02 s
 E :    -50.45868419  G :  0.006935    pred/act E change: -0.109D-04 -0.645D-04
Maxdispl :   0.5539   ||displ|| :   0.9411   Lambda : -0.431D-03
Largest |displ|/coords:  0.5539 (   3)  0.3586 (  15)  0.3184 (  18)
................................................................................
.............................. CYCLE   58 ......................................
................................................................................
   1    -50.7307108 -0.507307E+02  0.693E-01    9.35       0.0  T
   2    -50.7319330 -0.122224E-02  0.502E-01    9.36       1.0  T
   3    -50.7323387 -0.405705E-03  0.179E-01    9.37       1.0  T
   4    -50.7324281 -0.893513E-04  0.403E-02    9.37       1.0  T
   5    -50.7324311 -0.304166E-05  0.140E-02    9.37       1.4  T
   6    -50.7324314 -0.325575E-06  0.616E-03    9.36       3.2  T
   7    -50.7324315 -0.617740E-07  0.211E-03    9.37       9.3  T
   8    -50.7324315 -0.731934E-08  0.598E-04    9.37      32.8  T
speedup  0.99
cpu  time for SCC    0.01 s
wall time for SCC    0.01 s
speedup  0.97
cpu  time for grad    0.02 s
wall time for grad    0.02 s
 E :    -50.45777548  G :  0.045546    pred/act E change: -0.341D-04  0.909D-03
Maxdispl :   0.2028   ||displ|| :   0.3821   Lambda : -0.339D-02
Largest |displ|/coords:  0.2028 (  15)  0.1652 (   3)  0.1088 (  18)
................................................................................
.............................. CYCLE   59 ......................................
................................................................................
   1    -50.7376274 -0.507376E+02  0.390E-01    9.43       0.0  T
   2    -50.7378772 -0.249777E-03  0.288E-01    9.43       1.0  T
   3    -50.7379644 -0.872094E-04  0.842E-02    9.41       1.0  T
   4    -50.7379942 -0.298483E-04  0.191E-02    9.42       1.0  T
   5    -50.7379951 -0.895485E-06  0.632E-03    9.43       3.1  T
   6    -50.7379952 -0.314879E-07  0.362E-03    9.43       5.4  T
   7    -50.7379952 -0.207275E-07  0.976E-04    9.42      20.1  T
speedup  1.04
cpu  time for SCC    0.01 s
wall time for SCC    0.01 s
speedup  1.01
cpu  time for grad    0.01 s
wall time for grad    0.01 s
 E :    -50.45889250  G :  0.022090    pred/act E change: -0.406D-03 -0.112D-02
Maxdispl :   0.1118   ||displ|| :   0.1388   Lambda : -0.293D-03
Largest |displ|/coords:  0.1118 (   3)  0.0546 (   1)  0.0344 (   4)
................................................................................
.............................. CYCLE   60 ......................................
................................................................................
   1    -50.7389642 -0.507390E+02  0.683E-02    9.44       0.0  T
   2    -50.7389657 -0.146154E-05  0.510E-02    9.45       1.0  T
   3    -50.7389666 -0.914040E-06  0.681E-03    9.45       2.9  T
   4    -50.7389668 -0.206911E-06  0.212E-03    9.45       9.2  T
   5    -50.7389668 -0.875959E-08  0.782E-04    9.45      25.1  T
speedup  0.78
cpu  time for SCC    0.00 s
wall time for SCC    0.01 s
speedup  0.96
cpu  time for grad    0.01 s
wall time for grad    0.01 s
 E :    -50.45906052  G :  0.017525    pred/act E change: -0.194D-02 -0.168D-03
Maxdispl :   0.0437   ||displ|| :   0.1209   Lambda : -0.282D-03
Largest |displ|/coords:  0.0437 (  18)  0.0411 (  13)  0.0323 (   2)
................................................................................
.............................. CYCLE   61 ......................................
................................................................................
   1    -50.7398838 -0.507399E+02  0.100E-01    9.45       0.0  T
   2    -50.7399312 -0.474005E-04  0.705E-02    9.45       1.0  T
   3    -50.7399481 -0.169163E-04  0.314E-02    9.45       1.0  T
   4    -50.7399498 -0.167244E-05  0.692E-03    9.44       2.8  T
   5    -50.7399499 -0.923313E-07  0.211E-03    9.44       9.3  T
   6    -50.7399499 -0.566968E-08  0.101E-03    9.44      19.4  T
speedup  1.00
cpu  time for SCC    0.01 s
wall time for SCC    0.01 s
speedup  0.97
cpu  time for grad    0.01 s
wall time for grad    0.01 s
 E :    -50.45931573  G :  0.019272    pred/act E change: -0.149D-03 -0.255D-03
Maxdispl :   0.1683   ||displ|| :   0.4464   Lambda : -0.117D-02
Largest |displ|/coords:  0.1683 (  13)  0.1598 (  18)  0.1165 (   6)
................................................................................
.............................. CYCLE   62 ......................................
................................................................................
   1    -50.7424250 -0.507424E+02  0.334E-01    9.42       0.0  T
   2    -50.7428567 -0.431613E-03  0.239E-01    9.41       1.0  T
   3    -50.7430191 -0.162466E-03  0.993E-02    9.39       1.0  T
   4    -50.7430368 -0.176739E-04  0.227E-02    9.38       1.0  T
   5    -50.7430378 -0.104852E-05  0.714E-03    9.38       2.7  T
   6    -50.7430379 -0.727190E-07  0.328E-03    9.38       6.0  T
   7    -50.7430379 -0.158349E-07  0.112E-03    9.38      17.5  T
   8    -50.7430379 -0.237475E-08  0.354E-04    9.38      55.4  T
speedup  1.05
cpu  time for SCC    0.01 s
wall time for SCC    0.01 s
speedup  1.00
cpu  time for grad    0.02 s
wall time for grad    0.02 s
 E :    -50.45961164  G :  0.030053    pred/act E change: -0.143D-03 -0.296D-03
Maxdispl :   0.0751   ||displ|| :   0.2038   Lambda : -0.119D-02
Largest |displ|/coords:  0.0751 (  18)  0.0725 (   3)  0.0591 (   2)
................................................................................
.............................. CYCLE   63 ......................................
................................................................................
   1    -50.7378828 -0.507379E+02  0.163E-01    9.34       0.0  T
   2    -50.7379778 -0.950477E-04  0.114E-01    9.35       1.0  T
   3    -50.7380112 -0.333651E-04  0.434E-02    9.37       1.0  T
   4    -50.7380149 -0.368743E-05  0.101E-02    9.37       1.9  T
   5    -50.7380151 -0.201527E-06  0.269E-03    9.37       7.3  T
   6    -50.7380151 -0.957862E-08  0.151E-03    9.37      13.0  T
speedup  1.00
cpu  time for SCC    0.01 s
wall time for SCC    0.01 s
speedup  0.98
cpu  time for grad    0.01 s
wall time for grad    0.01 s
 E :    -50.46002013  G :  0.023724    pred/act E change: -0.702D-03 -0.408D-03
Maxdispl :   0.0679   ||displ|| :   0.1550   Lambda : -0.782D-03
Largest |displ|/coords:  0.0679 (   2)  0.0523 (   3)  0.0517 (   8)
................................................................................
.............................. CYCLE   64 ......................................
................................................................................
   1    -50.7416586 -0.507417E+02  0.124E-01    9.41       0.0  T
   2    -50.7416642 -0.565370E-05  0.941E-02    9.41       1.0  T
   3    -50.7416700 -0.576848E-05  0.132E-02    9.40       1.5  T
   4    -50.7416706 -0.611390E-06  0.477E-03    9.40       4.1  T
   5    -50.7416707 -0.289295E-07  0.177E-03    9.40      11.1  T
speedup  1.02
cpu  time for SCC    0.00 s
wall time for SCC    0.00 s
speedup  0.97
cpu  time for grad    0.01 s
wall time for grad    0.01 s
 E :    -50.46045359  G :  0.015217    pred/act E change: -0.621D-03 -0.433D-03
Maxdispl :   0.0872   ||displ|| :   0.2224   Lambda : -0.648D-03
Largest |displ|/coords:  0.0872 (  13)  0.0713 (   3)  0.0629 (   1)
................................................................................
.............................. CYCLE   65 ......................................
................................................................................
[...]
wall time for grad    0.01 s
 E :    -50.46293998  G :  0.000650    pred/act E change: -0.105D-05 -0.106D-05
Maxdispl :   0.0104   ||displ|| :   0.0157   Lambda : -0.150D-05
Largest |displ|/coords:  0.0104 (   4)  0.0046 (  14)  0.0041 (   3)
................................................................................
.............................. CYCLE  124 ......................................
................................................................................
   1    -50.7451215 -0.507451E+02  0.787E-03    9.40       0.0  T
   2    -50.7451215 -0.567447E-07  0.579E-03    9.40       3.4  T
   3    -50.7451216 -0.192716E-07  0.131E-03    9.40      15.0  T
   4    -50.7451216 -0.804030E-08  0.288E-04    9.40      68.0  T
   5    -50.7451216 -0.194277E-09  0.837E-05    9.40     234.2  T
speedup  1.02
cpu  time for SCC    0.00 s
wall time for SCC    0.00 s
speedup  1.01
cpu  time for grad    0.01 s
wall time for grad    0.01 s
 E :    -50.46294089  G :  0.000485    pred/act E change: -0.854D-06 -0.916D-06
Maxdispl :   0.0172   ||displ|| :   0.0225   Lambda : -0.866D-06
Largest |displ|/coords:  0.0172 (   4)  0.0065 (   7)  0.0065 (   1)
................................................................................
.............................. CYCLE  125 ......................................
................................................................................
   1    -50.7451122 -0.507451E+02  0.105E-02    9.40       0.0  T
   2    -50.7451123 -0.306886E-07  0.786E-03    9.40       2.5  T
   3    -50.7451123 -0.151467E-07  0.962E-04    9.40      20.4  T
   4    -50.7451123 -0.558142E-08  0.359E-04    9.40      54.6  T
speedup  0.98
cpu  time for SCC    0.00 s
wall time for SCC    0.00 s
speedup  1.00
cpu  time for grad    0.01 s
wall time for grad    0.01 s
 E :    -50.46294148  G :  0.000471    pred/act E change: -0.748D-06 -0.587D-06
Maxdispl :   0.0156   ||displ|| :   0.0193   Lambda : -0.598D-06
Largest |displ|/coords:  0.0156 (   4)  0.0050 (   5)  0.0042 (   6)
................................................................................
.............................. CYCLE  126 ......................................
................................................................................
   1    -50.7451585 -0.507452E+02  0.885E-03    9.40       0.0  T
   2    -50.7451585 -0.155478E-07  0.666E-03    9.40       2.9  T
   3    -50.7451585 -0.105636E-07  0.718E-04    9.40      27.3  T
   4    -50.7451585 -0.236362E-08  0.371E-04    9.40      52.8  T
speedup  1.03
cpu  time for SCC    0.00 s
wall time for SCC    0.00 s
speedup  1.02
cpu  time for grad    0.01 s
wall time for grad    0.01 s
 E :    -50.46294191  G :  0.000328    pred/act E change: -0.433D-06 -0.434D-06
Maxdispl :   0.0182   ||displ|| :   0.0237   Lambda : -0.394D-06
Largest |displ|/coords:  0.0182 (   4)  0.0071 (   5)  0.0064 (   6)
................................................................................
.............................. CYCLE  127 ......................................
................................................................................
   1    -50.7451882 -0.507452E+02  0.105E-02    9.40       0.0  T
   2    -50.7451882 -0.177252E-07  0.791E-03    9.40       2.5  T
   3    -50.7451882 -0.153105E-07  0.776E-04    9.40      25.3  T
   4    -50.7451882 -0.230445E-08  0.421E-04    9.40      46.6  T
speedup  1.00
cpu  time for SCC    0.00 s
wall time for SCC    0.00 s
speedup  0.93
cpu  time for grad    0.01 s
wall time for grad    0.01 s
 E :    -50.46294220  G :  0.000192    pred/act E change: -0.299D-06 -0.284D-06
Maxdispl :   0.0132   ||displ|| :   0.0169   Lambda : -0.219D-06
Largest |displ|/coords:  0.0132 (   4)  0.0050 (   5)  0.0043 (   6)
................................................................................
.............................. CYCLE  128 ......................................
................................................................................
   1    -50.7452159 -0.507452E+02  0.712E-03    9.40       0.0  T
   2    -50.7452159 -0.753494E-08  0.535E-03    9.40       3.7  T
   3    -50.7452159 -0.683263E-08  0.519E-04    9.40      37.8  T
   4    -50.7452160 -0.936403E-09  0.279E-04    9.40      70.2  T
speedup  1.03
cpu  time for SCC    0.00 s
wall time for SCC    0.00 s
speedup  1.01
cpu  time for grad    0.01 s
wall time for grad    0.01 s
 E :    -50.46294237  G :  0.000185    pred/act E change: -0.197D-06 -0.171D-06
Maxdispl :   0.0152   ||displ|| :   0.0194   Lambda : -0.193D-06
Largest |displ|/coords:  0.0152 (   4)  0.0054 (   5)  0.0053 (   6)
................................................................................
.............................. CYCLE  129 ......................................
................................................................................
   1    -50.7452158 -0.507452E+02  0.823E-03    9.40       0.0  T
   2    -50.7452158 -0.897479E-08  0.618E-03    9.40       3.2  T
   3    -50.7452158 -0.908518E-08  0.575E-04    9.40      34.1  T
   4    -50.7452158 -0.933866E-09  0.296E-04    9.40      66.3  T
speedup  1.03
cpu  time for SCC    0.00 s
wall time for SCC    0.00 s
speedup  1.01
cpu  time for grad    0.01 s
wall time for grad    0.01 s
 E :    -50.46294251  G :  0.000224    pred/act E change: -0.109D-06 -0.142D-06
Maxdispl :   0.0106   ||displ|| :   0.0134   Lambda : -0.165D-06
Largest |displ|/coords:  0.0106 (   4)  0.0038 (   2)  0.0036 (  13)
................................................................................
.............................. CYCLE  130 ......................................
................................................................................
   1    -50.7452215 -0.507452E+02  0.547E-03    9.40       0.0  T
   2    -50.7452215 -0.418929E-08  0.411E-03    9.40       4.8  T
   3    -50.7452215 -0.459493E-08  0.441E-04    9.40      44.5  T
   4    -50.7452215 -0.337842E-09  0.166E-04    9.40     118.4  T
speedup  1.00
cpu  time for SCC    0.00 s
wall time for SCC    0.00 s
speedup  1.00
cpu  time for grad    0.01 s
wall time for grad    0.01 s
 E :    -50.46294265  G :  0.000244    pred/act E change: -0.968D-07 -0.134D-06
Maxdispl :   0.0185   ||displ|| :   0.0233   Lambda : -0.242D-06
Largest |displ|/coords:  0.0185 (   4)  0.0068 (   2)  0.0067 (   6)
................................................................................
.............................. CYCLE  131 ......................................
................................................................................
   1    -50.7451773 -0.507452E+02  0.960E-03    9.40       0.0  T
   2    -50.7451773 -0.122859E-07  0.723E-03    9.40       2.7  T
   3    -50.7451773 -0.147763E-07  0.709E-04    9.40      27.7  T
   4    -50.7451773 -0.763045E-09  0.274E-04    9.40      71.6  T
speedup  0.75
cpu  time for SCC    0.00 s
wall time for SCC    0.00 s
speedup  0.99
cpu  time for grad    0.01 s
wall time for grad    0.01 s
 E :    -50.46294281  G :  0.000175    pred/act E change: -0.824D-07 -0.164D-06
Maxdispl :   0.0072   ||displ|| :   0.0104   Lambda : -0.143D-06
Largest |displ|/coords:  0.0072 (   1)  0.0038 (   5)  0.0034 (   4)
................................................................................
.............................. CYCLE  132 ......................................
................................................................................
   1    -50.7451852 -0.507452E+02  0.546E-03    9.40       0.0  T
   2    -50.7451852 -0.357743E-08  0.414E-03    9.40       4.7  T
   3    -50.7451852 -0.440900E-08  0.319E-04    9.40      61.5  T
   4    -50.7451852 -0.204942E-09  0.118E-04    9.40     165.7  T
speedup  1.00
cpu  time for SCC    0.00 s
wall time for SCC    0.00 s
speedup  1.01
cpu  time for grad    0.01 s
wall time for grad    0.01 s
 E :    -50.46294292  G :  0.000183    pred/act E change: -0.121D-06 -0.107D-06
Maxdispl :   0.0107   ||displ|| :   0.0151   Lambda : -0.158D-06
Largest |displ|/coords:  0.0107 (   4)  0.0053 (   2)  0.0049 (   1)
................................................................................
.............................. CYCLE  133 ......................................
................................................................................
   1    -50.7451304 -0.507451E+02  0.743E-03    9.40       0.0  T
   2    -50.7451304 -0.749888E-08  0.563E-03    9.40       3.5  T
   3    -50.7451304 -0.978366E-08  0.439E-04    9.40      44.6  T
   4    -50.7451304 -0.330751E-09  0.139E-04    9.40     140.9  T
speedup  0.98
cpu  time for SCC    0.00 s
wall time for SCC    0.00 s
speedup  0.99
cpu  time for grad    0.01 s
wall time for grad    0.01 s
 E :    -50.46294301  G :  0.000172    pred/act E change: -0.713D-07 -0.977D-07
Maxdispl :   0.0053   ||displ|| :   0.0075   Lambda : -0.867D-07
Largest |displ|/coords:  0.0053 (   1)  0.0037 (   5)  0.0019 (  16)

   *** GEOMETRY OPTIMIZATION CONVERGED AFTER 133 ITERATIONS ***

------------------------------------------------------------------------
 total energy gain (kcal):     -0.0189
------------------------------------------------------------------------
================
 final structure:
================
$coord
        0.27260674591034       -0.77605129542762        2.08252178166846      S 
       -1.75445959138003       -2.60902713401649        2.22502980851877      O 
        1.01225321095836        0.05448329008028        4.80252513425440      O 
        2.59365452700766       -1.86477757220881        1.00163732115467      O 
       -0.46526110949398        1.49299959004696        0.69892172740898      O 
       -0.31356464251764       -0.60110144472818       -6.24743968634582      O 
       -1.95978882968653       -0.63195309139738       -7.00071302131067      H 
       -5.76921731929004       -0.88501961716819        4.64539175086948      O 
       -6.03196273159553       -2.00852288768154        6.04215610297855      H 
       -4.41387939027013       -1.64451456256348        3.62837987910934      H 
       -0.34992847789047       -4.01604700507242       -2.51733577951746      O 
        1.09013056655029       -3.64693344911502       -1.44325983444138      H 
       -1.73922126396454       -3.95923782708322       -1.33534234225389      H 
       -0.31427608753327       -1.94308222281472       -4.95675560229833      H 
        1.26837399996899        3.32179772110589       -3.56132770262974      O 
        3.61931133849883        2.16702438809867       -2.81169781374511      H 
        0.59671740834567        2.08925633749236       -4.78933791960498      H 
        0.36553175606403        2.93630782359899       -1.98016289712074      H 
       -2.72016940231958        3.15004122826165        4.99264685773481      O 
       -0.32149363420554        1.31508587546764        5.25836141712433      H 
       -2.36940151432634        3.32240626149868        3.20447922922708      H 
       -4.14500647485268        1.96809466963036        5.09047439808830      H 
        5.17113259899985        0.99250777973503       -1.98107693974710      N 
        4.20229942506126       -0.20601420222590       -0.64101645926550      H 
        6.47247375143290        2.07222470193945       -1.07823570665673      H 
        6.00314514058793       -0.08994737402981       -3.32882374091486      H 
$end
 
 Bond Distances (Angstroems)
 ---------------------------
S1-O2=1.4482         S1-O3=1.5550         S1-O4=1.4723         S1-O5=1.4596         O2-S1=1.4482         O3-S1=1.5550         
O3-H20=1.0007        O4-S1=1.4723         O5-S1=1.4596         O6-H7=0.9582         O6-H14=0.9853        H7-O6=0.9582         
O8-H9=0.9587         O8-H10=0.9826        H9-O8=0.9587         H10-O8=0.9826        O11-H12=0.9705       O11-H13=0.9657       
H12-O11=0.9705       H13-O11=0.9657       H14-O6=0.9853        O15-H17=0.9869       O15-H18=0.9849       H16-N23=1.1198       
H17-O15=0.9869       H18-O15=0.9849       O19-H21=0.9686       O19-H22=0.9810       H20-O3=1.0007        H21-O19=0.9686       
H22-O19=0.9810       N23-H16=1.1198       N23-H24=1.0807       N23-H25=1.0144       N23-H26=1.0152       H24-N23=1.0807       
H25-N23=1.0144       H26-N23=1.0152       
 N  H  Rav=1.0575 sigma=0.0449  Rmin=1.0144  Rmax=1.1198     4
 O  H  Rav=0.9766 sigma=0.0127  Rmin=0.9582  Rmax=1.0007    11
 S  O  Rav=1.4838 sigma=0.0420  Rmin=1.4482  Rmax=1.5550     4
 
 selected bond angles (degree)
 --------------------
O3-S1-O2=109.12                O4-S1-O2=112.09                O4-S1-O3=105.08                O5-S1-O2=112.27                
O5-S1-O3=107.41                O5-S1-O4=110.50                H20-O3-S1=103.53               H14-O6-H7=106.01               
H10-O8-H9=105.93               
 
 selected dihedral angles (degree)
 ---------------------------------
H20-O3-S1-O2=280.36           H20-O3-S1-O4=159.98           H20-O3-S1-O5= 42.30           
 
 CMA Distance (Angstroems)
 ---------------------------
R(CMA):  1.6614

========================================================================
 FINAL SINGLEPOINT CALCULATION ON OPTIMIZED GEOMETRY
========================================================================

 Ncao       : 65
 Nao        : 64
 Nshell     : 38
 Nel        : 80
 T(el)      :   300.0
 intcut     :    25.0
 scfconv/Eh :  0.100E-05
   qconv/e  :  0.100E-03
 intneglect :  0.100E-07
 broydamp   :      0.250
 iter      E             dE          RMSdq      gap      omega  full diag
   1    -50.7451304 -0.507451E+02  0.535E-05    9.40       0.0  T
   2    -50.7451304 -0.293454E-11  0.355E-05    9.40     551.7  T
   3    -50.7451304 -0.202505E-11  0.984E-06    9.40    1992.5  T
speedup  1.00
cpu  time for SCC    0.00 s
wall time for SCC    0.00 s

   *** convergence criteria satisfied after 3 iterations ***

          eigenvalues
 #    :          28         29         30         31         32         33         34         35
 occ. :        2.000      2.000      2.000      2.000      2.000      2.000      2.000      2.000
 eps  :       -13.501    -13.095    -12.506    -12.427    -12.261    -12.217    -12.141    -12.003
 #    :          36         37         38         39         40         41         42         43
 occ. :        2.000      2.000      2.000      2.000      2.000      0.000      0.000      0.000
 eps  :       -11.970    -11.905    -11.871    -11.759    -11.687     -2.283     -1.122      0.111
 #    :          44         45         46         47         48         49         50         51
 occ. :        0.000      0.000      0.000      0.000      0.000      0.000      0.000      0.000
 eps  :         0.532      1.375      1.468      1.933      3.029      3.945      4.004      4.313


   #   Z            q   n(s)   n(p)   n(d)      C6AA      α(0)
   1  16 S      1.713  1.586  1.764  0.938    88.486    15.832
   2   8 O     -0.749  1.772  4.977  0.000    30.082     7.354
   3   8 O     -0.632  1.765  4.867  0.000    25.945     6.876
   4   8 O     -0.749  1.766  4.983  0.000    30.071     7.353
   5   8 O     -0.780  1.772  5.008  0.000    30.978     7.462
   6   8 O     -0.616  1.747  4.870  0.000    25.579     6.826
   7   1 H      0.285  0.715  0.000  0.000     0.767     1.376
   8   8 O     -0.613  1.747  4.867  0.000    25.508     6.816
   9   1 H      0.285  0.715  0.000  0.000     0.769     1.377
  10   1 H      0.322  0.678  0.000  0.000     0.659     1.275
  11   8 O     -0.611  1.736  4.875  0.000    25.442     6.808
  12   1 H      0.306  0.694  0.000  0.000     0.704     1.318
  13   1 H      0.308  0.692  0.000  0.000     0.699     1.313
  14   1 H      0.332  0.668  0.000  0.000     0.633     1.250
  15   8 O     -0.602  1.758  4.844  0.000    25.199     6.777
  16   1 H      0.312  0.688  0.000  0.000     0.674     1.285
  17   1 H      0.340  0.660  0.000  0.000     0.614     1.231
  18   1 H      0.339  0.661  0.000  0.000     0.616     1.233
  19   8 O     -0.615  1.754  4.861  0.000    25.544     6.821
  20   1 H      0.378  0.622  0.000  0.000     0.522     1.131
  21   1 H      0.309  0.691  0.000  0.000     0.693     1.308
  22   1 H      0.331  0.669  0.000  0.000     0.636     1.253
  23   7 N     -0.347  1.282  4.065  0.000    28.909     7.986
  24   1 H      0.298  0.702  0.000  0.000     0.719     1.327
  25   1 H      0.226  0.774  0.000  0.000     0.981     1.551
  26   1 H      0.232  0.768  0.000  0.000     0.957     1.533

 Mol. C6AA /au·bohr⁶  :       5459.708053
 Mol. C8AA /au·bohr⁸  :     118068.815951
 Mol. α(0) /au        :        106.671028

 
 Wiberg/Mayer (AO) data. WBOs > 0.1 written file <wbo>
 largest (>0.05) Wiberg bond orders for each atom
           total WBO             WBO to atom ...
     1  S   4.814    O    2 1.309    O    5 1.272    O    4 1.231    O    3 0.954
     2  O   1.717    S    1 1.309    O    5 0.107    O    4 0.096    O    3 0.084    H   10 0.061
     3  O   1.953    S    1 0.954    H   20 0.722    O    2 0.084    O    5 0.080    O    4 0.063
     4  O   1.757    S    1 1.231    H   24 0.141    O    5 0.102    O    2 0.096    O    3 0.063    N   23 0.055
     5  O   1.677    S    1 1.272    O    2 0.107    O    4 0.102    O    3 0.080    H   18 0.057
     6  O   1.868    H    7 0.915    H   14 0.821    H   17 0.068
     7  H   0.919    O    6 0.915
     8  O   1.861    H    9 0.916    H   10 0.831    H   22 0.055
     9  H   0.919    O    8 0.916
    10  H   0.896    O    8 0.831    O    2 0.061
    11  O   1.875    H   13 0.882    H   12 0.862    H   14 0.067
    12  H   0.906    O   11 0.862
    13  H   0.905    O   11 0.882
    14  H   0.890    O    6 0.821    O   11 0.067
    15  O   2.013    H   18 0.823    H   17 0.814    H   16 0.217    N   23 0.091
    16  H   0.902    N   23 0.681    O   15 0.217
    17  H   0.885    O   15 0.814    O    6 0.068
    18  H   0.885    O   15 0.823    O    5 0.057
    19  O   1.918    H   21 0.877    H   22 0.833    H   20 0.117
    20  H   0.857    O    3 0.722    O   19 0.117
    21  H   0.904    O   19 0.877
    22  H   0.891    O   19 0.833    O    8 0.055
    23  N   3.494    H   25 0.946    H   26 0.943    H   24 0.763    H   16 0.681    O   15 0.091    O    4 0.055
    24  H   0.911    N   23 0.763    O    4 0.141
    25  H   0.949    N   23 0.946
    26  H   0.946    N   23 0.943
 MOs/occ written to file <molden.input>
 
molecular dipole:
                 x           y           z       tot (Debye)
 q only:        1.960       0.593      -1.461
   full:        1.708       0.063      -0.977       5.003
molecular quadrupole (traceless):
                xx          xy          yy          xz          yz          zz
 q only:       15.679       7.544     -11.415      -5.705      -2.944      -4.264
  q+dip:       17.834       8.738     -12.512      -3.185      -5.392      -5.322
   full:       17.815       8.776     -12.966      -3.471      -5.185      -4.849

SCC energy    :     -50.7451304
rep           :       0.2819477
ES            :       0.2662671
AES           :      -0.0755226
AXC           :      -0.0091755
disp          :      -0.0188831
XB            :       0.0000000
fix           :       0.0000000
total E       :     -50.4629430
atomizationE  :       4.9932472     3133.31
(atE without considering molecular charge,
 total energy contains solvation terms)
H-L gap (eV)  :          9.4040
optimized geometry written to: xtbopt.xyz


------------------------------------------------------------------------
 * finished run on 2019/09/16 at 12:43:23.590     
------------------------------------------------------------------------
 total:
 * wall-time:     0 d,  0 h,  0 min,  3.122 sec
 *  cpu-time:     0 d,  0 h,  0 min,  3.095 sec
 * ratio c/w:     0.991 speedup
 SCF:
 * wall-time:     0 d,  0 h,  0 min,  0.155 sec
 *  cpu-time:     0 d,  0 h,  0 min,  0.150 sec
 * ratio c/w:     0.969 speedup
 ANC optimizer:
 * wall-time:     0 d,  0 h,  0 min,  2.939 sec
 *  cpu-time:     0 d,  0 h,  0 min,  2.918 sec
 * ratio c/w:     0.993 speedup

