      -----------------------------------------------------------      
     |                   =====================                   |     
     |                           x T B                           |     
     |                   =====================                   |     
     |                         S. Grimme                         |     
     |          Mulliken Center for Theoretical Chemistry        |     
     |                    University of Bonn                     |     
     |                 Version 6.0.1 (SAW181210)                 |     
      -----------------------------------------------------------      

   This program is distributed in the hope that it will be useful,
   but WITHOUT ANY WARRANTY; without even the implied warranty of
   MERCHANTABILITY or FITNESS FOR A PARTICULAR PURPOSE.
   
   FOR NON-COMMERCIAL, ACADEMIA USE ONLY.
   
   Cite this work as:
   S. Grimme, C. Bannwarth, P. Shushkov, J. Comput. Theory Chem., 2017,
   13, 1989-2009.
   C. Bannwarth, S. Ehlert and S. Grimme., ChemRxiv, 2018, preprint.
   http://doi.org/10.26434/chemrxiv.7246238.v1
   
   for sTDA-xTB:
   S. Grimme and C. Bannwarth, J. Chem. Phys., 2016, 145, 054103.
   
   in the mass-spec context:
   V. Asgeirsson, C. Bauer and S. Grimme, Chem. Sci., 2017, 8, 4879.
   
   if GBSA is used:
   P. Shushkov, F. März and S. Grimme, unpublished.
   
   for ANC optimizer:
   S. Grimme, unpublished.
   Rational Function algorithm used in ANCopt:
   F. Eckert, P. Pulay, H.-J. Werner, J. Comput. Chem., 1997, 18, 1473.
   
   with help from (in alphabetical order)
   C. Bannwarth, F. Bohle, G. Brandenburg, E. Caldeweyher, M. Checinski,
   S. Dohm, S. Ehlert, S. Ehrlich, F. März, H. Neugebauer, J. Pisarek,
   P. Pracht, P. Shushkov, and S. Spicher.
   
 * started run on 2019/09/16 at 12:44:40.674     
========================================================================
 # omp threads = 1
========================================================================
number of atoms            : 26
number of electrons        : 80
charge                     : 0
spin                       : .0
first test random number   : .8463

########################################################################
# WARNING! Please study the warnings concerning your input carefully
#  - XTBPATH is not set, using XTBHOME instead
#  - the use of '-opt' is discouraged, please use '--opt' next time
#  - the use of '-chrg' is discouraged, please use '--chrg' next time
#  - the use of '-uhf' is discouraged, please use '--uhf' next time
########################################################################

           ------------------------------------------------- 
          |                 G F N 2 - x T B                 |
          | Geometry, Frequencies, Noncovalent interactions |
          |            JCTC 2018 parametrisation            |
           ------------------------------------------------- 
      method parameters     
 k(s)        :  1.8500
 k(p)        :  2.2300
 k(d)        :  2.2300
 k(f)        :  2.0000
 kEN (H0ij)  : -2.0000
 D4 a1       :  0.5200
 D4 a2       :  5.0000
 D4 s6       :  1.0000
 D4 s8       :  2.7000
 D4 s9       :  5.0000
 alphaj      :  2.0000


            Z     q(EN)     CN     RAES       Cart. coordinates
     1  S   6.0    0.68    4.09    3.85    -0.78855    -0.38224    -3.47648
     2  O   6.0   -0.26    1.11    1.80    -2.16937    -0.62995    -5.91781
     3  O   6.0   -0.33    1.25    1.80    -2.64051    -0.07995    -1.37720
     4  O   6.0   -0.32    1.22    1.80     0.76079    -2.69170    -3.03597
     5  O   6.0   -0.33    1.28    1.80     0.89488     1.87264    -3.57493
     6  O   6.0   -0.40    1.69    1.81     2.64226    -0.14958     2.75415
     7  H   1.0    0.17    0.95    1.42     3.57926    -0.05195     4.36544
     8  O   6.0   -0.29    2.04    1.83     0.66899     6.30110    -1.19728
     9  H   1.0    0.15    0.97    1.43     0.61322     7.84842    -2.15505
    10  H   1.0    0.17    1.04    1.43     0.73110     4.96939    -2.43716
    11  O   6.0   -0.22    2.92    2.58     4.89246     0.21667    -1.22639
    12  H   1.0    0.15    1.07    1.44     3.78532     1.22032    -2.34746
    13  H   1.0    0.16    1.17    1.46     4.22373     0.12088     0.51535
    14  H   1.0    0.13    0.96    1.43     5.25133    -1.47624    -1.93120
    15  O   6.0   -0.23    2.92    2.60    -0.74023     2.87198     2.02836
    16  H   1.0    0.15    1.06    1.44    -1.95387     1.93104     0.96461
    17  H   1.0    0.16    1.17    1.46     0.69053     1.80132     2.57300
    18  H   1.0    0.14    1.04    1.43    -0.16118     4.44559     1.20377
    19  O   6.0   -0.23    2.93    2.60     0.33932    -3.97229     1.65966
    20  H   1.0    0.16    1.17    1.46     1.29166    -2.53694     2.38262
    21  H   1.0    0.12    1.06    1.44    -1.44646    -3.97533     2.20830
    22  H   1.0    0.15    1.07    1.44     0.49900    -4.05144    -0.20038
    23  N   5.0   -0.22    3.04    1.93    -4.74662    -3.56438     2.27163
    24  H   1.0    0.13    1.02    1.43    -4.55457    -2.30732     0.82457
    25  H   1.0    0.11    0.99    1.43    -5.88413    -2.70264     3.56566
    26  H   1.0    0.11    0.99    1.43    -5.77836    -5.02740     1.56019

  Z AO/shell   Hii/eV     exponent
  1     Wed Apr 25 08:07:45 CEST 2018   EN: 2.200 GM2: 0.406  GM3: 0.0800  RAES: 1.40
     1s    -10.707211    1.230000
  7     Wed Apr 25 08:07:45 CEST 2018   EN: 3.040 GM2: 0.461  GM3:-0.0640  RAES: 1.90
     2s    -16.686243    2.339881
     2p    -12.523956    2.014332
  8     Wed Apr 25 08:07:45 CEST 2018   EN: 3.440 GM2: 0.452  GM3:-0.0517  RAES: 1.80
     2s    -20.229985    2.439742
     2p    -15.503117    2.137023
 16     Tue Apr 24 11:44:34 CEST 2018   EN: 2.580 GM2: 0.340  GM3:-0.0502  RAES: 3.10
     3s    -20.029654    1.981333
     3p    -11.377694    2.025643
     3d     -0.420282    1.702555
 no old-style atom pair restraining (fixing) potential

molecular fragmentation (1/2 indicates fragments):
11111222222222222222222222
# atoms in fragment 1/2:     5    21
 fragment masses (1/2) :       96.06      109.12
CMA distance (Bohr)    :   4.706
constraining FC (au)   :  0.0500
           ------------------------------------------------- 
          |        Self-Consistent Charge Iterations        |
           ------------------------------------------------- 

 Ncao       : 65
 Nao        : 64
 Nshell     : 38
 Nel        : 80
 T(el)      :   300.0
 intcut     :    25.0
 scfconv/Eh :  0.100E-05
   qconv/e  :  0.100E-03
 intneglect :  0.100E-07
 broydamp   :      0.250
 iter      E             dE          RMSdq      gap      omega  full diag
   1    -50.5456566 -0.505457E+02  0.697E+00   10.18       0.0  T
   2    -50.5860568 -0.404002E-01  0.501E+00    9.62       1.0  T
   3    -50.6185421 -0.324852E-01  0.115E+00    6.77       1.0  T
   4    -50.6233529 -0.481082E-02  0.478E-01    6.95       1.0  T
   5    -50.6236863 -0.333376E-03  0.301E-01    6.74       1.0  T
   6    -50.6241138 -0.427564E-03  0.129E-01    6.77       1.0  T
   7    -50.6242099 -0.961221E-04  0.530E-02    6.86       1.0  T
   8    -50.6242231 -0.131342E-04  0.320E-02    6.86       1.0  T
   9    -50.6242290 -0.590167E-05  0.127E-02    6.86       1.5  T
  10    -50.6242299 -0.893149E-06  0.222E-03    6.86       8.8  T
  11    -50.6242299 -0.221546E-07  0.872E-04    6.86      22.5  T
  12    -50.6242299 -0.213777E-08  0.404E-04    6.86      48.5  T
speedup  1.03
cpu  time for SCC    0.02 s
wall time for SCC    0.02 s

   *** convergence criteria satisfied after 12 iterations ***

          eigenvalues
 #    :          28         29         30         31         32         33         34         35
 occ. :        2.000      2.000      2.000      2.000      2.000      2.000      2.000      2.000
 eps  :       -12.193    -11.970    -11.897    -11.831    -11.376    -10.729    -10.661    -10.048
 #    :          36         37         38         39         40         41         42         43
 occ. :        2.000      2.000      2.000      2.000      2.000      0.000      0.000      0.000
 eps  :       -10.007     -9.865     -9.458     -8.647     -8.617     -1.758     -0.255      0.184
 #    :          44         45         46         47         48         49         50         51
 occ. :        0.000      0.000      0.000      0.000      0.000      0.000      0.000      0.000
 eps  :         0.570      1.833      2.228      2.672      2.962      3.673      4.306      5.042


   #   Z            q   n(s)   n(p)   n(d)      C6AA      α(0)
   1  16 S      1.476  1.607  1.915  1.003    94.050    16.322
   2   8 O     -0.750  1.795  4.956  0.000    30.121     7.358
   3   8 O     -0.801  1.773  5.028  0.000    31.622     7.539
   4   8 O     -0.802  1.776  5.027  0.000    31.656     7.543
   5   8 O     -0.805  1.775  5.030  0.000    31.730     7.552
   6   8 O     -0.833  1.825  5.008  0.000    32.552     7.651
   7   1 H      0.222  0.778  0.000  0.000     1.010     1.579
   8   8 O     -0.623  1.729  4.893  0.000    25.733     6.846
   9   1 H      0.288  0.712  0.000  0.000     0.758     1.368
  10   1 H      0.338  0.662  0.000  0.000     0.616     1.233
  11   8 O     -0.421  1.647  4.774  0.000    21.199     6.218
  12   1 H      0.409  0.591  0.000  0.000     0.469     1.076
  13   1 H      0.407  0.593  0.000  0.000     0.467     1.072
  14   1 H      0.381  0.619  0.000  0.000     0.521     1.135
  15   8 O     -0.455  1.655  4.799  0.000    21.884     6.318
  16   1 H      0.401  0.599  0.000  0.000     0.482     1.091
  17   1 H      0.398  0.602  0.000  0.000     0.484     1.091
  18   1 H      0.400  0.600  0.000  0.000     0.485     1.094
  19   8 O     -0.454  1.652  4.802  0.000    21.863     6.315
  20   1 H      0.397  0.603  0.000  0.000     0.486     1.093
  21   1 H      0.381  0.619  0.000  0.000     0.520     1.133
  22   1 H      0.400  0.600  0.000  0.000     0.484     1.093
  23   7 N     -0.464  1.383  4.081  0.000    32.244     8.433
  24   1 H      0.208  0.792  0.000  0.000     1.064     1.616
  25   1 H      0.148  0.852  0.000  0.000     1.416     1.864
  26   1 H      0.152  0.848  0.000  0.000     1.386     1.844

 Mol. C6AA /au·bohr⁶  :       5548.471999
 Mol. C8AA /au·bohr⁸  :     120634.271027
 Mol. α(0) /au        :        107.479025

 
 Wiberg/Mayer (AO) data. WBOs > 0.1 written file <wbo>
 largest (>0.05) Wiberg bond orders for each atom
           total WBO             WBO to atom ...
     1  S   5.022    O    2 1.366    O    4 1.226    O    3 1.208    O    5 1.189
     2  O   1.671    S    1 1.366    O    4 0.099    O    3 0.096    O    5 0.094
     3  O   1.672    S    1 1.208    H   16 0.102    O    2 0.096    O    4 0.093    O    5 0.088
     4  O   1.663    S    1 1.226    H   22 0.104    O    2 0.099    O    3 0.093    O    5 0.087
     5  O   1.683    S    1 1.189    H   12 0.104    O    2 0.094    O    3 0.088    O    4 0.087    H   10 0.055
     6  O   1.670    H    7 0.944    H   13 0.186    H   17 0.174    H   20 0.171    O   11 0.060    O   15 0.058    O   19 0.057
     7  H   0.950    O    6 0.944
     8  O   1.849    H    9 0.904    H   10 0.826    H   18 0.067
     9  H   0.917    O    8 0.904
    10  H   0.886    O    8 0.826    O    5 0.055
    11  O   2.313    H   14 0.843    H   12 0.720    H   13 0.644    O    6 0.060
    12  H   0.833    O   11 0.720    O    5 0.104
    13  H   0.834    O   11 0.644    O    6 0.186
    14  H   0.855    O   11 0.843
    15  O   2.290    H   18 0.765    H   16 0.727    H   17 0.664    O    6 0.058
    16  H   0.839    O   15 0.727    O    3 0.102
    17  H   0.842    O   15 0.664    O    6 0.174
    18  H   0.840    O   15 0.765    O    8 0.067
    19  O   2.291    H   21 0.756    H   22 0.726    H   20 0.667    O    6 0.057
    20  H   0.842    O   19 0.667    O    6 0.171
    21  H   0.854    O   19 0.756    N   23 0.090
    22  H   0.840    O   19 0.726    O    4 0.104
    23  N   3.019    H   26 0.974    H   25 0.973    H   24 0.923    H   21 0.090
    24  H   0.957    N   23 0.923
    25  H   0.978    N   23 0.973
    26  H   0.977    N   23 0.974
 MOs/occ written to file <molden.input>
 
molecular dipole:
                 x           y           z       tot (Debye)
 q only:        2.336       0.282       4.542
   full:        1.926       0.446       4.013      11.371
molecular quadrupole (traceless):
                xx          xy          yy          xz          yz          zz
 q only:       13.535      -0.027      14.739     -16.828      -8.440     -28.274
  q+dip:       15.790       1.325      12.267     -15.991      -9.664     -28.057
   full:       15.354       1.424      12.531     -16.029      -9.563     -27.885

SCC energy    :     -50.6242299
rep           :       0.2763936
ES            :       0.3635615
AES           :      -0.0809354
AXC           :      -0.0084498
disp          :      -0.0197550
XB            :       0.0000000
fix           :       0.0000000
total E       :     -50.3475198
atomizationE  :       4.8778240     3060.88
(atE without considering molecular charge,
 total energy contains solvation terms)
H-L gap (eV)  :          6.8590
           ------------------------------------------------- 
          |                 ===============                 |
          |                   A N C O P T                   |
          |                 ===============                 |
          |          Approximate Normal Coordinate          |
          |           Rational Function Optimizer           |
           ------------------------------------------------- 
dumping coords to <xtbopt.coord> and <xtbopt.log>
 optlevel               2
 Maxcycle             520
 Maxmicro              25
 Econv         1.000000000000000E-007
 Gconv         2.000000000000000E-004
 Maxdispl       1.00000000000000     
 Hlow          5.000000000000000E-003
 S6             20.0000000000000     
 Nvar               72

generating ANC from model Hessian ...
 Shifting diagonal of input Hessian by   4.778761716882718E-003
 Lowest  eigenvalues of input Hessian
   -0.000000   -0.000000   -0.000000   -0.000000    0.000000    0.000000
    0.005000    0.005031    0.005879    0.006166    0.006523    0.006646
    0.007497    0.008235    0.008769    0.008951    0.009656    0.010454
 Highest eigenvalues
    1.577221    1.579021    1.579799    3.082488    3.082788    3.084666
 
cpu  time for ANC gen    0.02 s
wall time for ANC gen    0.02 s
................................................................................
.............................. CYCLE    1 ......................................
................................................................................
   1    -50.6242299 -0.506242E+02  0.154E-04    6.86       0.0  T
   2    -50.6242299 -0.536744E-10  0.106E-04    6.86     184.3  T
   3    -50.6242299 -0.291891E-10  0.676E-05    6.86     290.2  T
speedup  0.94
cpu  time for SCC    0.00 s
wall time for SCC    0.00 s
speedup  0.98
cpu  time for grad    0.01 s
wall time for grad    0.01 s
 E :    -50.34751978  G :  0.204049    pred/act E change:  0.000D+00  0.255D-07
Maxdispl :   0.2497   ||displ|| :   0.4656   Lambda : -0.498D-01
Largest |displ|/coords:  0.2497 (  32)  0.1505 (  27)  0.1379 (  22)
................................................................................
.............................. CYCLE    2 ......................................
................................................................................
   1    -50.6419518 -0.506420E+02  0.383E-01    7.10       0.0  T
   2    -50.6423826 -0.430765E-03  0.286E-01    7.28       1.0  T
   3    -50.6425863 -0.203708E-03  0.108E-01    7.58       1.0  T
   4    -50.6426039 -0.176476E-04  0.323E-02    7.60       1.0  T
   5    -50.6426086 -0.465604E-05  0.100E-02    7.58       2.0  T
   6    -50.6426088 -0.190118E-06  0.487E-03    7.58       4.0  T
   7    -50.6426089 -0.112037E-06  0.210E-03    7.58       9.4  T
speedup  0.94
cpu  time for SCC    0.01 s
wall time for SCC    0.01 s
speedup  1.02
cpu  time for grad    0.01 s
wall time for grad    0.01 s
 E :    -50.38942272  G :  0.130263    pred/act E change:  0.000D+00 -0.419D-01
Maxdispl :   0.3300   ||displ|| :   0.5051   Lambda : -0.326D-01
Largest |displ|/coords:  0.3300 (  32)  0.1624 (  27)  0.1531 (  22)
................................................................................
.............................. CYCLE    3 ......................................
................................................................................
   1    -50.6520551 -0.506521E+02  0.398E-01    7.83       0.0  T
   2    -50.6528093 -0.754154E-03  0.287E-01    8.00       1.0  T
   3    -50.6531747 -0.365365E-03  0.120E-01    8.26       1.0  T
   4    -50.6531957 -0.210177E-04  0.342E-02    8.29       1.0  T
   5    -50.6531998 -0.408025E-05  0.116E-02    8.29       1.7  T
   6    -50.6532001 -0.342877E-06  0.574E-03    8.28       3.4  T
   7    -50.6532003 -0.147841E-06  0.248E-03    8.28       7.9  T
speedup  0.92
cpu  time for SCC    0.01 s
wall time for SCC    0.01 s
speedup  1.01
cpu  time for grad    0.01 s
wall time for grad    0.01 s
 E :    -50.41478959  G :  0.078275    pred/act E change: -0.303D-01 -0.254D-01
Maxdispl :   0.2205   ||displ|| :   0.4369   Lambda : -0.132D-01
Largest |displ|/coords:  0.2205 (  32)  0.1500 (   9)  0.1366 (  18)
................................................................................
.............................. CYCLE    4 ......................................
................................................................................
   1    -50.6552648 -0.506553E+02  0.335E-01    8.43       0.0  T
   2    -50.6558914 -0.626680E-03  0.234E-01    8.54       1.0  T
   3    -50.6561870 -0.295585E-03  0.102E-01    8.69       1.0  T
   4    -50.6562012 -0.142044E-04  0.274E-02    8.71       1.0  T
   5    -50.6562034 -0.216433E-05  0.931E-03    8.71       2.1  T
   6    -50.6562036 -0.231937E-06  0.477E-03    8.71       4.1  T
   7    -50.6562037 -0.871514E-07  0.197E-03    8.71       9.9  T
speedup  1.04
cpu  time for SCC    0.01 s
wall time for SCC    0.01 s
speedup  0.99
cpu  time for grad    0.01 s
wall time for grad    0.02 s
 E :    -50.42343542  G :  0.047224    pred/act E change: -0.205D-01 -0.865D-02
Maxdispl :   0.2022   ||displ|| :   0.3703   Lambda : -0.473D-02
Largest |displ|/coords:  0.2022 (   6)  0.1459 (  15)  0.0963 (  10)
................................................................................
.............................. CYCLE    5 ......................................
................................................................................
   1    -50.6566565 -0.506567E+02  0.275E-01    8.74       0.0  T
   2    -50.6568334 -0.176883E-03  0.202E-01    8.80       1.0  T
   3    -50.6569066 -0.732737E-04  0.744E-02    8.88       1.0  T
   4    -50.6569151 -0.850172E-05  0.175E-02    8.88       1.1  T
   5    -50.6569166 -0.142496E-05  0.513E-03    8.88       3.8  T
   6    -50.6569166 -0.404151E-07  0.232E-03    8.88       8.5  T
speedup  0.89
cpu  time for SCC    0.00 s
wall time for SCC    0.01 s
speedup  0.99
cpu  time for grad    0.01 s
wall time for grad    0.01 s
 E :    -50.42620757  G :  0.027026    pred/act E change: -0.788D-02 -0.277D-02
Maxdispl :   0.2330   ||displ|| :   0.3872   Lambda : -0.269D-02
Largest |displ|/coords:  0.2330 (   9)  0.1709 (   6)  0.1173 (   2)
................................................................................
.............................. CYCLE    6 ......................................
................................................................................
   1    -50.6615430 -0.506615E+02  0.278E-01    8.87       0.0  T
   2    -50.6616892 -0.146177E-03  0.205E-01    8.91       1.0  T
   3    -50.6617473 -0.580672E-04  0.673E-02    8.98       1.0  T
   4    -50.6617585 -0.112231E-04  0.157E-02    8.97       1.3  T
   5    -50.6617596 -0.106603E-05  0.479E-03    8.97       4.1  T
   6    -50.6617596 -0.301351E-07  0.231E-03    8.96       8.5  T
speedup  1.03
cpu  time for SCC    0.01 s
wall time for SCC    0.01 s
speedup  0.98
cpu  time for grad    0.01 s
wall time for grad    0.01 s
 E :    -50.42698078  G :  0.027875    pred/act E change: -0.269D-02 -0.773D-03
Maxdispl :   0.1260   ||displ|| :   0.2536   Lambda : -0.188D-02
Largest |displ|/coords:  0.1260 (  15)  0.1150 (   7)  0.1022 (   2)
................................................................................
.............................. CYCLE    7 ......................................
................................................................................
   1    -50.6646739 -0.506647E+02  0.267E-01    8.99       0.0  T
   2    -50.6647016 -0.277517E-04  0.203E-01    8.99       1.0  T
   3    -50.6647224 -0.207955E-04  0.273E-02    8.99       1.0  T
   4    -50.6647266 -0.414597E-05  0.665E-03    8.99       3.0  T
   5    -50.6647266 -0.612059E-07  0.293E-03    8.99       6.7  T
   6    -50.6647266 -0.740313E-08  0.125E-03    8.99      15.7  T
speedup  0.89
cpu  time for SCC    0.00 s
wall time for SCC    0.01 s
speedup  0.98
cpu  time for grad    0.01 s
wall time for grad    0.01 s
 E :    -50.42770711  G :  0.025334    pred/act E change: -0.154D-02 -0.726D-03
Maxdispl :   0.1048   ||displ|| :   0.1927   Lambda : -0.118D-02
Largest |displ|/coords:  0.1048 (   4)  0.0781 (  18)  0.0517 (  32)
................................................................................
.............................. CYCLE    8 ......................................
................................................................................
   1    -50.6659540 -0.506660E+02  0.112E-01    8.92       0.0  T
   2    -50.6659919 -0.379616E-04  0.805E-02    8.91       1.0  T
   3    -50.6660087 -0.167935E-04  0.289E-02    8.88       1.0  T
   4    -50.6660109 -0.215407E-05  0.665E-03    8.88       2.9  T
   5    -50.6660110 -0.861159E-07  0.250E-03    8.89       7.9  T
   6    -50.6660110 -0.106227E-07  0.126E-03    8.89      15.6  T
speedup  1.07
cpu  time for SCC    0.01 s
wall time for SCC    0.01 s
speedup  0.99
cpu  time for grad    0.01 s
wall time for grad    0.01 s
 E :    -50.42804413  G :  0.013793    pred/act E change: -0.998D-03 -0.337D-03
Maxdispl :   0.0864   ||displ|| :   0.1771   Lambda : -0.701D-03
Largest |displ|/coords:  0.0864 (   6)  0.0584 (  11)  0.0583 (   4)
................................................................................
.............................. CYCLE    9 ......................................
................................................................................
   1    -50.6618470 -0.506618E+02  0.145E-01    8.86       0.0  T
   2    -50.6618577 -0.107293E-04  0.108E-01    8.86       1.0  T
   3    -50.6618640 -0.632641E-05  0.187E-02    8.86       1.0  T
   4    -50.6618656 -0.152580E-05  0.498E-03    8.86       3.9  T
   5    -50.6618656 -0.386243E-07  0.211E-03    8.86       9.3  T
   6    -50.6618656 -0.502600E-08  0.104E-03    8.86      18.9  T
speedup  1.09
cpu  time for SCC    0.01 s
wall time for SCC    0.01 s
speedup  1.00
cpu  time for grad    0.01 s
wall time for grad    0.01 s
 E :    -50.42835967  G :  0.017027    pred/act E change: -0.612D-03 -0.316D-03
Maxdispl :   0.0899   ||displ|| :   0.1665   Lambda : -0.738D-03
Largest |displ|/coords:  0.0899 (   2)  0.0684 (  24)  0.0450 (   7)
................................................................................
.............................. CYCLE   10 ......................................
................................................................................
   1    -50.6643486 -0.506643E+02  0.126E-01    8.87       0.0  T
   2    -50.6644007 -0.520409E-04  0.891E-02    8.88       1.0  T
   3    -50.6644248 -0.240932E-04  0.322E-02    8.90       1.0  T
   4    -50.6644273 -0.256519E-05  0.540E-03    8.90       3.6  T
   5    -50.6644274 -0.790081E-07  0.279E-03    8.90       7.0  T
   6    -50.6644274 -0.138848E-07  0.135E-03    8.90      14.5  T
speedup  1.03
cpu  time for SCC    0.01 s
wall time for SCC    0.01 s
speedup  0.99
cpu  time for grad    0.01 s
wall time for grad    0.01 s
 E :    -50.42855453  G :  0.012349    pred/act E change: -0.361D-03 -0.195D-03
Maxdispl :   0.0855   ||displ|| :   0.1623   Lambda : -0.505D-03
Largest |displ|/coords:  0.0855 (   1)  0.0821 (   4)  0.0429 (  15)
................................................................................
.............................. CYCLE   11 ......................................
................................................................................
   1    -50.6647006 -0.506647E+02  0.119E-01    8.90       0.0  T
   2    -50.6647064 -0.583404E-05  0.888E-02    8.90       1.0  T
   3    -50.6647103 -0.391794E-05  0.138E-02    8.90       1.4  T
   4    -50.6647111 -0.840505E-06  0.371E-03    8.90       5.3  T
   5    -50.6647112 -0.203535E-07  0.166E-03    8.90      11.8  T
   6    -50.6647112 -0.327436E-08  0.792E-04    8.90      24.8  T
speedup  0.89
cpu  time for SCC    0.00 s
wall time for SCC    0.01 s
speedup  0.97
cpu  time for grad    0.01 s
wall time for grad    0.01 s
 E :    -50.42877959  G :  0.012684    pred/act E change: -0.379D-03 -0.225D-03
Maxdispl :   0.0756   ||displ|| :   0.1609   Lambda : -0.398D-03
Largest |displ|/coords:  0.0756 (   6)  0.0600 (   4)  0.0553 (   2)
................................................................................
.............................. CYCLE   12 ......................................
................................................................................
   1    -50.6643404 -0.506643E+02  0.908E-02    8.89       0.0  T
   2    -50.6643449 -0.453585E-05  0.675E-02    8.89       1.0  T
   3    -50.6643478 -0.287859E-05  0.136E-02    8.88       1.4  T
   4    -50.6643484 -0.566348E-06  0.419E-03    8.88       4.7  T
   5    -50.6643484 -0.211581E-07  0.128E-03    8.88      15.3  T
   6    -50.6643484 -0.268282E-08  0.692E-04    8.88      28.3  T
speedup  1.03
cpu  time for SCC    0.01 s
wall time for SCC    0.01 s
speedup  1.03
cpu  time for grad    0.01 s
wall time for grad    0.01 s
 E :    -50.42892542  G :  0.010614    pred/act E change: -0.259D-03 -0.146D-03
Maxdispl :   0.0541   ||displ|| :   0.1126   Lambda : -0.220D-03
Largest |displ|/coords:  0.0541 (   1)  0.0457 (   8)  0.0381 (  12)
................................................................................
.............................. CYCLE   13 ......................................
................................................................................
   1    -50.6643118 -0.506643E+02  0.770E-02    8.87       0.0  T
   2    -50.6643160 -0.421717E-05  0.561E-02    8.87       1.0  T
   3    -50.6643184 -0.238170E-05  0.135E-02    8.87       1.4  T
   4    -50.6643189 -0.455742E-06  0.344E-03    8.87       5.7  T
   5    -50.6643189 -0.191341E-07  0.127E-03    8.87      15.5  T
   6    -50.6643189 -0.238217E-08  0.641E-04    8.87      30.6  T
speedup  1.05
cpu  time for SCC    0.01 s
wall time for SCC    0.01 s
speedup  0.98
cpu  time for grad    0.01 s
wall time for grad    0.01 s
 E :    -50.42905361  G :  0.010340    pred/act E change: -0.204D-03 -0.128D-03
Maxdispl :   0.1072   ||displ|| :   0.1694   Lambda : -0.290D-03
Largest |displ|/coords:  0.1072 (   1)  0.0721 (   4)  0.0649 (  24)
................................................................................
.............................. CYCLE   14 ......................................
................................................................................
   1    -50.6654912 -0.506655E+02  0.113E-01    8.88       0.0  T
   2    -50.6655107 -0.195109E-04  0.823E-02    8.88       1.0  T
   3    -50.6655194 -0.870539E-05  0.243E-02    8.89       1.0  T
   4    -50.6655213 -0.191466E-05  0.559E-03    8.89       3.5  T
   5    -50.6655214 -0.549410E-07  0.225E-03    8.89       8.7  T
   6    -50.6655214 -0.517240E-08  0.117E-03    8.89      16.7  T
speedup  0.89
cpu  time for SCC    0.00 s
wall time for SCC    0.01 s
speedup  0.99
cpu  time for grad    0.01 s
wall time for grad    0.01 s
 E :    -50.42923392  G :  0.011600    pred/act E change: -0.111D-03 -0.180D-03
Maxdispl :   0.1854   ||displ|| :   0.2812   Lambda : -0.386D-03
Largest |displ|/coords:  0.1854 (   1)  0.1150 (   4)  0.0846 (  24)
................................................................................
.............................. CYCLE   15 ......................................
................................................................................
   1    -50.6652760 -0.506653E+02  0.185E-01    8.89       0.0  T
   2    -50.6653117 -0.357557E-04  0.137E-01    8.90       1.0  T
   3    -50.6653302 -0.184986E-04  0.381E-02    8.90       1.0  T
   4    -50.6653348 -0.453089E-05  0.123E-02    8.90       1.6  T
   5    -50.6653350 -0.220190E-06  0.369E-03    8.90       5.3  T
   6    -50.6653350 -0.203820E-07  0.201E-03    8.90       9.8  T
   7    -50.6653350 -0.826775E-08  0.547E-04    8.90      35.8  T
speedup  0.92
cpu  time for SCC    0.01 s
wall time for SCC    0.01 s
speedup  0.99
cpu  time for grad    0.01 s
wall time for grad    0.02 s
 E :    -50.42960515  G :  0.017650    pred/act E change: -0.149D-03 -0.371D-03
Maxdispl :   0.5239   ||displ|| :   0.8125   Lambda : -0.166D-02
Largest |displ|/coords:  0.5239 (   1)  0.2941 (   4)  0.2584 (  24)
................................................................................
.............................. CYCLE   16 ......................................
................................................................................
   1    -50.6633324 -0.506633E+02  0.595E-01    8.91       0.0  T
   2    -50.6637844 -0.451978E-03  0.442E-01    8.91       1.0  T
   3    -50.6640188 -0.234442E-03  0.134E-01    8.90       1.0  T
   4    -50.6640719 -0.530719E-04  0.466E-02    8.90       1.0  T
   5    -50.6640751 -0.317925E-05  0.129E-02    8.90       1.5  T
   6    -50.6640753 -0.247645E-06  0.711E-03    8.90       2.8  T
   7    -50.6640754 -0.952114E-07  0.194E-03    8.90      10.1  T
   8    -50.6640754 -0.101381E-07  0.501E-04    8.90      39.2  T
speedup  1.05
cpu  time for SCC    0.01 s
wall time for SCC    0.01 s
speedup  0.99
cpu  time for grad    0.02 s
wall time for grad    0.02 s
 E :    -50.43059013  G :  0.052278    pred/act E change: -0.209D-03 -0.985D-03
Maxdispl :   0.0680   ||displ|| :   0.1793   Lambda : -0.247D-02
Largest |displ|/coords:  0.0680 (   1)  0.0539 (  22)  0.0538 (   2)
................................................................................
.............................. CYCLE   17 ......................................
................................................................................
   1    -50.6734159 -0.506734E+02  0.207E-01    8.92       0.0  T
   2    -50.6734604 -0.444755E-04  0.153E-01    8.92       1.0  T
   3    -50.6734888 -0.283787E-04  0.364E-02    8.93       1.0  T
   4    -50.6734936 -0.484573E-05  0.992E-03    8.93       2.0  T
   5    -50.6734938 -0.159300E-06  0.394E-03    8.93       5.0  T
   6    -50.6734938 -0.140214E-07  0.192E-03    8.93      10.2  T
speedup  1.03
cpu  time for SCC    0.01 s
wall time for SCC    0.01 s
speedup  0.98
cpu  time for grad    0.01 s
wall time for grad    0.01 s
 E :    -50.43106428  G :  0.048782    pred/act E change: -0.138D-02 -0.474D-03
Maxdispl :   0.1401   ||displ|| :   0.2396   Lambda : -0.259D-02
Largest |displ|/coords:  0.1401 (   1)  0.1071 (   4)  0.0546 (  24)
................................................................................
.............................. CYCLE   18 ......................................
................................................................................
   1    -50.6764795 -0.506765E+02  0.175E-01    8.94       0.0  T
   2    -50.6765203 -0.408240E-04  0.131E-01    8.94       1.0  T
   3    -50.6765433 -0.230500E-04  0.394E-02    8.93       1.0  T
   4    -50.6765482 -0.482169E-05  0.144E-02    8.93       1.4  T
   5    -50.6765485 -0.348848E-06  0.418E-03    8.93       4.7  T
   6    -50.6765485 -0.292348E-07  0.229E-03    8.93       8.6  T
speedup  1.03
cpu  time for SCC    0.01 s
wall time for SCC    0.01 s
speedup  1.05
cpu  time for grad    0.01 s
wall time for grad    0.01 s
 E :    -50.43328585  G :  0.044564    pred/act E change: -0.127D-02 -0.222D-02
Maxdispl :   0.2948   ||displ|| :   0.5491   Lambda : -0.859D-02
Largest |displ|/coords:  0.2948 (   1)  0.1482 (  67)  0.1482 (  47)
................................................................................
.............................. CYCLE   19 ......................................
................................................................................
   1    -50.6921980 -0.506922E+02  0.535E-01    9.03       0.0  T
   2    -50.6926451 -0.447144E-03  0.399E-01    9.00       1.0  T
   3    -50.6929371 -0.291940E-03  0.131E-01    8.95       1.0  T
   4    -50.6929840 -0.469039E-04  0.493E-02    8.96       1.0  T
   5    -50.6929877 -0.375665E-05  0.137E-02    8.96       1.4  T
   6    -50.6929880 -0.291466E-06  0.785E-03    8.96       2.5  T
   7    -50.6929881 -0.759235E-07  0.180E-03    8.96      10.9  T
   8    -50.6929881 -0.965355E-08  0.472E-04    8.96      41.6  T
speedup  1.03
cpu  time for SCC    0.01 s
wall time for SCC    0.01 s
speedup  0.96
cpu  time for grad    0.02 s
wall time for grad    0.02 s
 E :    -50.43763696  G :  0.073457    pred/act E change: -0.137D-02 -0.435D-02
Maxdispl :   0.1277   ||displ|| :   0.3040   Lambda : -0.739D-02
Largest |displ|/coords:  0.1277 (   1)  0.0911 (   3)  0.0793 (  12)
................................................................................
.............................. CYCLE   20 ......................................
................................................................................
   1    -50.6884507 -0.506885E+02  0.340E-01    8.81       0.0  T
   2    -50.6886054 -0.154723E-03  0.247E-01    8.83       1.0  T
   3    -50.6887017 -0.962893E-04  0.712E-02    8.85       1.0  T
   4    -50.6887159 -0.142712E-04  0.187E-02    8.85       1.0  T
   5    -50.6887165 -0.560016E-06  0.761E-03    8.85       2.6  T
   6    -50.6887166 -0.780148E-07  0.361E-03    8.85       5.4  T
   7    -50.6887166 -0.215720E-07  0.110E-03    8.85      17.8  T
speedup  1.13
cpu  time for SCC    0.01 s
wall time for SCC    0.01 s
speedup  1.02
cpu  time for grad    0.02 s
wall time for grad    0.02 s
 E :    -50.43962076  G :  0.042008    pred/act E change: -0.559D-02 -0.198D-02
Maxdispl :   0.1577   ||displ|| :   0.3878   Lambda : -0.611D-02
Largest |displ|/coords:  0.1577 (   1)  0.1414 (   4)  0.1131 (  30)
................................................................................
.............................. CYCLE   21 ......................................
................................................................................
   1    -50.7111326 -0.507111E+02  0.304E-01    8.92       0.0  T
   2    -50.7113596 -0.227023E-03  0.225E-01    8.91       1.0  T
   3    -50.7115053 -0.145752E-03  0.922E-02    8.90       1.0  T
   4    -50.7115256 -0.202391E-04  0.317E-02    8.91       1.0  T
   5    -50.7115276 -0.198222E-05  0.974E-03    8.90       2.0  T
   6    -50.7115277 -0.102192E-06  0.483E-03    8.91       4.1  T
   7    -50.7115277 -0.243962E-07  0.112E-03    8.91      17.5  T
speedup  1.03
cpu  time for SCC    0.01 s
wall time for SCC    0.01 s
speedup  1.05
cpu  time for grad    0.02 s
wall time for grad    0.02 s
 E :    -50.44346581  G :  0.035792    pred/act E change: -0.404D-02 -0.385D-02
Maxdispl :   0.1921   ||displ|| :   0.4398   Lambda : -0.648D-02
Largest |displ|/coords:  0.1921 (  24)  0.1437 (   4)  0.1367 (  12)
................................................................................
.............................. CYCLE   22 ......................................
................................................................................
   1    -50.7233317 -0.507233E+02  0.334E-01    8.81       0.0  T
   2    -50.7233985 -0.667811E-04  0.246E-01    8.80       1.0  T
   3    -50.7234415 -0.430222E-04  0.524E-02    8.79       1.0  T
   4    -50.7234484 -0.689262E-05  0.168E-02    8.80       1.2  T
   5    -50.7234489 -0.509514E-06  0.544E-03    8.80       3.6  T
   6    -50.7234489 -0.384925E-07  0.297E-03    8.80       6.6  T
speedup  0.95
cpu  time for SCC    0.01 s
wall time for SCC    0.01 s
speedup  1.01
cpu  time for grad    0.01 s
wall time for grad    0.01 s
 E :    -50.44368157  G :  0.064559    pred/act E change: -0.351D-02 -0.216D-03
Maxdispl :   0.1146   ||displ|| :   0.3262   Lambda : -0.103D-01
Largest |displ|/coords:  0.1146 (  24)  0.1097 (  25)  0.1075 (   8)
................................................................................
.............................. CYCLE   23 ......................................
................................................................................
   1    -50.7104848 -0.507105E+02  0.323E-01    8.84       0.0  T
   2    -50.7106083 -0.123446E-03  0.234E-01    8.86       1.0  T
   3    -50.7106811 -0.728237E-04  0.625E-02    8.88       1.0  T
   4    -50.7106914 -0.102617E-04  0.165E-02    8.88       1.2  T
   5    -50.7106918 -0.443368E-06  0.614E-03    8.88       3.2  T
   6    -50.7106919 -0.501145E-07  0.278E-03    8.88       7.0  T
   7    -50.7106919 -0.203316E-07  0.964E-04    8.88      20.3  T
speedup  1.04
cpu  time for SCC    0.01 s
wall time for SCC    0.01 s
speedup  0.99
cpu  time for grad    0.01 s
wall time for grad    0.02 s
 E :    -50.44467542  G :  0.046085    pred/act E change: -0.387D-02 -0.994D-03
Maxdispl :   0.0612   ||displ|| :   0.1935   Lambda : -0.417D-02
Largest |displ|/coords:  0.0612 (  24)  0.0575 (   3)  0.0538 (   6)
................................................................................
.............................. CYCLE   24 ......................................
................................................................................
   1    -50.7150200 -0.507150E+02  0.148E-01    8.81       0.0  T
   2    -50.7150371 -0.170975E-04  0.110E-01    8.81       1.0  T
   3    -50.7150498 -0.126978E-04  0.221E-02    8.80       1.0  T
   4    -50.7150514 -0.161848E-05  0.698E-03    8.80       2.8  T
   5    -50.7150515 -0.623736E-07  0.252E-03    8.80       7.8  T
   6    -50.7150515 -0.893922E-08  0.109E-03    8.80      18.0  T
speedup  0.91
cpu  time for SCC    0.00 s
wall time for SCC    0.01 s
speedup  0.94
cpu  time for grad    0.01 s
wall time for grad    0.01 s
 E :    -50.44691046  G :  0.015581    pred/act E change: -0.569D-02 -0.224D-02
Maxdispl :   0.0924   ||displ|| :   0.2671   Lambda : -0.169D-02
Largest |displ|/coords:  0.0924 (  16)  0.0888 (   6)  0.0847 (  24)
................................................................................
.............................. CYCLE   25 ......................................
................................................................................
   1    -50.7200930 -0.507201E+02  0.179E-01    8.79       0.0  T
   2    -50.7201304 -0.373263E-04  0.133E-01    8.78       1.0  T
   3    -50.7201501 -0.197804E-04  0.373E-02    8.77       1.0  T
   4    -50.7201545 -0.434318E-05  0.131E-02    8.78       1.5  T
   5    -50.7201548 -0.308809E-06  0.455E-03    8.78       4.3  T
   6    -50.7201548 -0.362717E-07  0.223E-03    8.78       8.8  T
   7    -50.7201548 -0.844208E-08  0.715E-04    8.78      27.4  T
speedup  1.10
cpu  time for SCC    0.01 s
wall time for SCC    0.01 s
speedup  1.01
cpu  time for grad    0.02 s
wall time for grad    0.02 s
 E :    -50.44698888  G :  0.026060    pred/act E change: -0.216D-02 -0.784D-04
Maxdispl :   0.0685   ||displ|| :   0.1394   Lambda : -0.132D-02
Largest |displ|/coords:  0.0685 (   3)  0.0478 (   7)  0.0412 (  16)

generating ANC from model Hessian ...
 Shifting diagonal of input Hessian by   4.746102301731345E-003
 Lowest  eigenvalues of input Hessian
   -0.000000   -0.000000    0.000000    0.000000    0.000000    0.000000
    0.005000    0.005128    0.005614    0.005757    0.006051    0.006316
    0.007020    0.007475    0.008701    0.009733    0.010741    0.011679
 Highest eigenvalues
    1.396051    1.402172    1.402943    2.548467    3.335780    3.769953
 
cpu  time for ANC gen    0.02 s
wall time for ANC gen    0.03 s
................................................................................
.............................. CYCLE   26 ......................................
................................................................................
   1    -50.7212715 -0.507213E+02  0.880E-02    8.78       0.0  T
   2    -50.7212821 -0.106169E-04  0.645E-02    8.78       1.0  T
   3    -50.7212881 -0.603366E-05  0.179E-02    8.79       1.1  T
   4    -50.7212892 -0.105171E-05  0.547E-03    8.79       3.6  T
   5    -50.7212892 -0.576640E-07  0.207E-03    8.79       9.5  T
   6    -50.7212892 -0.565436E-08  0.873E-04    8.79      22.5  T
   7    -50.7212892 -0.196886E-08  0.248E-04    8.79      79.2  T
speedup  1.00
cpu  time for SCC    0.01 s
wall time for SCC    0.01 s
speedup  0.99
cpu  time for grad    0.02 s
wall time for grad    0.02 s
 E :    -50.44775831  G :  0.012357    pred/act E change:  0.000D+00 -0.769D-03
Maxdispl :   0.1193   ||displ|| :   0.2254   Lambda : -0.804D-03
Largest |displ|/coords:  0.1193 (   5)  0.0902 (   6)  0.0742 (   3)
................................................................................
.............................. CYCLE   27 ......................................
................................................................................
   1    -50.7195848 -0.507196E+02  0.110E-01    8.78       0.0  T
   2    -50.7195923 -0.747991E-05  0.825E-02    8.78       1.0  T
   3    -50.7195963 -0.401891E-05  0.156E-02    8.77       1.3  T
   4    -50.7195975 -0.110949E-05  0.430E-03    8.78       4.6  T
   5    -50.7195975 -0.480631E-07  0.151E-03    8.78      13.0  T
   6    -50.7195975 -0.222955E-08  0.905E-04    8.78      21.7  T
speedup  1.03
cpu  time for SCC    0.01 s
wall time for SCC    0.01 s
speedup  1.03
cpu  time for grad    0.01 s
wall time for grad    0.01 s
 E :    -50.44822858  G :  0.008021    pred/act E change:  0.000D+00 -0.470D-03
Maxdispl :   0.0899   ||displ|| :   0.2139   Lambda : -0.418D-03
Largest |displ|/coords:  0.0899 (   3)  0.0788 (  12)  0.0776 (   4)
................................................................................
.............................. CYCLE   28 ......................................
................................................................................
   1    -50.7186226 -0.507186E+02  0.939E-02    8.76       0.0  T
   2    -50.7186261 -0.352427E-05  0.699E-02    8.76       1.0  T
   3    -50.7186279 -0.181460E-05  0.113E-02    8.76       1.7  T
   4    -50.7186284 -0.528139E-06  0.343E-03    8.76       5.7  T
   5    -50.7186285 -0.237157E-07  0.104E-03    8.76      18.8  T
   6    -50.7186285 -0.137558E-08  0.658E-04    8.76      29.8  T
speedup  1.05
cpu  time for SCC    0.01 s
wall time for SCC    0.01 s
speedup  0.99
cpu  time for grad    0.01 s
wall time for grad    0.01 s
 E :    -50.44846395  G :  0.007635    pred/act E change: -0.423D-03 -0.235D-03
Maxdispl :   0.1057   ||displ|| :   0.1903   Lambda : -0.243D-03
Largest |displ|/coords:  0.1057 (   3)  0.0821 (   6)  0.0704 (  13)
................................................................................
.............................. CYCLE   29 ......................................
................................................................................
   1    -50.7188930 -0.507189E+02  0.859E-02    8.77       0.0  T
   2    -50.7188951 -0.203178E-05  0.645E-02    8.77       1.0  T
   3    -50.7188965 -0.141766E-05  0.791E-03    8.77       2.5  T
   4    -50.7188968 -0.288616E-06  0.324E-03    8.77       6.1  T
   5    -50.7188968 -0.136295E-07  0.996E-04    8.77      19.7  T
   6    -50.7188968 -0.159548E-08  0.547E-04    8.77      35.9  T
speedup  1.13
cpu  time for SCC    0.01 s
wall time for SCC    0.01 s
speedup  1.03
cpu  time for grad    0.01 s
wall time for grad    0.01 s
 E :    -50.44865324  G :  0.007507    pred/act E change: -0.218D-03 -0.189D-03
Maxdispl :   0.1717   ||displ|| :   0.3288   Lambda : -0.401D-03
Largest |displ|/coords:  0.1717 (   6)  0.1599 (   3)  0.1342 (  13)
................................................................................
.............................. CYCLE   30 ......................................
................................................................................
   1    -50.7207754 -0.507208E+02  0.146E-01    8.79       0.0  T
   2    -50.7207832 -0.779095E-05  0.110E-01    8.79       1.0  T
   3    -50.7207885 -0.533245E-05  0.161E-02    8.79       1.2  T
   4    -50.7207897 -0.120131E-05  0.603E-03    8.79       3.3  T
   5    -50.7207897 -0.443667E-07  0.198E-03    8.79       9.9  T
   6    -50.7207897 -0.600122E-08  0.104E-03    8.79      18.9  T
speedup  1.05
cpu  time for SCC    0.01 s
wall time for SCC    0.01 s
speedup  0.99
cpu  time for grad    0.01 s
wall time for grad    0.01 s
 E :    -50.44893158  G :  0.007901    pred/act E change: -0.126D-03 -0.278D-03
Maxdispl :   0.1288   ||displ|| :   0.2686   Lambda : -0.281D-03
Largest |displ|/coords:  0.1288 (   3)  0.1205 (   6)  0.1161 (  13)
................................................................................
.............................. CYCLE   31 ......................................
................................................................................
   1    -50.7236242 -0.507236E+02  0.122E-01    8.82       0.0  T
   2    -50.7236311 -0.690295E-05  0.915E-02    8.82       1.0  T
   3    -50.7236350 -0.385887E-05  0.161E-02    8.82       1.2  T
   4    -50.7236361 -0.115657E-05  0.504E-03    8.83       3.9  T
   5    -50.7236362 -0.280734E-07  0.165E-03    8.82      11.9  T
   6    -50.7236362 -0.396387E-08  0.867E-04    8.82      22.6  T
speedup  1.05
cpu  time for SCC    0.01 s
wall time for SCC    0.01 s
speedup  1.00
cpu  time for grad    0.01 s
wall time for grad    0.01 s
 E :    -50.44911618  G :  0.007715    pred/act E change: -0.222D-03 -0.185D-03
Maxdispl :   0.1356   ||displ|| :   0.2646   Lambda : -0.226D-03
Largest |displ|/coords:  0.1356 (   3)  0.1351 (   6)  0.0842 (  13)
................................................................................
.............................. CYCLE   32 ......................................
................................................................................
   1    -50.7253327 -0.507253E+02  0.120E-01    8.85       0.0  T
   2    -50.7253386 -0.585106E-05  0.903E-02    8.85       1.0  T
   3    -50.7253425 -0.389204E-05  0.153E-02    8.86       1.3  T
   4    -50.7253434 -0.906596E-06  0.472E-03    8.86       4.2  T
   5    -50.7253434 -0.254581E-07  0.149E-03    8.86      13.1  T
   6    -50.7253434 -0.298868E-08  0.809E-04    8.86      24.2  T
speedup  1.05
cpu  time for SCC    0.01 s
wall time for SCC    0.01 s
speedup  0.99
cpu  time for grad    0.01 s
wall time for grad    0.01 s
 E :    -50.44925783  G :  0.007742    pred/act E change: -0.151D-03 -0.142D-03
Maxdispl :   0.1121   ||displ|| :   0.2088   Lambda : -0.188D-03
Largest |displ|/coords:  0.1121 (   2)  0.1008 (   3)  0.0755 (   6)
................................................................................
.............................. CYCLE   33 ......................................
................................................................................
   1    -50.7259096 -0.507259E+02  0.896E-02    8.87       0.0  T
   2    -50.7259120 -0.242669E-05  0.668E-02    8.87       1.0  T
   3    -50.7259136 -0.163708E-05  0.106E-02    8.88       1.9  T
   4    -50.7259140 -0.324099E-06  0.361E-03    8.88       5.4  T
   5    -50.7259140 -0.163204E-07  0.105E-03    8.88      18.7  T
   6    -50.7259140 -0.180933E-08  0.621E-04    8.88      31.6  T
speedup  0.89
cpu  time for SCC    0.01 s
wall time for SCC    0.01 s
speedup  0.94
cpu  time for grad    0.01 s
wall time for grad    0.01 s
 E :    -50.44938995  G :  0.006982    pred/act E change: -0.121D-03 -0.132D-03
Maxdispl :   0.1539   ||displ|| :   0.2345   Lambda : -0.193D-03
Largest |displ|/coords:  0.1539 (   2)  0.1022 (   3)  0.0697 (   6)
................................................................................
.............................. CYCLE   34 ......................................
................................................................................
   1    -50.7261317 -0.507261E+02  0.980E-02    8.88       0.0  T
   2    -50.7261354 -0.375658E-05  0.728E-02    8.89       1.0  T
   3    -50.7261374 -0.201990E-05  0.120E-02    8.90       1.6  T
   4    -50.7261380 -0.558455E-06  0.486E-03    8.90       4.0  T
   5    -50.7261380 -0.203044E-07  0.129E-03    8.90      15.2  T
   6    -50.7261380 -0.275085E-08  0.740E-04    8.90      26.5  T
speedup  0.89
cpu  time for SCC    0.00 s
wall time for SCC    0.01 s
speedup  0.99
cpu  time for grad    0.01 s
wall time for grad    0.01 s
 E :    -50.44952019  G :  0.006827    pred/act E change: -0.983D-04 -0.130D-03
Maxdispl :   0.2208   ||displ|| :   0.3256   Lambda : -0.194D-03
Largest |displ|/coords:  0.2208 (   2)  0.1839 (   3)  0.0799 (   6)
................................................................................
.............................. CYCLE   35 ......................................
................................................................................
   1    -50.7236924 -0.507237E+02  0.130E-01    8.89       0.0  T
   2    -50.7236978 -0.541496E-05  0.969E-02    8.89       1.0  T
   3    -50.7237009 -0.313552E-05  0.137E-02    8.90       1.4  T
   4    -50.7237018 -0.826306E-06  0.566E-03    8.90       3.5  T
   5    -50.7237018 -0.329807E-07  0.156E-03    8.90      12.5  T
   6    -50.7237018 -0.379658E-08  0.937E-04    8.90      20.9  T
speedup  0.89
cpu  time for SCC    0.00 s
wall time for SCC    0.01 s
speedup  1.00
cpu  time for grad    0.01 s
wall time for grad    0.01 s
 E :    -50.44961087  G :  0.010501    pred/act E change: -0.102D-03 -0.907D-04
Maxdispl :   0.1258   ||displ|| :   0.1703   Lambda : -0.202D-03
Largest |displ|/coords:  0.1258 (   2)  0.0578 (   3)  0.0502 (   8)
................................................................................
.............................. CYCLE   36 ......................................
................................................................................
   1    -50.7255517 -0.507256E+02  0.708E-02    8.90       0.0  T
   2    -50.7255562 -0.451361E-05  0.527E-02    8.90       1.0  T
   3    -50.7255584 -0.222849E-05  0.119E-02    8.91       1.6  T
   4    -50.7255590 -0.579082E-06  0.388E-03    8.91       5.0  T
   5    -50.7255590 -0.286260E-07  0.132E-03    8.91      14.8  T
   6    -50.7255590 -0.266444E-08  0.682E-04    8.91      28.7  T
speedup  1.05
cpu  time for SCC    0.01 s
wall time for SCC    0.01 s
speedup  0.98
cpu  time for grad    0.01 s
wall time for grad    0.01 s
 E :    -50.44973065  G :  0.008743    pred/act E change: -0.107D-03 -0.120D-03
Maxdispl :   0.1868   ||displ|| :   0.2936   Lambda : -0.254D-03
Largest |displ|/coords:  0.1868 (   2)  0.1295 (   3)  0.1227 (   6)
................................................................................
.............................. CYCLE   37 ......................................
................................................................................
   1    -50.7237097 -0.507237E+02  0.124E-01    8.91       0.0  T
   2    -50.7237257 -0.159782E-04  0.923E-02    8.91       1.0  T
   3    -50.7237329 -0.718955E-05  0.221E-02    8.93       1.0  T
   4    -50.7237350 -0.213561E-05  0.714E-03    8.93       2.7  T
   5    -50.7237351 -0.100644E-06  0.238E-03    8.92       8.3  T
   6    -50.7237351 -0.758418E-08  0.134E-03    8.92      14.7  T
speedup  1.03
cpu  time for SCC    0.01 s
wall time for SCC    0.01 s
speedup  0.97
cpu  time for grad    0.01 s
wall time for grad    0.01 s
 E :    -50.44987473  G :  0.008384    pred/act E change: -0.104D-03 -0.144D-03
Maxdispl :   0.2394   ||displ|| :   0.3416   Lambda : -0.312D-03
Largest |displ|/coords:  0.2394 (   2)  0.1588 (   3)  0.1202 (   1)
................................................................................
.............................. CYCLE   38 ......................................
................................................................................
   1    -50.7249017 -0.507249E+02  0.157E-01    8.94       0.0  T
   2    -50.7249371 -0.354021E-04  0.116E-01    8.94       1.0  T
   3    -50.7249527 -0.155236E-04  0.319E-02    8.95       1.0  T
   4    -50.7249566 -0.396460E-05  0.988E-03    8.96       2.0  T
   5    -50.7249568 -0.204623E-06  0.349E-03    8.95       5.6  T
   6    -50.7249569 -0.161112E-07  0.192E-03    8.95      10.2  T
   7    -50.7249569 -0.627332E-08  0.480E-04    8.95      40.9  T
speedup  1.06
cpu  time for SCC    0.01 s
wall time for SCC    0.01 s
speedup  1.05
cpu  time for grad    0.02 s
wall time for grad    0.02 s
 E :    -50.45011882  G :  0.009692    pred/act E change: -0.138D-03 -0.244D-03
Maxdispl :   0.3278   ||displ|| :   0.4601   Lambda : -0.528D-03
Largest |displ|/coords:  0.3278 (   2)  0.1662 (   3)  0.1613 (   1)
................................................................................
.............................. CYCLE   39 ......................................
................................................................................
   1    -50.7269837 -0.507270E+02  0.250E-01    8.99       0.0  T
   2    -50.7271153 -0.131560E-03  0.185E-01    8.99       1.0  T
   3    -50.7271759 -0.605502E-04  0.612E-02    8.96       1.0  T
   4    -50.7271870 -0.111473E-04  0.188E-02    8.95       1.0  T
   5    -50.7271878 -0.813459E-06  0.677E-03    8.96       2.9  T
   6    -50.7271879 -0.606462E-07  0.366E-03    8.96       5.4  T
   7    -50.7271879 -0.216647E-07  0.817E-04    8.96      24.0  T
   8    -50.7271879 -0.281428E-08  0.183E-04    8.96     107.4  T
speedup  0.99
cpu  time for SCC    0.01 s
wall time for SCC    0.01 s
speedup  1.02
cpu  time for grad    0.02 s
wall time for grad    0.02 s
 E :    -50.45044742  G :  0.018363    pred/act E change: -0.174D-03 -0.329D-03
Maxdispl :   0.1684   ||displ|| :   0.3289   Lambda : -0.849D-03
Largest |displ|/coords:  0.1684 (   1)  0.1097 (   2)  0.0947 (  11)
................................................................................
.............................. CYCLE   40 ......................................
................................................................................
   1    -50.7377282 -0.507377E+02  0.258E-01    9.04       0.0  T
   2    -50.7379146 -0.186413E-03  0.189E-01    8.96       1.0  T
   3    -50.7380064 -0.917739E-04  0.716E-02    8.82       1.0  T
   4    -50.7380181 -0.117299E-04  0.220E-02    8.82       1.0  T
   5    -50.7380193 -0.113988E-05  0.767E-03    8.82       2.6  T
   6    -50.7380193 -0.716770E-07  0.410E-03    8.82       4.8  T
   7    -50.7380194 -0.239588E-07  0.911E-04    8.83      21.5  T
   8    -50.7380194 -0.327046E-08  0.254E-04    8.83      77.2  T
speedup  0.91
cpu  time for SCC    0.01 s
wall time for SCC    0.01 s
speedup  0.96
cpu  time for grad    0.02 s
wall time for grad    0.02 s
 E :    -50.45061050  G :  0.022956    pred/act E change: -0.320D-03 -0.163D-03
Maxdispl :   0.2024   ||displ|| :   0.2841   Lambda : -0.974D-03
Largest |displ|/coords:  0.2024 (   2)  0.1031 (   6)  0.0965 (   3)
................................................................................
.............................. CYCLE   41 ......................................
................................................................................
   1    -50.7337849 -0.507338E+02  0.145E-01    8.77       0.0  T
   2    -50.7337956 -0.106981E-04  0.108E-01    8.75       1.0  T
   3    -50.7338022 -0.651957E-05  0.202E-02    8.71       1.0  T
   4    -50.7338036 -0.145797E-05  0.745E-03    8.71       2.6  T
   5    -50.7338037 -0.772919E-07  0.233E-03    8.71       8.4  T
   6    -50.7338037 -0.951106E-08  0.142E-03    8.71      13.8  T
speedup  1.00
cpu  time for SCC    0.01 s
wall time for SCC    0.01 s
speedup  1.03
cpu  time for grad    0.01 s
wall time for grad    0.01 s
 E :    -50.45119117  G :  0.017048    pred/act E change: -0.470D-03 -0.581D-03
Maxdispl :   0.2073   ||displ|| :   0.4262   Lambda : -0.187D-02
Largest |displ|/coords:  0.2073 (   2)  0.1845 (   3)  0.1547 (   1)
................................................................................
.............................. CYCLE   42 ......................................
................................................................................
   1    -50.7300379 -0.507300E+02  0.269E-01    8.64       0.0  T
   2    -50.7301501 -0.112272E-03  0.196E-01    8.68       1.0  T
   3    -50.7302013 -0.511124E-04  0.552E-02    8.76       1.0  T
   4    -50.7302118 -0.105596E-04  0.145E-02    8.76       1.4  T
   5    -50.7302122 -0.407684E-06  0.534E-03    8.75       3.7  T
   6    -50.7302123 -0.520703E-07  0.339E-03    8.75       5.8  T
   7    -50.7302123 -0.175607E-07  0.852E-04    8.75      23.0  T
   8    -50.7302123 -0.209167E-08  0.214E-04    8.75      91.8  T
speedup  1.03
cpu  time for SCC    0.01 s
wall time for SCC    0.01 s
speedup  1.03
cpu  time for grad    0.02 s
wall time for grad    0.02 s
 E :    -50.45088189  G :  0.024477    pred/act E change: -0.527D-03  0.309D-03
Maxdispl :   0.1552   ||displ|| :   0.2902   Lambda : -0.171D-02
Largest |displ|/coords:  0.1552 (   2)  0.1064 (   1)  0.0770 (  13)
................................................................................
.............................. CYCLE   43 ......................................
................................................................................
   1    -50.7369568 -0.507370E+02  0.215E-01    8.80       0.0  T
   2    -50.7370737 -0.116955E-03  0.158E-01    8.75       1.0  T
   3    -50.7371341 -0.604133E-04  0.580E-02    8.64       1.0  T
   4    -50.7371427 -0.860919E-05  0.176E-02    8.64       1.1  T
   5    -50.7371434 -0.721907E-06  0.672E-03    8.64       2.9  T
   6    -50.7371435 -0.488411E-07  0.345E-03    8.64       5.7  T
   7    -50.7371435 -0.206906E-07  0.723E-04    8.64      27.1  T
speedup  1.03
cpu  time for SCC    0.01 s
wall time for SCC    0.01 s
speedup  0.96
cpu  time for grad    0.01 s
wall time for grad    0.02 s
 E :    -50.45198157  G :  0.010460    pred/act E change: -0.111D-02 -0.110D-02
Maxdispl :   0.1293   ||displ|| :   0.2336   Lambda : -0.369D-03
Largest |displ|/coords:  0.1293 (   2)  0.0925 (   1)  0.0642 (  11)
................................................................................
.............................. CYCLE   44 ......................................
................................................................................
   1    -50.7396043 -0.507396E+02  0.148E-01    8.64       0.0  T
   2    -50.7396394 -0.351013E-04  0.111E-01    8.60       1.0  T
   3    -50.7396588 -0.193762E-04  0.353E-02    8.53       1.0  T
   4    -50.7396626 -0.380488E-05  0.116E-02    8.53       1.7  T
   5    -50.7396629 -0.293976E-06  0.424E-03    8.53       4.6  T
   6    -50.7396629 -0.243037E-07  0.220E-03    8.53       8.9  T
   7    -50.7396629 -0.908474E-08  0.495E-04    8.53      39.6  T
speedup  1.03
cpu  time for SCC    0.01 s
wall time for SCC    0.01 s
speedup  0.97
cpu  time for grad    0.01 s
wall time for grad    0.02 s
 E :    -50.45212599  G :  0.009223    pred/act E change: -0.927D-03 -0.144D-03
Maxdispl :   0.0836   ||displ|| :   0.1573   Lambda : -0.278D-03
Largest |displ|/coords:  0.0836 (   2)  0.0777 (   3)  0.0659 (   1)
................................................................................
.............................. CYCLE   45 ......................................
................................................................................
   1    -50.7399023 -0.507399E+02  0.670E-02    8.53       0.0  T
   2    -50.7399048 -0.246095E-05  0.497E-02    8.54       1.0  T
   3    -50.7399063 -0.146317E-05  0.969E-03    8.55       2.0  T
   4    -50.7399066 -0.309582E-06  0.326E-03    8.55       6.0  T
   5    -50.7399066 -0.166331E-07  0.102E-03    8.55      19.2  T
   6    -50.7399066 -0.142241E-08  0.609E-04    8.55      32.2  T
speedup  0.98
cpu  time for SCC    0.01 s
wall time for SCC    0.01 s
speedup  0.95
cpu  time for grad    0.01 s
wall time for grad    0.01 s
 E :    -50.45228763  G :  0.006122    pred/act E change: -0.195D-03 -0.162D-03
Maxdispl :   0.0684   ||displ|| :   0.1598   Lambda : -0.218D-03
Largest |displ|/coords:  0.0684 (   3)  0.0505 (   1)  0.0497 (  11)
................................................................................
.............................. CYCLE   46 ......................................
................................................................................
   1    -50.7394049 -0.507394E+02  0.916E-02    8.49       0.0  T
   2    -50.7394076 -0.273368E-05  0.684E-02    8.50       1.0  T
   3    -50.7394094 -0.175168E-05  0.122E-02    8.50       1.6  T
   4    -50.7394098 -0.395755E-06  0.375E-03    8.49       5.2  T
   5    -50.7394098 -0.177288E-07  0.934E-04    8.49      21.0  T
   6    -50.7394098 -0.108663E-08  0.608E-04    8.49      32.2  T
speedup  0.97
cpu  time for SCC    0.01 s
wall time for SCC    0.01 s
speedup  0.95
cpu  time for grad    0.01 s
wall time for grad    0.01 s
 E :    -50.45243752  G :  0.005447    pred/act E change: -0.143D-03 -0.150D-03
Maxdispl :   0.1098   ||displ|| :   0.2371   Lambda : -0.209D-03
Largest |displ|/coords:  0.1098 (   1)  0.0921 (   3)  0.0874 (  11)
................................................................................
.............................. CYCLE   47 ......................................
................................................................................
   1    -50.7400468 -0.507400E+02  0.132E-01    8.44       0.0  T
   2    -50.7400527 -0.591413E-05  0.989E-02    8.43       1.0  T
   3    -50.7400574 -0.474038E-05  0.184E-02    8.40       1.1  T
   4    -50.7400582 -0.796354E-06  0.605E-03    8.41       3.2  T
   5    -50.7400583 -0.503917E-07  0.180E-03    8.41      10.9  T
   6    -50.7400583 -0.482233E-08  0.115E-03    8.41      17.0  T
speedup  0.97
cpu  time for SCC    0.01 s
wall time for SCC    0.01 s
speedup  1.01
cpu  time for grad    0.01 s
wall time for grad    0.01 s
 E :    -50.45256960  G :  0.006495    pred/act E change: -0.112D-03 -0.132D-03
Maxdispl :   0.0896   ||displ|| :   0.2208   Lambda : -0.171D-03
Largest |displ|/coords:  0.0896 (   1)  0.0840 (   3)  0.0721 (   5)
................................................................................
.............................. CYCLE   48 ......................................
................................................................................
   1    -50.7385224 -0.507385E+02  0.127E-01    8.36       0.0  T
   2    -50.7385258 -0.340631E-05  0.948E-02    8.35       1.0  T
   3    -50.7385289 -0.316815E-05  0.142E-02    8.35       1.4  T
   4    -50.7385293 -0.365221E-06  0.419E-03    8.35       4.7  T
   5    -50.7385293 -0.280582E-07  0.142E-03    8.35      13.8  T
   6    -50.7385293 -0.295081E-08  0.891E-04    8.35      22.0  T
speedup  0.98
cpu  time for SCC    0.01 s
wall time for SCC    0.01 s
speedup  1.03
cpu  time for grad    0.01 s
wall time for grad    0.01 s
 E :    -50.45265409  G :  0.007118    pred/act E change: -0.111D-03 -0.845D-04
Maxdispl :   0.0809   ||displ|| :   0.1119   Lambda : -0.125D-03
Largest |displ|/coords:  0.0809 (   1)  0.0385 (   5)  0.0251 (  12)
................................................................................
.............................. CYCLE   49 ......................................
................................................................................
   1    -50.7387136 -0.507387E+02  0.700E-02    8.36       0.0  T
   2    -50.7387145 -0.876242E-06  0.527E-02    8.36       1.0  T
   3    -50.7387151 -0.614322E-06  0.548E-03    8.36       3.6  T
   4    -50.7387153 -0.139545E-06  0.219E-03    8.36       9.0  T
   5    -50.7387153 -0.636321E-08  0.632E-04    8.36      31.0  T
speedup  0.68
cpu  time for SCC    0.00 s
wall time for SCC    0.01 s
speedup  0.84
cpu  time for grad    0.01 s
wall time for grad    0.01 s
 E :    -50.45273459  G :  0.005722    pred/act E change: -0.898D-04 -0.805D-04
Maxdispl :   0.1056   ||displ|| :   0.1689   Lambda : -0.114D-03
Largest |displ|/coords:  0.1056 (   1)  0.0569 (   6)  0.0555 (   5)
................................................................................
.............................. CYCLE   50 ......................................
................................................................................
   1    -50.7389815 -0.507390E+02  0.873E-02    8.42       0.0  T
   2    -50.7389839 -0.244147E-05  0.654E-02    8.42       1.0  T
   3    -50.7389851 -0.119062E-05  0.856E-03    8.42       2.3  T
   4    -50.7389856 -0.422167E-06  0.309E-03    8.42       6.3  T
   5    -50.7389856 -0.191006E-07  0.952E-04    8.42      20.6  T
   6    -50.7389856 -0.926285E-09  0.501E-04    8.42      39.1  T
speedup  1.00
cpu  time for SCC    0.01 s
wall time for SCC    0.01 s
speedup  1.01
cpu  time for grad    0.01 s
wall time for grad    0.01 s
 E :    -50.45278425  G :  0.004264    pred/act E change: -0.635D-04 -0.497D-04
Maxdispl :   0.0757   ||displ|| :   0.1105   Lambda : -0.559D-04
Largest |displ|/coords:  0.0757 (   1)  0.0400 (  15)  0.0362 (  11)
................................................................................
.............................. CYCLE   51 ......................................
................................................................................
   1    -50.7388886 -0.507389E+02  0.711E-02    8.43       0.0  T
   2    -50.7388895 -0.903751E-06  0.537E-02    8.43       1.0  T
   3    -50.7388902 -0.721079E-06  0.596E-03    8.42       3.3  T
   4    -50.7388904 -0.132262E-06  0.221E-03    8.42       8.9  T
   5    -50.7388904 -0.556515E-08  0.617E-04    8.42      31.8  T
speedup  1.00
cpu  time for SCC    0.00 s
wall time for SCC    0.01 s
speedup  0.96
cpu  time for grad    0.01 s
wall time for grad    0.01 s
 E :    -50.45282142  G :  0.003442    pred/act E change: -0.588D-04 -0.372D-04
Maxdispl :   0.0467   ||displ|| :   0.0872   Lambda : -0.491D-04
Largest |displ|/coords:  0.0467 (   1)  0.0327 (  12)  0.0299 (  15)
................................................................................
.............................. CYCLE   52 ......................................
................................................................................
   1    -50.7395783 -0.507396E+02  0.621E-02    8.44       0.0  T
   2    -50.7395792 -0.837932E-06  0.463E-02    8.44       1.0  T
   3    -50.7395798 -0.614467E-06  0.718E-03    8.44       2.7  T
   4    -50.7395799 -0.108423E-06  0.281E-03    8.44       7.0  T
   5    -50.7395799 -0.637345E-08  0.548E-04    8.44      35.8  T
   6    -50.7395799 -0.406352E-09  0.370E-04    8.44      53.0  T
speedup  0.94
cpu  time for SCC    0.01 s
wall time for SCC    0.01 s
speedup  0.97
cpu  time for grad    0.01 s
wall time for grad    0.02 s
 E :    -50.45285009  G :  0.003404    pred/act E change: -0.283D-04 -0.287D-04
Maxdispl :   0.1180   ||displ|| :   0.1821   Lambda : -0.460D-04
Largest |displ|/coords:  0.1180 (   1)  0.0590 (  11)  0.0584 (  15)

generating ANC from model Hessian ...
 Shifting diagonal of input Hessian by   5.130152292013020E-003
 Lowest  eigenvalues of input Hessian
    0.005000   -0.000000   -0.000000   -0.000000    0.000000    0.000000
    0.000000    0.005313    0.005711    0.005935    0.006181    0.006493
    0.006822    0.007043    0.007467    0.008259    0.008975    0.010493
 Highest eigenvalues
    1.390073    1.395758    1.409471    2.742048    3.188471    3.796439
 
cpu  time for ANC gen    0.03 s
wall time for ANC gen    0.03 s
................................................................................
.............................. CYCLE   53 ......................................
................................................................................
   1    -50.7382641 -0.507383E+02  0.102E-01    8.43       0.0  T
   2    -50.7382661 -0.200872E-05  0.766E-02    8.43       1.0  T
   3    -50.7382678 -0.169903E-05  0.933E-03    8.43       2.1  T
   4    -50.7382681 -0.274751E-06  0.331E-03    8.43       5.9  T
   5    -50.7382681 -0.131737E-07  0.974E-04    8.43      20.1  T
   6    -50.7382681 -0.129306E-08  0.604E-04    8.43      32.5  T
speedup  1.03
cpu  time for SCC    0.01 s
wall time for SCC    0.01 s
speedup  1.00
cpu  time for grad    0.01 s
wall time for grad    0.01 s
 E :    -50.45286118  G :  0.006106    pred/act E change:  0.000D+00 -0.111D-04
Maxdispl :   0.0249   ||displ|| :   0.0492   Lambda : -0.545D-04
Largest |displ|/coords:  0.0249 (   6)  0.0213 (   7)  0.0194 (   4)
................................................................................
.............................. CYCLE   54 ......................................
................................................................................
   1    -50.7394044 -0.507394E+02  0.278E-02    8.44       0.0  T
   2    -50.7394046 -0.244132E-06  0.207E-02    8.44       1.0  T
   3    -50.7394048 -0.152067E-06  0.290E-03    8.45       6.8  T
   4    -50.7394048 -0.326850E-07  0.116E-03    8.45      16.9  T
speedup  1.00
cpu  time for SCC    0.00 s
wall time for SCC    0.00 s
speedup  1.04
cpu  time for grad    0.01 s
wall time for grad    0.01 s
 E :    -50.45290021  G :  0.002288    pred/act E change:  0.000D+00 -0.390D-04
Maxdispl :   0.0535   ||displ|| :   0.0815   Lambda : -0.348D-04
Largest |displ|/coords:  0.0535 (   6)  0.0352 (   7)  0.0214 (   1)
................................................................................
.............................. CYCLE   55 ......................................
................................................................................
   1    -50.7400570 -0.507401E+02  0.444E-02    8.45       0.0  T
   2    -50.7400574 -0.336243E-06  0.332E-02    8.45       1.0  T
   3    -50.7400576 -0.188790E-06  0.345E-03    8.46       5.7  T
   4    -50.7400576 -0.548316E-07  0.139E-03    8.46      14.1  T
   5    -50.7400576 -0.314035E-08  0.383E-04    8.46      51.2  T
   6    -50.7400576 -0.183654E-09  0.222E-04    8.46      88.4  T
speedup  0.98
cpu  time for SCC    0.01 s
wall time for SCC    0.01 s
speedup  0.98
cpu  time for grad    0.01 s
wall time for grad    0.02 s
 E :    -50.45292549  G :  0.001987    pred/act E change: -0.273D-04 -0.253D-04
Maxdispl :   0.0846   ||displ|| :   0.1383   Lambda : -0.362D-04
Largest |displ|/coords:  0.0846 (   6)  0.0747 (   7)  0.0350 (   1)
................................................................................
.............................. CYCLE   56 ......................................
................................................................................
   1    -50.7400029 -0.507400E+02  0.770E-02    8.45       0.0  T
   2    -50.7400036 -0.699424E-06  0.576E-02    8.46       1.0  T
   3    -50.7400041 -0.487381E-06  0.489E-03    8.46       4.0  T
   4    -50.7400042 -0.110373E-06  0.209E-03    8.46       9.4  T
   5    -50.7400042 -0.534013E-08  0.639E-04    8.46      30.7  T
   6    -50.7400042 -0.574033E-09  0.359E-04    8.46      54.6  T
speedup  1.07
cpu  time for SCC    0.01 s
wall time for SCC    0.01 s
speedup  1.01
cpu  time for grad    0.01 s
wall time for grad    0.01 s
 E :    -50.45295103  G :  0.003721    pred/act E change: -0.175D-04 -0.255D-04
Maxdispl :   0.0972   ||displ|| :   0.1526   Lambda : -0.343D-04
Largest |displ|/coords:  0.0972 (   6)  0.0767 (   7)  0.0376 (   1)
................................................................................
.............................. CYCLE   57 ......................................
................................................................................
   1    -50.7394391 -0.507394E+02  0.882E-02    8.45       0.0  T
   2    -50.7394400 -0.902397E-06  0.662E-02    8.45       1.0  T
   3    -50.7394408 -0.834900E-06  0.546E-03    8.46       3.6  T
   4    -50.7394409 -0.104454E-06  0.251E-03    8.46       7.8  T
   5    -50.7394409 -0.605033E-08  0.716E-04    8.46      27.4  T
   6    -50.7394409 -0.695593E-09  0.412E-04    8.46      47.6  T
speedup  0.97
cpu  time for SCC    0.01 s
wall time for SCC    0.01 s
speedup  0.97
cpu  time for grad    0.01 s
wall time for grad    0.02 s
 E :    -50.45297123  G :  0.004368    pred/act E change: -0.185D-04 -0.202D-04
Maxdispl :   0.0421   ||displ|| :   0.0786   Lambda : -0.353D-04
Largest |displ|/coords:  0.0421 (   7)  0.0318 (   6)  0.0233 (   4)
................................................................................
.............................. CYCLE   58 ......................................
................................................................................
   1    -50.7397678 -0.507398E+02  0.487E-02    8.46       0.0  T
   2    -50.7397683 -0.506817E-06  0.365E-02    8.46       1.0  T
   3    -50.7397686 -0.351625E-06  0.424E-03    8.45       4.6  T
   4    -50.7397687 -0.820745E-07  0.130E-03    8.45      15.1  T
   5    -50.7397687 -0.210958E-08  0.509E-04    8.45      38.5  T
speedup  0.91
cpu  time for SCC    0.01 s
wall time for SCC    0.01 s
speedup  0.99
cpu  time for grad    0.01 s
wall time for grad    0.01 s
 E :    -50.45299258  G :  0.002429    pred/act E change: -0.175D-04 -0.213D-04
Maxdispl :   0.0288   ||displ|| :   0.0545   Lambda : -0.111D-04
Largest |displ|/coords:  0.0288 (   7)  0.0273 (   6)  0.0202 (   1)
................................................................................
.............................. CYCLE   59 ......................................
................................................................................
   1    -50.7400270 -0.507400E+02  0.297E-02    8.45       0.0  T
   2    -50.7400272 -0.213594E-06  0.222E-02    8.45       1.0  T
   3    -50.7400273 -0.141593E-06  0.290E-03    8.44       6.8  T
   4    -50.7400274 -0.338868E-07  0.865E-04    8.45      22.7  T
   5    -50.7400274 -0.965450E-09  0.323E-04    8.45      60.8  T
speedup  1.00
cpu  time for SCC    0.00 s
wall time for SCC    0.00 s
speedup  1.04
cpu  time for grad    0.01 s
wall time for grad    0.01 s
 E :    -50.45300042  G :  0.001536    pred/act E change: -0.177D-04 -0.784D-05
Maxdispl :   0.0452   ||displ|| :   0.0819   Lambda : -0.915D-05
Largest |displ|/coords:  0.0452 (   7)  0.0450 (   6)  0.0327 (   1)
................................................................................
.............................. CYCLE   60 ......................................
................................................................................
   1    -50.7400665 -0.507401E+02  0.437E-02    8.44       0.0  T
   2    -50.7400667 -0.273491E-06  0.325E-02    8.44       1.0  T
   3    -50.7400670 -0.227116E-06  0.366E-03    8.44       5.4  T
   4    -50.7400670 -0.331881E-07  0.112E-03    8.44      17.6  T
   5    -50.7400670 -0.186778E-08  0.411E-04    8.44      47.7  T
   6    -50.7400670 -0.293525E-09  0.249E-04    8.44      78.7  T
speedup  1.02
cpu  time for SCC    0.01 s
wall time for SCC    0.01 s
speedup  0.99
cpu  time for grad    0.01 s
wall time for grad    0.02 s
 E :    -50.45300429  G :  0.001258    pred/act E change: -0.559D-05 -0.387D-05
Maxdispl :   0.0072   ||displ|| :   0.0158   Lambda : -0.443D-05
Largest |displ|/coords:  0.0072 (  13)  0.0062 (   7)  0.0056 (  12)
................................................................................
.............................. CYCLE   61 ......................................
................................................................................
   1    -50.7405920 -0.507406E+02  0.104E-02    8.45       0.0  T
   2    -50.7405920 -0.402981E-07  0.772E-03    8.45       2.5  T
   3    -50.7405921 -0.130181E-07  0.121E-03    8.44      16.2  T
   4    -50.7405921 -0.741631E-08  0.314E-04    8.45      62.5  T
   5    -50.7405921 -0.991562E-10  0.905E-05    8.45     216.8  T
speedup  0.96
cpu  time for SCC    0.00 s
wall time for SCC    0.01 s
speedup  1.03
cpu  time for grad    0.01 s
wall time for grad    0.01 s
 E :    -50.45300599  G :  0.000965    pred/act E change: -0.460D-05 -0.170D-05
Maxdispl :   0.0142   ||displ|| :   0.0230   Lambda : -0.211D-05
Largest |displ|/coords:  0.0142 (   6)  0.0098 (   7)  0.0093 (   1)
................................................................................
.............................. CYCLE   62 ......................................
................................................................................
   1    -50.7403860 -0.507404E+02  0.138E-02    8.45       0.0  T
   2    -50.7403860 -0.339797E-07  0.103E-02    8.45       1.9  T
   3    -50.7403861 -0.199430E-07  0.116E-03    8.45      16.9  T
   4    -50.7403861 -0.589062E-08  0.372E-04    8.45      52.8  T
   5    -50.7403861 -0.119314E-09  0.111E-04    8.45     177.1  T
speedup  0.94
cpu  time for SCC    0.01 s
wall time for SCC    0.01 s
speedup  1.03
cpu  time for grad    0.01 s
wall time for grad    0.01 s
 E :    -50.45300720  G :  0.000530    pred/act E change: -0.222D-05 -0.121D-05
Maxdispl :   0.0092   ||displ|| :   0.0149   Lambda : -0.136D-05
Largest |displ|/coords:  0.0092 (   6)  0.0063 (   1)  0.0049 (   4)
................................................................................
.............................. CYCLE   63 ......................................
................................................................................
   1    -50.7403805 -0.507404E+02  0.791E-03    8.45       0.0  T
   2    -50.7403805 -0.950515E-08  0.586E-03    8.45       3.3  T
   3    -50.7403805 -0.675740E-08  0.703E-04    8.45      27.9  T
   4    -50.7403805 -0.129803E-08  0.198E-04    8.45      99.1  T
speedup  1.00
cpu  time for SCC    0.00 s
wall time for SCC    0.00 s
speedup  1.00
cpu  time for grad    0.01 s
wall time for grad    0.01 s
 E :    -50.45300807  G :  0.000422    pred/act E change: -0.106D-05 -0.873D-06
Maxdispl :   0.0100   ||displ|| :   0.0167   Lambda : -0.787D-06
Largest |displ|/coords:  0.0100 (   6)  0.0070 (   1)  0.0059 (   7)
................................................................................
.............................. CYCLE   64 ......................................
................................................................................
   1    -50.7404352 -0.507404E+02  0.865E-03    8.45       0.0  T
   2    -50.7404352 -0.741675E-08  0.640E-03    8.45       3.1  T
   3    -50.7404352 -0.559383E-08  0.711E-04    8.45      27.6  T
   4    -50.7404352 -0.808328E-09  0.200E-04    8.45      98.0  T
speedup  1.03
cpu  time for SCC    0.00 s
wall time for SCC    0.00 s
speedup  1.01
cpu  time for grad    0.01 s
wall time for grad    0.01 s
 E :    -50.45300862  G :  0.000380    pred/act E change: -0.679D-06 -0.557D-06
Maxdispl :   0.0105   ||displ|| :   0.0161   Lambda : -0.660D-06
Largest |displ|/coords:  0.0105 (   6)  0.0059 (   1)  0.0053 (   8)
................................................................................
.............................. CYCLE   65 ......................................
................................................................................
   1    -50.7405073 -0.507405E+02  0.928E-03    8.46       0.0  T
   2    -50.7405073 -0.920432E-08  0.690E-03    8.45       2.8  T
   3    -50.7405073 -0.763274E-08  0.730E-04    8.45      26.9  T
   4    -50.7405073 -0.105595E-08  0.211E-04    8.45      92.8  T
speedup  1.03
cpu  time for SCC    0.00 s
wall time for SCC    0.00 s
speedup  1.01
cpu  time for grad    0.01 s
wall time for grad    0.01 s
 E :    -50.45300908  G :  0.000329    pred/act E change: -0.394D-06 -0.455D-06
Maxdispl :   0.0075   ||displ|| :   0.0130   Lambda : -0.448D-06
Largest |displ|/coords:  0.0075 (   6)  0.0052 (   8)  0.0043 (   7)
................................................................................
.............................. CYCLE   66 ......................................
................................................................................
   1    -50.7405159 -0.507405E+02  0.785E-03    8.45       0.0  T
   2    -50.7405159 -0.608333E-08  0.584E-03    8.45       3.4  T
   3    -50.7405159 -0.441928E-08  0.577E-04    8.45      34.0  T
   4    -50.7405159 -0.770974E-09  0.153E-04    8.45     128.4  T
speedup  1.03
cpu  time for SCC    0.00 s
wall time for SCC    0.00 s
speedup  1.02
cpu  time for grad    0.01 s
wall time for grad    0.01 s
 E :    -50.45300939  G :  0.000240    pred/act E change: -0.330D-06 -0.307D-06
Maxdispl :   0.0035   ||displ|| :   0.0079   Lambda : -0.252D-06
Largest |displ|/coords:  0.0035 (   6)  0.0035 (   8)  0.0032 (   2)
................................................................................
.............................. CYCLE   67 ......................................
................................................................................
   1    -50.7405030 -0.507405E+02  0.542E-03    8.45       0.0  T
   2    -50.7405030 -0.333896E-08  0.405E-03    8.45       4.8  T
   3    -50.7405030 -0.284416E-08  0.406E-04    8.45      48.3  T
   4    -50.7405030 -0.389640E-09  0.111E-04    8.45     175.9  T
speedup  1.05
cpu  time for SCC    0.00 s
wall time for SCC    0.00 s
speedup  1.01
cpu  time for grad    0.01 s
wall time for grad    0.01 s
 E :    -50.45300956  G :  0.000152    pred/act E change: -0.224D-06 -0.172D-06
Maxdispl :   0.0030   ||displ|| :   0.0057   Lambda : -0.141D-06
Largest |displ|/coords:  0.0030 (   2)  0.0025 (   9)  0.0021 (   8)
................................................................................
.............................. CYCLE   68 ......................................
................................................................................
   1    -50.7404819 -0.507405E+02  0.374E-03    8.45       0.0  T
   2    -50.7404819 -0.208018E-08  0.279E-03    8.45       7.0  T
   3    -50.7404819 -0.181446E-08  0.343E-04    8.45      57.2  T
   4    -50.7404819 -0.220972E-09  0.102E-04    8.45     192.7  T
speedup  1.03
cpu  time for SCC    0.00 s
wall time for SCC    0.00 s
speedup  1.02
cpu  time for grad    0.01 s
wall time for grad    0.01 s
 E :    -50.45300966  G :  0.000127    pred/act E change: -0.126D-06 -0.104D-06
Maxdispl :   0.0033   ||displ|| :   0.0063   Lambda : -0.123D-06
Largest |displ|/coords:  0.0033 (   2)  0.0027 (   3)  0.0025 (   9)
................................................................................
.............................. CYCLE   69 ......................................
................................................................................
   1    -50.7404623 -0.507405E+02  0.376E-03    8.45       0.0  T
   2    -50.7404623 -0.221081E-08  0.279E-03    8.45       7.0  T
   3    -50.7404623 -0.200311E-08  0.360E-04    8.45      54.5  T
   4    -50.7404623 -0.203798E-09  0.113E-04    8.45     173.9  T
speedup  1.00
cpu  time for SCC    0.00 s
wall time for SCC    0.00 s
speedup  1.00
cpu  time for grad    0.01 s
wall time for grad    0.01 s
 E :    -50.45300975  G :  0.000136    pred/act E change: -0.706D-07 -0.896D-07
Maxdispl :   0.0030   ||displ|| :   0.0061   Lambda : -0.930D-07
Largest |displ|/coords:  0.0030 (   2)  0.0024 (   1)  0.0023 (   3)

   *** GEOMETRY OPTIMIZATION CONVERGED AFTER 69 ITERATIONS ***

------------------------------------------------------------------------
 total energy gain (kcal):     -0.0932
------------------------------------------------------------------------
================
 final structure:
================
$coord
       -0.47808892301915       -0.17860573482132       -3.92564978855976      S 
       -1.37345058146746       -0.22375889331035       -6.44347030480276      O 
       -2.72272061295633       -0.06069551950612       -2.06058866576963      O 
        0.87188537277430       -2.67006676317206       -3.28656560943878      O 
        1.22634932335099        1.88551547092514       -3.29537725411868      O 
        3.05846065528993       -0.18227061527519        3.14686184908376      O 
        4.17659869126867        0.31604390720207        4.48036183402210      H 
        0.22762253770591        6.08763022508856       -0.66873781023646      O 
       -0.79678034375005        7.18953459293986       -1.67650475484093      H 
        0.84282364708538        4.76815250878235       -1.80437482026134      H 
        5.29712938661301       -0.16610349651778       -1.26998241703438      O 
        3.99401599443538        0.79719670700488       -2.16791680757493      H 
        4.05671731607833       -0.10551572249829        1.55404781515763      H 
        5.26736334502989       -1.81978488643452       -2.01928027192381      H 
       -1.38726612722587        2.12494742584027        1.99808589208056      O 
       -2.18845726068565        0.79781567113921       -0.40713493826082      H 
        0.20218147627255        1.36508813572436        2.55898299191916      H 
       -0.92514226529005        3.79937187863464        1.34571156760252      H 
        0.19330286640146       -4.03659804836759        1.19417221049663      O 
        1.24300548955577       -2.92131631707485        2.20652317526095      H 
       -1.58689870393317       -3.68499172012106        1.70244702064922      H 
        0.55326110706760       -3.28033129055345       -1.44067827781015      H 
       -4.49403389628265       -2.69297699553110        2.52022918514205      N 
       -5.34365312406288       -2.44866233729726        0.82253978908471      H 
       -4.25321376079895       -0.95529674834953        3.28888029175349      H 
       -5.66101160945616       -3.70432141555509        3.64741809838259      H 
$end
 
 Bond Distances (Angstroems)
 ---------------------------
S1-O2=1.4143         S1-O3=1.5456         S1-O4=1.5372         S1-O5=1.4553         O2-S1=1.4143         O3-S1=1.5456         
O3-H16=1.0256        O4-S1=1.5372         O4-H22=1.0425        O5-S1=1.4553         O6-H7=0.9579         O6-H13=0.9956        
H7-O6=0.9579         O8-H9=0.9583         O8-H10=0.9771        H9-O8=0.9583         H10-O8=0.9771        O11-H12=0.9804       
O11-H14=0.9609       H12-O11=0.9804       H13-O6=0.9956        H14-O11=0.9609       O15-H17=0.9784       O15-H18=0.9819       
H16-O3=1.0256        H17-O15=0.9784       H18-O15=0.9819       O19-H20=0.9715       O19-H21=0.9972       H20-O19=0.9715       
H21-O19=0.9972       H22-O4=1.0425        N23-H24=1.0129       N23-H25=1.0135       N23-H26=1.0117       H24-N23=1.0129       
H25-N23=1.0135       H26-N23=1.0117       
 N  H  Rav=1.0127 sigma=0.0008  Rmin=1.0117  Rmax=1.0135     3
 O  H  Rav=0.9856 sigma=0.0251  Rmin=0.9579  Rmax=1.0425    12
 S  O  Rav=1.4881 sigma=0.0553  Rmin=1.4143  Rmax=1.5456     4
 
 selected bond angles (degree)
 --------------------
O3-S1-O2=110.17                O4-S1-O2=110.39                O4-S1-O3=104.55                O5-S1-O2=115.86                
O5-S1-O3=107.44                O5-S1-O4=107.78                H16-O3-S1=110.54               H22-O4-S1=113.37               
H13-O6-H7=106.54               H10-O8-H9=106.32               
 
 selected dihedral angles (degree)
 ---------------------------------
H16-O3-S1-O2=207.09           H16-O3-S1-O4= 88.48           H16-O3-S1-O5=334.14           H22-O4-S1-O2=217.24           
H22-O4-S1-O3=335.70           H22-O4-S1-O5= 89.80           
 
 CMA Distance (Angstroems)
 ---------------------------
R(CMA):  2.6585

========================================================================
 FINAL SINGLEPOINT CALCULATION ON OPTIMIZED GEOMETRY
========================================================================

 Ncao       : 65
 Nao        : 64
 Nshell     : 38
 Nel        : 80
 T(el)      :   300.0
 intcut     :    25.0
 scfconv/Eh :  0.100E-05
   qconv/e  :  0.100E-03
 intneglect :  0.100E-07
 broydamp   :      0.250
 iter      E             dE          RMSdq      gap      omega  full diag
   1    -50.7404623 -0.507405E+02  0.453E-05    8.45       0.0  T
   2    -50.7404623 -0.118661E-11  0.291E-05    8.45     673.3  T
   3    -50.7404623 -0.746070E-12  0.424E-06    8.45    4629.9  T
speedup  1.00
cpu  time for SCC    0.00 s
wall time for SCC    0.00 s

   *** convergence criteria satisfied after 3 iterations ***

          eigenvalues
 #    :          28         29         30         31         32         33         34         35
 occ. :        2.000      2.000      2.000      2.000      2.000      2.000      2.000      2.000
 eps  :       -13.773    -13.391    -13.038    -12.753    -12.673    -12.599    -12.523    -12.355
 #    :          36         37         38         39         40         41         42         43
 occ. :        2.000      2.000      2.000      2.000      2.000      0.000      0.000      0.000
 eps  :       -12.257    -12.192    -12.170    -12.062    -11.381     -2.931     -0.979     -0.540
 #    :          44         45         46         47         48         49         50         51
 occ. :        0.000      0.000      0.000      0.000      0.000      0.000      0.000      0.000
 eps  :         0.120      0.852      1.064      1.537      2.994      3.539      4.215      5.396


   #   Z            q   n(s)   n(p)   n(d)      C6AA      α(0)
   1  16 S      1.689  1.573  1.787  0.951    89.024    15.880
   2   8 O     -0.642  1.752  4.890  0.000    27.184     6.990
   3   8 O     -0.634  1.760  4.874  0.000    26.001     6.883
   4   8 O     -0.638  1.760  4.878  0.000    26.088     6.895
   5   8 O     -0.738  1.765  4.974  0.000    29.775     7.316
   6   8 O     -0.635  1.748  4.886  0.000    26.038     6.887
   7   1 H      0.290  0.710  0.000  0.000     0.750     1.360
   8   8 O     -0.605  1.742  4.863  0.000    25.302     6.789
   9   1 H      0.287  0.713  0.000  0.000     0.763     1.372
  10   1 H      0.328  0.672  0.000  0.000     0.642     1.259
  11   8 O     -0.608  1.745  4.863  0.000    25.387     6.800
  12   1 H      0.327  0.673  0.000  0.000     0.644     1.261
  13   1 H      0.342  0.658  0.000  0.000     0.609     1.226
  14   1 H      0.300  0.700  0.000  0.000     0.721     1.333
  15   8 O     -0.632  1.763  4.869  0.000    25.950     6.876
  16   1 H      0.394  0.606  0.000  0.000     0.494     1.102
  17   1 H      0.333  0.667  0.000  0.000     0.630     1.247
  18   1 H      0.337  0.663  0.000  0.000     0.620     1.237
  19   8 O     -0.619  1.759  4.859  0.000    25.612     6.832
  20   1 H      0.329  0.671  0.000  0.000     0.641     1.258
  21   1 H      0.330  0.670  0.000  0.000     0.638     1.255
  22   1 H      0.397  0.603  0.000  0.000     0.486     1.093
  23   7 N     -0.443  1.363  4.080  0.000    31.622     8.351
  24   1 H      0.173  0.827  0.000  0.000     1.256     1.755
  25   1 H      0.180  0.820  0.000  0.000     1.212     1.724
  26   1 H      0.159  0.841  0.000  0.000     1.340     1.813

 Mol. C6AA /au·bohr⁶  :       5454.384941
 Mol. C8AA /au·bohr⁸  :     117808.648527
 Mol. α(0) /au        :        106.795258

 
 Wiberg/Mayer (AO) data. WBOs > 0.1 written file <wbo>
 largest (>0.05) Wiberg bond orders for each atom
           total WBO             WBO to atom ...
     1  S   4.874    O    2 1.514    O    5 1.297    O    4 1.018    O    3 0.999
     2  O   1.818    S    1 1.514    O    5 0.119    O    4 0.082    O    3 0.079
     3  O   1.957    S    1 0.999    H   16 0.663    O    5 0.087    O    2 0.079    O    4 0.068    O   15 0.051
     4  O   1.949    S    1 1.018    H   22 0.629    O    5 0.084    O    2 0.082    O    3 0.068    O   19 0.055
     5  O   1.731    S    1 1.297    O    2 0.119    O    3 0.087    O    4 0.084    H   12 0.058
     6  O   1.867    H    7 0.906    H   13 0.791    H   17 0.053
     7  H   0.916    O    6 0.906
     8  O   1.869    H    9 0.913    H   10 0.843    H   18 0.059
     9  H   0.918    O    8 0.913
    10  H   0.892    O    8 0.843
    11  O   1.898    H   14 0.903    H   12 0.832    H   13 0.090
    12  H   0.893    O   11 0.832    O    5 0.058
    13  H   0.883    O    6 0.791    O   11 0.090
    14  H   0.910    O   11 0.903
    15  O   1.943    H   17 0.833    H   18 0.824    H   16 0.162    O    3 0.051
    16  H   0.845    O    3 0.663    O   15 0.162
    17  H   0.889    O   15 0.833    O    6 0.053
    18  H   0.886    O   15 0.824    O    8 0.059
    19  O   1.970    H   20 0.851    H   21 0.789    H   22 0.193    O    4 0.055
    20  H   0.892    O   19 0.851
    21  H   0.891    O   19 0.789    N   23 0.099
    22  H   0.842    O    4 0.629    O   19 0.193
    23  N   3.049    H   26 0.971    H   24 0.965    H   25 0.961    H   21 0.099
    24  H   0.970    N   23 0.965
    25  H   0.967    N   23 0.961
    26  H   0.975    N   23 0.971
 MOs/occ written to file <molden.input>
 
molecular dipole:
                 x           y           z       tot (Debye)
 q only:       -0.269      -0.143       2.027
   full:       -0.468       0.111       1.987       5.196
molecular quadrupole (traceless):
                xx          xy          yy          xz          yz          zz
 q only:        7.176      -1.054       2.960      -2.832      -4.241     -10.136
  q+dip:        9.999      -1.160       0.349      -3.347      -5.228     -10.349
   full:        9.834      -1.339       0.331      -3.257      -5.149     -10.165

SCC energy    :     -50.7404623
rep           :       0.2871114
ES            :       0.2331715
AES           :      -0.0535314
AXC           :      -0.0068995
disp          :      -0.0193937
XB            :       0.0000000
fix           :       0.0000000
total E       :     -50.4530098
atomizationE  :       4.9833139     3127.08
(atE without considering molecular charge,
 total energy contains solvation terms)
H-L gap (eV)  :          8.4494
optimized geometry written to: xtbopt.xyz


------------------------------------------------------------------------
 * finished run on 2019/09/16 at 12:44:42.586     
------------------------------------------------------------------------
 total:
 * wall-time:     0 d,  0 h,  0 min,  1.910 sec
 *  cpu-time:     0 d,  0 h,  0 min,  1.831 sec
 * ratio c/w:     0.959 speedup
 SCF:
 * wall-time:     0 d,  0 h,  0 min,  0.219 sec
 *  cpu-time:     0 d,  0 h,  0 min,  0.157 sec
 * ratio c/w:     0.717 speedup
 ANC optimizer:
 * wall-time:     0 d,  0 h,  0 min,  1.662 sec
 *  cpu-time:     0 d,  0 h,  0 min,  1.649 sec
 * ratio c/w:     0.992 speedup

