      -----------------------------------------------------------      
     |                   =====================                   |     
     |                           x T B                           |     
     |                   =====================                   |     
     |                         S. Grimme                         |     
     |          Mulliken Center for Theoretical Chemistry        |     
     |                    University of Bonn                     |     
     |                 Version 6.0.1 (SAW181210)                 |     
      -----------------------------------------------------------      

   This program is distributed in the hope that it will be useful,
   but WITHOUT ANY WARRANTY; without even the implied warranty of
   MERCHANTABILITY or FITNESS FOR A PARTICULAR PURPOSE.
   
   FOR NON-COMMERCIAL, ACADEMIA USE ONLY.
   
   Cite this work as:
   S. Grimme, C. Bannwarth, P. Shushkov, J. Comput. Theory Chem., 2017,
   13, 1989-2009.
   C. Bannwarth, S. Ehlert and S. Grimme., ChemRxiv, 2018, preprint.
   http://doi.org/10.26434/chemrxiv.7246238.v1
   
   for sTDA-xTB:
   S. Grimme and C. Bannwarth, J. Chem. Phys., 2016, 145, 054103.
   
   in the mass-spec context:
   V. Asgeirsson, C. Bauer and S. Grimme, Chem. Sci., 2017, 8, 4879.
   
   if GBSA is used:
   P. Shushkov, F. März and S. Grimme, unpublished.
   
   for ANC optimizer:
   S. Grimme, unpublished.
   Rational Function algorithm used in ANCopt:
   F. Eckert, P. Pulay, H.-J. Werner, J. Comput. Chem., 1997, 18, 1473.
   
   with help from (in alphabetical order)
   C. Bannwarth, F. Bohle, G. Brandenburg, E. Caldeweyher, M. Checinski,
   S. Dohm, S. Ehlert, S. Ehrlich, F. März, H. Neugebauer, J. Pisarek,
   P. Pracht, P. Shushkov, and S. Spicher.
   
 * started run on 2019/09/16 at 11:47:30.768     
========================================================================
 # omp threads = 1
========================================================================
number of atoms            : 26
number of electrons        : 80
charge                     : 0
spin                       : .0
first test random number   : .4610

########################################################################
# WARNING! Please study the warnings concerning your input carefully
#  - XTBPATH is not set, using XTBHOME instead
#  - the use of '-opt' is discouraged, please use '--opt' next time
#  - the use of '-chrg' is discouraged, please use '--chrg' next time
#  - the use of '-uhf' is discouraged, please use '--uhf' next time
########################################################################

           ------------------------------------------------- 
          |                 G F N 2 - x T B                 |
          | Geometry, Frequencies, Noncovalent interactions |
          |            JCTC 2018 parametrisation            |
           ------------------------------------------------- 
      method parameters     
 k(s)        :  1.8500
 k(p)        :  2.2300
 k(d)        :  2.2300
 k(f)        :  2.0000
 kEN (H0ij)  : -2.0000
 D4 a1       :  0.5200
 D4 a2       :  5.0000
 D4 s6       :  1.0000
 D4 s8       :  2.7000
 D4 s9       :  5.0000
 alphaj      :  2.0000


            Z     q(EN)     CN     RAES       Cart. coordinates
     1  S   6.0    0.68    4.10    3.86    -0.37797     0.50838    -0.97099
     2  O   6.0   -0.31    1.22    1.80    -2.18108     0.24011     1.17493
     3  O   6.0   -0.31    1.23    1.80    -0.98117     2.84798    -2.41686
     4  O   6.0   -0.33    1.30    1.80     2.25007     0.67269     0.02626
     5  O   6.0   -0.32    1.21    1.80    -0.59971    -1.72727    -2.66829
     6  O   6.0   -0.35    1.57    1.80     2.26827     1.82090     7.21246
     7  H   1.0    0.17    0.94    1.42     2.27673     2.32821     9.00865
     8  O   6.0   -0.29    2.03    1.83     2.72180    -3.92849     2.28541
     9  H   1.0    0.17    1.05    1.44     2.93518    -2.41886     1.29036
    10  H   1.0    0.15    0.97    1.43     2.55559    -5.28125     1.07833
    11  O   6.0   -0.29    2.04    1.83    -2.91452    -3.25679    -6.79911
    12  H   1.0    0.15    0.97    1.43    -2.68604    -5.03305    -7.12672
    13  H   1.0    0.17    1.06    1.44    -1.97798    -2.92420    -5.27370
    14  O   6.0   -0.22    2.90    2.54     4.15073     3.53099     3.50140
    15  H   1.0    0.16    1.08    1.44     3.41513     2.66409     2.01909
    16  H   1.0    0.17    1.23    1.47     3.31643     3.02447     5.09431
    17  H   1.0    0.12    0.96    1.42     6.00535     3.31945     3.58599
    18  O   6.0   -0.22    2.92    2.59    -0.27031    -1.43480     5.36357
    19  H   1.0    0.16    1.22    1.47     0.64950    -0.11721     6.31633
    20  H   1.0    0.15    1.06    1.44    -1.40097    -0.70253     4.06920
    21  H   1.0    0.14    1.03    1.43     0.88710    -2.71051     4.63936
    22  N   5.0   -0.14    3.93    2.68    -4.00842     1.71554    -6.28199
    23  H   1.0    0.08    0.99    1.43    -3.67273     2.74060    -7.90094
    24  H   1.0    0.12    1.11    1.45    -2.82497     2.33261    -4.86669
    25  H   1.0    0.09    0.99    1.43    -5.85858     1.95891    -5.73234
    26  H   1.0    0.11    1.07    1.44    -3.67742    -0.16998    -6.62800

  Z AO/shell   Hii/eV     exponent
  1     Wed Apr 25 08:07:45 CEST 2018   EN: 2.200 GM2: 0.406  GM3: 0.0800  RAES: 1.40
     1s    -10.707211    1.230000
  7     Wed Apr 25 08:07:45 CEST 2018   EN: 3.040 GM2: 0.461  GM3:-0.0640  RAES: 1.90
     2s    -16.686243    2.339881
     2p    -12.523956    2.014332
  8     Wed Apr 25 08:07:45 CEST 2018   EN: 3.440 GM2: 0.452  GM3:-0.0517  RAES: 1.80
     2s    -20.229985    2.439742
     2p    -15.503117    2.137023
 16     Tue Apr 24 11:44:34 CEST 2018   EN: 2.580 GM2: 0.340  GM3:-0.0502  RAES: 3.10
     3s    -20.029654    1.981333
     3p    -11.377694    2.025643
     3d     -0.420282    1.702555
 no old-style atom pair restraining (fixing) potential

molecular fragmentation (1/2 indicates fragments):
11111222222222222222222222
# atoms in fragment 1/2:     5    21
 fragment masses (1/2) :       96.06      109.12
CMA distance (Bohr)    :   2.142
constraining FC (au)   :  0.0500
           ------------------------------------------------- 
          |        Self-Consistent Charge Iterations        |
           ------------------------------------------------- 

 Ncao       : 65
 Nao        : 64
 Nshell     : 38
 Nel        : 80
 T(el)      :   300.0
 intcut     :    25.0
 scfconv/Eh :  0.100E-05
   qconv/e  :  0.100E-03
 intneglect :  0.100E-07
 broydamp   :      0.250
 iter      E             dE          RMSdq      gap      omega  full diag
   1    -50.5476897 -0.505477E+02  0.703E+00   10.30       0.0  T
   2    -50.5906009 -0.429112E-01  0.505E+00    9.91       1.0  T
   3    -50.6280558 -0.374549E-01  0.111E+00    6.65       1.0  T
   4    -50.6319909 -0.393504E-02  0.579E-01    7.13       1.0  T
   5    -50.6329435 -0.952649E-03  0.223E-01    7.23       1.0  T
   6    -50.6331668 -0.223286E-03  0.117E-01    7.27       1.0  T
   7    -50.6332477 -0.809183E-04  0.428E-02    7.31       1.0  T
   8    -50.6332545 -0.672765E-05  0.281E-02    7.31       1.0  T
   9    -50.6332593 -0.481748E-05  0.792E-03    7.33       2.5  T
  10    -50.6332595 -0.243531E-06  0.189E-03    7.33      10.4  T
  11    -50.6332595 -0.189064E-07  0.885E-04    7.33      22.2  T
  12    -50.6332595 -0.321995E-08  0.336E-04    7.33      58.3  T
speedup  0.96
cpu  time for SCC    0.01 s
wall time for SCC    0.01 s

   *** convergence criteria satisfied after 12 iterations ***

          eigenvalues
 #    :          28         29         30         31         32         33         34         35
 occ. :        2.000      2.000      2.000      2.000      2.000      2.000      2.000      2.000
 eps  :       -11.909    -11.876    -11.672    -10.661    -10.577     -9.990     -9.855     -9.754
 #    :          36         37         38         39         40         41         42         43
 occ. :        2.000      2.000      2.000      2.000      2.000      0.000      0.000      0.000
 eps  :        -9.597     -9.555     -9.440     -9.290     -8.987     -1.654     -0.723      0.469
 #    :          44         45         46         47         48         49         50         51
 occ. :        0.000      0.000      0.000      0.000      0.000      0.000      0.000      0.000
 eps  :         1.113      1.860      2.606      2.816      2.881      3.030      3.717      5.133


   #   Z            q   n(s)   n(p)   n(d)      C6AA      α(0)
   1  16 S      1.493  1.604  1.900  1.004    93.624    16.285
   2   8 O     -0.780  1.779  5.002  0.000    30.991     7.464
   3   8 O     -0.781  1.777  5.004  0.000    31.028     7.468
   4   8 O     -0.791  1.771  5.020  0.000    31.298     7.501
   5   8 O     -0.800  1.779  5.021  0.000    31.583     7.535
   6   8 O     -0.878  1.816  5.061  0.000    33.919     7.812
   7   1 H      0.191  0.809  0.000  0.000     1.165     1.696
   8   8 O     -0.609  1.731  4.878  0.000    25.405     6.803
   9   1 H      0.329  0.671  0.000  0.000     0.640     1.257
  10   1 H      0.288  0.712  0.000  0.000     0.758     1.368
  11   8 O     -0.630  1.729  4.901  0.000    25.927     6.872
  12   1 H      0.285  0.715  0.000  0.000     0.767     1.376
  13   1 H      0.342  0.658  0.000  0.000     0.608     1.225
  14   8 O     -0.423  1.659  4.764  0.000    21.242     6.225
  15   1 H      0.406  0.594  0.000  0.000     0.475     1.082
  16   1 H      0.414  0.586  0.000  0.000     0.452     1.052
  17   1 H      0.353  0.647  0.000  0.000     0.581     1.198
  18   8 O     -0.454  1.658  4.797  0.000    21.875     6.317
  19   1 H      0.401  0.599  0.000  0.000     0.475     1.079
  20   1 H      0.396  0.604  0.000  0.000     0.492     1.102
  21   1 H      0.388  0.612  0.000  0.000     0.508     1.119
  22   7 N     -0.276  1.245  4.031  0.000    27.120     7.735
  23   1 H      0.246  0.754  0.000  0.000     0.899     1.485
  24   1 H      0.321  0.679  0.000  0.000     0.655     1.268
  25   1 H      0.252  0.748  0.000  0.000     0.877     1.467
  26   1 H      0.318  0.682  0.000  0.000     0.661     1.274

 Mol. C6AA /au·bohr⁶  :       5516.366754
 Mol. C8AA /au·bohr⁸  :     120002.599609
 Mol. α(0) /au        :        107.064088

 
 Wiberg/Mayer (AO) data. WBOs > 0.1 written file <wbo>
 largest (>0.05) Wiberg bond orders for each atom
           total WBO             WBO to atom ...
     1  S   5.014    O    5 1.268    O    2 1.259    O    3 1.242    O    4 1.203
     2  O   1.676    S    1 1.259    O    4 0.098    O    5 0.097    H   20 0.092    O    3 0.092
     3  O   1.693    S    1 1.242    H   24 0.117    O    5 0.101    O    2 0.092    O    4 0.084
     4  O   1.699    S    1 1.203    H   15 0.114    O    2 0.098    O    3 0.084    O    5 0.082
     5  O   1.643    S    1 1.268    O    3 0.101    O    2 0.097    O    4 0.082    H   13 0.061
     6  O   1.511    H    7 0.946    H   16 0.217    H   19 0.204    O   14 0.063    O   18 0.063
     7  H   0.963    O    6 0.946
     8  O   1.867    H   10 0.909    H    9 0.840    H   21 0.066
     9  H   0.892    O    8 0.840
    10  H   0.917    O    8 0.909
    11  O   1.832    H   12 0.902    H   13 0.815    H   26 0.058
    12  H   0.919    O   11 0.902
    13  H   0.883    O   11 0.815    O    5 0.061
    14  O   2.299    H   17 0.867    H   15 0.711    H   16 0.604    O    6 0.063
    15  H   0.835    O   14 0.711    O    4 0.114
    16  H   0.829    O   14 0.604    O    6 0.217
    17  H   0.875    O   14 0.867
    18  O   2.286    H   21 0.776    H   20 0.741    H   19 0.630    O    6 0.063
    19  H   0.839    O   18 0.630    O    6 0.204
    20  H   0.843    O   18 0.741    O    2 0.092
    21  H   0.850    O   18 0.776    O    8 0.066
    22  N   3.564    H   23 0.936    H   25 0.933    H   26 0.830    H   24 0.771
    23  H   0.939    N   22 0.936
    24  H   0.897    N   22 0.771    O    3 0.117
    25  H   0.937    N   22 0.933
    26  H   0.899    N   22 0.830    O   11 0.058
 MOs/occ written to file <molden.input>
 
molecular dipole:
                 x           y           z       tot (Debye)
 q only:       -0.561       0.413      -2.275
   full:       -0.289       0.250      -2.407       6.195
molecular quadrupole (traceless):
                xx          xy          yy          xz          yz          zz
 q only:        6.036       0.545     -11.898      26.124      -9.277       5.863
  q+dip:        6.227      -0.079     -11.235      25.918      -5.279       5.008
   full:        5.862      -0.007     -11.140      26.109      -5.082       5.278

SCC energy    :     -50.6332595
rep           :       0.2821994
ES            :       0.3880519
AES           :      -0.0783420
AXC           :      -0.0099420
disp          :      -0.0175015
XB            :       0.0000000
fix           :       0.0000000
total E       :     -50.3510060
atomizationE  :       4.8813102     3063.07
(atE without considering molecular charge,
 total energy contains solvation terms)
H-L gap (eV)  :          7.3332
           ------------------------------------------------- 
          |                 ===============                 |
          |                   A N C O P T                   |
          |                 ===============                 |
          |          Approximate Normal Coordinate          |
          |           Rational Function Optimizer           |
           ------------------------------------------------- 
dumping coords to <xtbopt.coord> and <xtbopt.log>
 optlevel               2
 Maxcycle             520
 Maxmicro              25
 Econv         1.000000000000000E-007
 Gconv         2.000000000000000E-004
 Maxdispl       1.00000000000000     
 Hlow          5.000000000000000E-003
 S6             20.0000000000000     
 Nvar               72

generating ANC from model Hessian ...
 Shifting diagonal of input Hessian by   5.012696790902764E-003
 Lowest  eigenvalues of input Hessian
    0.005000   -0.000000   -0.000000   -0.000000   -0.000000   -0.000000
    0.000000    0.005043    0.005416    0.005514    0.005588    0.005694
    0.005994    0.006759    0.007076    0.007218    0.008076    0.008619
 Highest eigenvalues
    1.557038    1.589871    1.593240    3.081132    3.087623    3.094984
 
cpu  time for ANC gen    0.01 s
wall time for ANC gen    0.01 s
................................................................................
.............................. CYCLE    1 ......................................
................................................................................
   1    -50.6332595 -0.506333E+02  0.101E-04    7.33       0.0  T
   2    -50.6332595 -0.223679E-10  0.806E-05    7.33     243.4  T
   3    -50.6332595 -0.260982E-10  0.356E-05    7.33     550.4  T
speedup  1.03
cpu  time for SCC    0.00 s
wall time for SCC    0.00 s
speedup  1.00
cpu  time for grad    0.01 s
wall time for grad    0.01 s
 E :    -50.35100600  G :  0.188618    pred/act E change:  0.000D+00  0.742D-11
Maxdispl :   0.1789   ||displ|| :   0.3986   Lambda : -0.402D-01
Largest |displ|/coords:  0.1789 (  23)  0.1218 (  16)  0.1216 (  55)
................................................................................
.............................. CYCLE    2 ......................................
................................................................................
   1    -50.6429277 -0.506429E+02  0.397E-01    7.54       0.0  T
   2    -50.6433995 -0.471789E-03  0.288E-01    7.69       1.0  T
   3    -50.6436177 -0.218184E-03  0.100E-01    7.95       1.0  T
   4    -50.6436423 -0.246389E-04  0.227E-02    7.94       1.0  T
   5    -50.6436438 -0.152318E-05  0.807E-03    7.92       2.4  T
   6    -50.6436439 -0.954079E-07  0.422E-03    7.92       4.6  T
   7    -50.6436440 -0.535615E-07  0.149E-03    7.92      13.2  T
speedup  1.09
cpu  time for SCC    0.01 s
wall time for SCC    0.01 s
speedup  1.01
cpu  time for grad    0.01 s
wall time for grad    0.01 s
 E :    -50.38418071  G :  0.115326    pred/act E change:  0.000D+00 -0.332D-01
Maxdispl :   0.1926   ||displ|| :   0.4623   Lambda : -0.252D-01
Largest |displ|/coords:  0.1926 (  23)  0.1702 (  16)  0.1195 (  24)
................................................................................
.............................. CYCLE    3 ......................................
................................................................................
   1    -50.6496663 -0.506497E+02  0.401E-01    8.10       0.0  T
   2    -50.6503737 -0.707401E-03  0.283E-01    8.28       1.0  T
   3    -50.6506832 -0.309584E-03  0.112E-01    8.48       1.0  T
   4    -50.6507049 -0.216787E-04  0.233E-02    8.50       1.0  T
   5    -50.6507065 -0.161062E-05  0.855E-03    8.49       2.3  T
   6    -50.6507067 -0.128728E-06  0.470E-03    8.49       4.2  T
   7    -50.6507067 -0.778907E-07  0.172E-03    8.49      11.4  T
speedup  0.95
cpu  time for SCC    0.01 s
wall time for SCC    0.01 s
speedup  1.01
cpu  time for grad    0.01 s
wall time for grad    0.01 s
 E :    -50.40520880  G :  0.079113    pred/act E change: -0.233D-01 -0.210D-01
Maxdispl :   0.1945   ||displ|| :   0.4841   Lambda : -0.159D-01
Largest |displ|/coords:  0.1945 (  16)  0.1715 (  12)  0.1590 (  18)
................................................................................
.............................. CYCLE    4 ......................................
................................................................................
   1    -50.6533051 -0.506533E+02  0.493E-01    8.59       0.0  T
   2    -50.6542887 -0.983650E-03  0.344E-01    8.65       1.0  T
   3    -50.6546954 -0.406621E-03  0.133E-01    8.73       1.0  T
   4    -50.6547295 -0.341668E-04  0.238E-02    8.74       1.0  T
   5    -50.6547315 -0.195113E-05  0.104E-02    8.74       1.9  T
   6    -50.6547317 -0.236554E-06  0.544E-03    8.74       3.6  T
   7    -50.6547318 -0.905066E-07  0.175E-03    8.74      11.2  T
speedup  1.11
cpu  time for SCC    0.01 s
wall time for SCC    0.01 s
speedup  0.99
cpu  time for grad    0.01 s
wall time for grad    0.01 s
 E :    -50.41767326  G :  0.068838    pred/act E change: -0.153D-01 -0.125D-01
Maxdispl :   0.1624   ||displ|| :   0.4138   Lambda : -0.111D-01
Largest |displ|/coords:  0.1624 (  11)  0.1375 (  14)  0.1198 (   2)
................................................................................
.............................. CYCLE    5 ......................................
................................................................................
   1    -50.6675598 -0.506676E+02  0.383E-01    8.84       0.0  T
   2    -50.6679404 -0.380620E-03  0.283E-01    8.87       1.0  T
   3    -50.6681024 -0.161994E-03  0.930E-02    8.93       1.0  T
   4    -50.6681335 -0.311197E-04  0.187E-02    8.93       1.1  T
   5    -50.6681346 -0.105844E-05  0.812E-03    8.93       2.4  T
   6    -50.6681347 -0.124460E-06  0.359E-03    8.93       5.5  T
   7    -50.6681347 -0.348393E-07  0.116E-03    8.93      16.9  T
speedup  0.95
cpu  time for SCC    0.01 s
wall time for SCC    0.01 s
speedup  1.00
cpu  time for grad    0.01 s
wall time for grad    0.01 s
 E :    -50.42228604  G :  0.064552    pred/act E change: -0.983D-02 -0.461D-02
Maxdispl :   0.2063   ||displ|| :   0.4972   Lambda : -0.121D-01
Largest |displ|/coords:  0.2063 (  12)  0.1835 (  11)  0.1773 (   8)
................................................................................
.............................. CYCLE    6 ......................................
................................................................................
   1    -50.6584629 -0.506585E+02  0.705E-01    9.02       0.0  T
   2    -50.6593917 -0.928767E-03  0.501E-01    9.02       1.0  T
   3    -50.6597677 -0.375984E-03  0.153E-01    9.02       1.0  T
   4    -50.6598382 -0.705515E-04  0.253E-02    9.03       1.0  T
   5    -50.6598392 -0.923635E-06  0.127E-02    9.03       1.5  T
   6    -50.6598401 -0.961874E-06  0.602E-03    9.02       3.3  T
   7    -50.6598402 -0.760804E-07  0.125E-03    9.02      15.7  T
   8    -50.6598402 -0.585158E-08  0.512E-04    9.02      38.3  T
speedup  0.97
cpu  time for SCC    0.01 s
wall time for SCC    0.01 s
speedup  1.01
cpu  time for grad    0.01 s
wall time for grad    0.01 s
 E :    -50.42563923  G :  0.080604    pred/act E change: -0.653D-02 -0.335D-02
Maxdispl :   0.1660   ||displ|| :   0.4300   Lambda : -0.165D-01
Largest |displ|/coords:  0.1660 (   2)  0.1598 (  11)  0.1581 (  14)
................................................................................
.............................. CYCLE    7 ......................................
................................................................................
   1    -50.6796161 -0.506796E+02  0.587E-01    9.09       0.0  T
   2    -50.6798559 -0.239827E-03  0.438E-01    9.10       1.0  T
   3    -50.6800218 -0.165880E-03  0.858E-02    9.12       1.0  T
   4    -50.6800486 -0.268049E-04  0.225E-02    9.11       1.0  T
   5    -50.6800495 -0.928373E-06  0.944E-03    9.11       2.1  T
   6    -50.6800496 -0.650479E-07  0.426E-03    9.11       4.6  T
   7    -50.6800496 -0.501337E-07  0.914E-04    9.11      21.5  T
speedup  1.13
cpu  time for SCC    0.01 s
wall time for SCC    0.01 s
speedup  1.01
cpu  time for grad    0.01 s
wall time for grad    0.01 s
 E :    -50.42778222  G :  0.059180    pred/act E change: -0.755D-02 -0.214D-02
Maxdispl :   0.1308   ||displ|| :   0.3394   Lambda : -0.831D-02
Largest |displ|/coords:  0.1308 (  17)  0.1185 (   8)  0.1106 (  12)
................................................................................
.............................. CYCLE    8 ......................................
................................................................................
   1    -50.6754001 -0.506754E+02  0.423E-01    9.16       0.0  T
   2    -50.6756173 -0.217187E-03  0.308E-01    9.15       1.0  T
   3    -50.6757216 -0.104252E-03  0.780E-02    9.15       1.0  T
   4    -50.6757428 -0.212472E-04  0.136E-02    9.16       1.4  T
   5    -50.6757432 -0.391439E-06  0.590E-03    9.15       3.3  T
   6    -50.6757433 -0.111647E-06  0.340E-03    9.15       5.8  T
speedup  0.93
cpu  time for SCC    0.00 s
wall time for SCC    0.01 s
speedup  0.99
cpu  time for grad    0.01 s
wall time for grad    0.01 s
 E :    -50.43290791  G :  0.042973    pred/act E change: -0.975D-02 -0.513D-02
Maxdispl :   0.1404   ||displ|| :   0.3049   Lambda : -0.306D-02
Largest |displ|/coords:  0.1404 (   3)  0.1016 (   7)  0.0876 (   8)
................................................................................
.............................. CYCLE    9 ......................................
................................................................................
   1    -50.6804928 -0.506805E+02  0.216E-01    9.19       0.0  T
   2    -50.6805837 -0.908666E-04  0.157E-01    9.20       1.0  T
   3    -50.6806245 -0.408340E-04  0.511E-02    9.20       1.0  T
   4    -50.6806323 -0.780359E-05  0.119E-02    9.21       1.7  T
   5    -50.6806326 -0.291987E-06  0.420E-03    9.20       4.7  T
   6    -50.6806326 -0.229659E-07  0.248E-03    9.20       7.9  T
speedup  1.09
cpu  time for SCC    0.01 s
wall time for SCC    0.01 s
speedup  0.98
cpu  time for grad    0.01 s
wall time for grad    0.01 s
 E :    -50.43542858  G :  0.046758    pred/act E change: -0.463D-02 -0.252D-02
Maxdispl :   0.2578   ||displ|| :   0.6127   Lambda : -0.760D-02
Largest |displ|/coords:  0.2578 (   3)  0.1777 (  17)  0.1756 (  12)
................................................................................
.............................. CYCLE   10 ......................................
................................................................................
   1    -50.6952098 -0.506952E+02  0.410E-01    9.32       0.0  T
   2    -50.6954923 -0.282485E-03  0.303E-01    9.33       1.0  T
   3    -50.6956385 -0.146152E-03  0.101E-01    9.33       1.0  T
   4    -50.6956678 -0.293072E-04  0.302E-02    9.34       1.0  T
   5    -50.6956693 -0.156246E-05  0.101E-02    9.34       1.9  T
   6    -50.6956695 -0.136369E-06  0.527E-03    9.34       3.7  T
   7    -50.6956695 -0.397346E-07  0.174E-03    9.34      11.3  T
speedup  0.95
cpu  time for SCC    0.01 s
wall time for SCC    0.01 s
speedup  0.99
cpu  time for grad    0.01 s
wall time for grad    0.01 s
 E :    -50.44006683  G :  0.048424    pred/act E change: -0.167D-02 -0.464D-02
Maxdispl :   0.2418   ||displ|| :   0.4579   Lambda : -0.529D-02
Largest |displ|/coords:  0.2418 (   7)  0.1610 (   2)  0.1554 (   3)
................................................................................
.............................. CYCLE   11 ......................................
................................................................................
   1    -50.7036695 -0.507037E+02  0.363E-01    9.42       0.0  T
   2    -50.7037794 -0.109889E-03  0.272E-01    9.43       1.0  T
   3    -50.7038299 -0.504696E-04  0.627E-02    9.44       1.0  T
   4    -50.7038470 -0.171385E-04  0.179E-02    9.44       1.1  T
   5    -50.7038474 -0.423590E-06  0.543E-03    9.44       3.6  T
   6    -50.7038475 -0.376699E-07  0.299E-03    9.44       6.6  T
speedup  0.94
cpu  time for SCC    0.00 s
wall time for SCC    0.01 s
speedup  0.99
cpu  time for grad    0.01 s
wall time for grad    0.01 s
 E :    -50.44241273  G :  0.047200    pred/act E change: -0.522D-02 -0.235D-02
Maxdispl :   0.3663   ||displ|| :   0.5700   Lambda : -0.749D-02
Largest |displ|/coords:  0.3663 (   4)  0.2389 (   5)  0.1303 (   8)
................................................................................
.............................. CYCLE   12 ......................................
................................................................................
   1    -50.7163747 -0.507164E+02  0.724E-01    9.52       0.0  T
   2    -50.7166339 -0.259250E-03  0.549E-01    9.53       1.0  T
   3    -50.7167954 -0.161434E-03  0.939E-02    9.54       1.0  T
   4    -50.7168369 -0.415155E-04  0.218E-02    9.55       1.0  T
   5    -50.7168381 -0.119898E-05  0.950E-03    9.55       2.1  T
   6    -50.7168381 -0.554104E-07  0.491E-03    9.55       4.0  T
   7    -50.7168382 -0.286780E-07  0.108E-03    9.55      18.2  T
speedup  0.95
cpu  time for SCC    0.01 s
wall time for SCC    0.01 s
speedup  1.00
cpu  time for grad    0.01 s
wall time for grad    0.01 s
 E :    -50.44115364  G :  0.077701    pred/act E change: -0.320D-02  0.126D-02
Maxdispl :   0.2364   ||displ|| :   0.5010   Lambda : -0.141D-01
Largest |displ|/coords:  0.2364 (   5)  0.2125 (   6)  0.1779 (   2)
................................................................................
.............................. CYCLE   13 ......................................
................................................................................
   1    -50.6990284 -0.506990E+02  0.665E-01    9.55       0.0  T
   2    -50.6992232 -0.194703E-03  0.503E-01    9.54       1.0  T
   3    -50.6993828 -0.159694E-03  0.780E-02    9.53       1.0  T
   4    -50.6994069 -0.240884E-04  0.237E-02    9.54       1.0  T
   5    -50.6994078 -0.822349E-06  0.859E-03    9.54       2.3  T
   6    -50.6994079 -0.111920E-06  0.498E-03    9.54       3.9  T
   7    -50.6994079 -0.459855E-07  0.116E-03    9.53      16.9  T
speedup  0.95
cpu  time for SCC    0.01 s
wall time for SCC    0.01 s
speedup  0.94
cpu  time for grad    0.01 s
wall time for grad    0.01 s
 E :    -50.44415712  G :  0.060083    pred/act E change: -0.496D-02 -0.300D-02
Maxdispl :   0.1789   ||displ|| :   0.4233   Lambda : -0.115D-01
Largest |displ|/coords:  0.1789 (   3)  0.1492 (   9)  0.1303 (  19)
................................................................................
.............................. CYCLE   14 ......................................
................................................................................
   1    -50.7299412 -0.507299E+02  0.598E-01    9.60       0.0  T
   2    -50.7302232 -0.281947E-03  0.449E-01    9.60       1.0  T
   3    -50.7304022 -0.178996E-03  0.987E-02    9.62       1.0  T
   4    -50.7304386 -0.364646E-04  0.236E-02    9.62       1.0  T
   5    -50.7304398 -0.115918E-05  0.958E-03    9.62       2.0  T
   6    -50.7304398 -0.394993E-07  0.474E-03    9.62       4.1  T
   7    -50.7304399 -0.417793E-07  0.945E-04    9.62      20.7  T
speedup  0.97
cpu  time for SCC    0.01 s
wall time for SCC    0.01 s
speedup  1.01
cpu  time for grad    0.01 s
wall time for grad    0.01 s
 E :    -50.44433479  G :  0.074702    pred/act E change: -0.880D-02 -0.178D-03
Maxdispl :   0.1391   ||displ|| :   0.3315   Lambda : -0.104D-01
Largest |displ|/coords:  0.1391 (   3)  0.1358 (   9)  0.1090 (  19)
................................................................................
.............................. CYCLE   15 ......................................
................................................................................
   1    -50.7015160 -0.507015E+02  0.443E-01    9.48       0.0  T
   2    -50.7017031 -0.187101E-03  0.328E-01    9.49       1.0  T
   3    -50.7018155 -0.112329E-03  0.797E-02    9.49       1.0  T
   4    -50.7018365 -0.210860E-04  0.204E-02    9.49       1.0  T
   5    -50.7018374 -0.861882E-06  0.723E-03    9.49       2.7  T
   6    -50.7018375 -0.871678E-07  0.433E-03    9.49       4.5  T
   7    -50.7018375 -0.259818E-07  0.772E-04    9.49      25.4  T
speedup  0.95
cpu  time for SCC    0.01 s
wall time for SCC    0.01 s
speedup  1.01
cpu  time for grad    0.01 s
wall time for grad    0.01 s
 E :    -50.44613916  G :  0.051965    pred/act E change: -0.680D-02 -0.180D-02
Maxdispl :   0.1159   ||displ|| :   0.2637   Lambda : -0.690D-02
Largest |displ|/coords:  0.1159 (   9)  0.0928 (   3)  0.0796 (  30)
................................................................................
.............................. CYCLE   16 ......................................
................................................................................
   1    -50.7260934 -0.507261E+02  0.314E-01    9.63       0.0  T
   2    -50.7262257 -0.132207E-03  0.232E-01    9.62       1.0  T
   3    -50.7263101 -0.844889E-04  0.661E-02    9.60       1.0  T
   4    -50.7263224 -0.122245E-04  0.188E-02    9.61       1.0  T
   5    -50.7263231 -0.714016E-06  0.651E-03    9.61       3.0  T
   6    -50.7263231 -0.153288E-07  0.326E-03    9.61       6.0  T
   7    -50.7263231 -0.201432E-07  0.604E-04    9.61      32.5  T
speedup  1.11
cpu  time for SCC    0.01 s
wall time for SCC    0.01 s
speedup  1.01
cpu  time for grad    0.01 s
wall time for grad    0.01 s
 E :    -50.44715120  G :  0.042275    pred/act E change: -0.576D-02 -0.101D-02
Maxdispl :   0.0769   ||displ|| :   0.1681   Lambda : -0.272D-02
Largest |displ|/coords:  0.0769 (  15)  0.0659 (   4)  0.0610 (   7)
................................................................................
.............................. CYCLE   17 ......................................
................................................................................
   1    -50.7187973 -0.507188E+02  0.154E-01    9.53       0.0  T
   2    -50.7188150 -0.177363E-04  0.115E-01    9.53       1.0  T
   3    -50.7188285 -0.135292E-04  0.242E-02    9.53       1.0  T
   4    -50.7188305 -0.195896E-05  0.807E-03    9.53       2.4  T
   5    -50.7188306 -0.134545E-06  0.259E-03    9.53       7.6  T
   6    -50.7188306 -0.705798E-08  0.143E-03    9.53      13.7  T
speedup  0.93
cpu  time for SCC    0.01 s
wall time for SCC    0.01 s
speedup  0.98
cpu  time for grad    0.01 s
wall time for grad    0.01 s
 E :    -50.44860484  G :  0.013954    pred/act E change: -0.369D-02 -0.145D-02
Maxdispl :   0.1189   ||displ|| :   0.1942   Lambda : -0.783D-03
Largest |displ|/coords:  0.1189 (   7)  0.0638 (   1)  0.0519 (   6)
................................................................................
.............................. CYCLE   18 ......................................
................................................................................
   1    -50.7170527 -0.507171E+02  0.132E-01    9.50       0.0  T
   2    -50.7170770 -0.242523E-04  0.984E-02    9.49       1.0  T
   3    -50.7170885 -0.114621E-04  0.277E-02    9.45       1.0  T
   4    -50.7170914 -0.289111E-05  0.912E-03    9.45       2.1  T
   5    -50.7170915 -0.147256E-06  0.284E-03    9.46       6.9  T
   6    -50.7170915 -0.130390E-07  0.146E-03    9.46      13.4  T
speedup  1.07
cpu  time for SCC    0.01 s
wall time for SCC    0.01 s
speedup  1.05
cpu  time for grad    0.01 s
wall time for grad    0.01 s
 E :    -50.44902020  G :  0.018378    pred/act E change: -0.140D-02 -0.415D-03
Maxdispl :   0.1698   ||displ|| :   0.2640   Lambda : -0.769D-03
Largest |displ|/coords:  0.1698 (   7)  0.0826 (  15)  0.0704 (   6)
................................................................................
.............................. CYCLE   19 ......................................
................................................................................
   1    -50.7172939 -0.507173E+02  0.137E-01    9.44       0.0  T
   2    -50.7173065 -0.126362E-04  0.102E-01    9.44       1.0  T
   3    -50.7173144 -0.788916E-05  0.186E-02    9.42       1.1  T
   4    -50.7173161 -0.165895E-05  0.825E-03    9.42       2.4  T
   5    -50.7173162 -0.125695E-06  0.225E-03    9.42       8.7  T
   6    -50.7173162 -0.658520E-08  0.128E-03    9.42      15.3  T
speedup  0.91
cpu  time for SCC    0.00 s
wall time for SCC    0.01 s
speedup  0.98
cpu  time for grad    0.01 s
wall time for grad    0.01 s
 E :    -50.44958514  G :  0.017829    pred/act E change: -0.406D-03 -0.565D-03
Maxdispl :   0.2109   ||displ|| :   0.4526   Lambda : -0.140D-02
Largest |displ|/coords:  0.2109 (   7)  0.1761 (   2)  0.1505 (   6)
................................................................................
.............................. CYCLE   20 ......................................
................................................................................
   1    -50.7231540 -0.507232E+02  0.261E-01    9.44       0.0  T
   2    -50.7232290 -0.750743E-04  0.194E-01    9.40       1.0  T
   3    -50.7232674 -0.383916E-04  0.532E-02    9.32       1.0  T
   4    -50.7232757 -0.823920E-05  0.200E-02    9.32       1.0  T
   5    -50.7232762 -0.494047E-06  0.506E-03    9.32       3.9  T
   6    -50.7232762 -0.407035E-07  0.275E-03    9.32       7.1  T
   7    -50.7232762 -0.138685E-07  0.810E-04    9.32      24.2  T
speedup  0.97
cpu  time for SCC    0.01 s
wall time for SCC    0.01 s
speedup  0.94
cpu  time for grad    0.01 s
wall time for grad    0.01 s
 E :    -50.45031615  G :  0.014855    pred/act E change: -0.411D-03 -0.731D-03
Maxdispl :   0.1658   ||displ|| :   0.2943   Lambda : -0.564D-03
Largest |displ|/coords:  0.1658 (   7)  0.1086 (   6)  0.0986 (   2)
................................................................................
.............................. CYCLE   21 ......................................
................................................................................
   1    -50.7226145 -0.507226E+02  0.152E-01    9.27       0.0  T
   2    -50.7226264 -0.118821E-04  0.114E-01    9.26       1.0  T
   3    -50.7226345 -0.816340E-05  0.191E-02    9.23       1.0  T
   4    -50.7226360 -0.149104E-05  0.803E-03    9.23       2.4  T
   5    -50.7226362 -0.124140E-06  0.207E-03    9.23       9.5  T
   6    -50.7226362 -0.479675E-08  0.126E-03    9.23      15.6  T
speedup  0.94
cpu  time for SCC    0.00 s
wall time for SCC    0.01 s
speedup  0.99
cpu  time for grad    0.01 s
wall time for grad    0.01 s
 E :    -50.45053686  G :  0.012893    pred/act E change: -0.843D-03 -0.221D-03
Maxdispl :   0.0794   ||displ|| :   0.1716   Lambda : -0.459D-03
Largest |displ|/coords:  0.0794 (   6)  0.0654 (   1)  0.0612 (   7)
................................................................................
.............................. CYCLE   22 ......................................
................................................................................
   1    -50.7253484 -0.507253E+02  0.882E-02    9.27       0.0  T
   2    -50.7253571 -0.872073E-05  0.659E-02    9.26       1.0  T
   3    -50.7253617 -0.456137E-05  0.166E-02    9.24       1.2  T
   4    -50.7253628 -0.112175E-05  0.626E-03    9.24       3.1  T
   5    -50.7253628 -0.666858E-07  0.189E-03    9.24      10.4  T
   6    -50.7253628 -0.528284E-08  0.936E-04    9.24      20.9  T
speedup  1.13
cpu  time for SCC    0.01 s
wall time for SCC    0.01 s
speedup  0.99
cpu  time for grad    0.01 s
wall time for grad    0.01 s
 E :    -50.45082769  G :  0.010399    pred/act E change: -0.306D-03 -0.291D-03
Maxdispl :   0.1020   ||displ|| :   0.2074   Lambda : -0.423D-03
Largest |displ|/coords:  0.1020 (   2)  0.0941 (   6)  0.0707 (   1)
................................................................................
.............................. CYCLE   23 ......................................
................................................................................
   1    -50.7278819 -0.507279E+02  0.995E-02    9.28       0.0  T
   2    -50.7278917 -0.981304E-05  0.743E-02    9.27       1.0  T
   3    -50.7278968 -0.515291E-05  0.179E-02    9.25       1.1  T
   4    -50.7278981 -0.124550E-05  0.603E-03    9.25       3.2  T
   5    -50.7278981 -0.619479E-07  0.192E-03    9.25      10.2  T
   6    -50.7278981 -0.400766E-08  0.983E-04    9.25      19.9  T
speedup  0.93
cpu  time for SCC    0.01 s
wall time for SCC    0.01 s
speedup  0.98
cpu  time for grad    0.01 s
wall time for grad    0.01 s
 E :    -50.45107929  G :  0.010189    pred/act E change: -0.236D-03 -0.252D-03
Maxdispl :   0.1492   ||displ|| :   0.3584   Lambda : -0.477D-03
Largest |displ|/coords:  0.1492 (   6)  0.1465 (   4)  0.1370 (   7)
................................................................................
.............................. CYCLE   24 ......................................
................................................................................
   1    -50.7282390 -0.507282E+02  0.210E-01    9.22       0.0  T
   2    -50.7282592 -0.201919E-04  0.159E-01    9.20       1.0  T
   3    -50.7282721 -0.128484E-04  0.243E-02    9.14       1.0  T
   4    -50.7282754 -0.329285E-05  0.801E-03    9.15       2.4  T
   5    -50.7282755 -0.112623E-06  0.320E-03    9.15       6.1  T
   6    -50.7282755 -0.107913E-07  0.160E-03    9.15      12.3  T
   7    -50.7282755 -0.520363E-08  0.460E-04    9.15      42.7  T
speedup  1.08
cpu  time for SCC    0.01 s
wall time for SCC    0.01 s
speedup  1.06
cpu  time for grad    0.01 s
wall time for grad    0.01 s
 E :    -50.45129695  G :  0.012900    pred/act E change: -0.221D-03 -0.218D-03
Maxdispl :   0.1116   ||displ|| :   0.2238   Lambda : -0.357D-03
Largest |displ|/coords:  0.1116 (   6)  0.0889 (   2)  0.0829 (   1)
................................................................................
.............................. CYCLE   25 ......................................
................................................................................
   1    -50.7296306 -0.507296E+02  0.113E-01    9.20       0.0  T
   2    -50.7296372 -0.655957E-05  0.850E-02    9.20       1.0  T
   3    -50.7296415 -0.437354E-05  0.148E-02    9.20       1.3  T
   4    -50.7296425 -0.966573E-06  0.433E-03    9.20       4.5  T
   5    -50.7296425 -0.239230E-07  0.190E-03    9.20      10.3  T
   6    -50.7296425 -0.516786E-08  0.905E-04    9.20      21.7  T
speedup  1.09
cpu  time for SCC    0.01 s
wall time for SCC    0.01 s
speedup  0.98
cpu  time for grad    0.01 s
wall time for grad    0.01 s
 E :    -50.45149073  G :  0.010477    pred/act E change: -0.269D-03 -0.194D-03
Maxdispl :   0.1130   ||displ|| :   0.1938   Lambda : -0.277D-03
Largest |displ|/coords:  0.1130 (   7)  0.0938 (   1)  0.0668 (   6)

generating ANC from model Hessian ...
 Shifting diagonal of input Hessian by   5.247934682028070E-003
 Lowest  eigenvalues of input Hessian
    0.005000   -0.000000   -0.000000   -0.000000    0.000000    0.000000
    0.000000    0.005366    0.005449    0.005657    0.005772    0.005918
    0.006453    0.006494    0.007377    0.008201    0.009238    0.009789
 Highest eigenvalues
    1.384137    1.402908    1.414128    2.911850    3.329004    3.599107
 
cpu  time for ANC gen    0.01 s
wall time for ANC gen    0.01 s
................................................................................
.............................. CYCLE   26 ......................................
................................................................................
   1    -50.7289547 -0.507290E+02  0.823E-02    9.14       0.0  T
   2    -50.7289614 -0.671914E-05  0.613E-02    9.14       1.0  T
   3    -50.7289654 -0.395222E-05  0.137E-02    9.13       1.4  T
   4    -50.7289662 -0.862045E-06  0.413E-03    9.13       4.7  T
   5    -50.7289663 -0.328241E-07  0.171E-03    9.13      11.5  T
   6    -50.7289663 -0.389710E-08  0.856E-04    9.13      22.9  T
   7    -50.7289663 -0.117016E-08  0.223E-04    9.13      88.1  T
speedup  0.97
cpu  time for SCC    0.01 s
wall time for SCC    0.01 s
speedup  0.97
cpu  time for grad    0.01 s
wall time for grad    0.01 s
 E :    -50.45162426  G :  0.011275    pred/act E change:  0.000D+00 -0.134D-03
Maxdispl :   0.1014   ||displ|| :   0.1963   Lambda : -0.572D-03
Largest |displ|/coords:  0.1014 (   5)  0.0814 (   1)  0.0594 (   2)
................................................................................
.............................. CYCLE   27 ......................................
................................................................................
   1    -50.7293639 -0.507294E+02  0.166E-01    9.12       0.0  T
   2    -50.7293709 -0.702952E-05  0.126E-01    9.13       1.0  T
   3    -50.7293753 -0.440781E-05  0.156E-02    9.15       1.3  T
   4    -50.7293765 -0.122238E-05  0.499E-03    9.15       3.9  T
   5    -50.7293766 -0.381042E-07  0.166E-03    9.15      11.8  T
   6    -50.7293766 -0.186682E-08  0.847E-04    9.15      23.2  T
speedup  0.93
cpu  time for SCC    0.00 s
wall time for SCC    0.01 s
speedup  0.99
cpu  time for grad    0.01 s
wall time for grad    0.01 s
 E :    -50.45203720  G :  0.006315    pred/act E change:  0.000D+00 -0.413D-03
Maxdispl :   0.1638   ||displ|| :   0.3498   Lambda : -0.642D-03
Largest |displ|/coords:  0.1638 (   1)  0.1514 (   5)  0.1293 (  10)
................................................................................
.............................. CYCLE   28 ......................................
................................................................................
   1    -50.7279172 -0.507279E+02  0.248E-01    9.12       0.0  T
   2    -50.7279326 -0.154426E-04  0.186E-01    9.14       1.0  T
   3    -50.7279407 -0.812835E-05  0.229E-02    9.18       1.0  T
   4    -50.7279435 -0.277884E-05  0.800E-03    9.18       2.5  T
   5    -50.7279436 -0.871714E-07  0.276E-03    9.17       7.1  T
   6    -50.7279436 -0.720395E-08  0.141E-03    9.17      13.9  T
speedup  0.94
cpu  time for SCC    0.01 s
wall time for SCC    0.01 s
speedup  1.00
cpu  time for grad    0.01 s
wall time for grad    0.01 s
 E :    -50.45232952  G :  0.015012    pred/act E change: -0.297D-03 -0.292D-03
Maxdispl :   0.1031   ||displ|| :   0.1626   Lambda : -0.316D-03
Largest |displ|/coords:  0.1031 (   5)  0.0723 (   1)  0.0507 (  14)
................................................................................
.............................. CYCLE   29 ......................................
................................................................................
   1    -50.7280145 -0.507280E+02  0.138E-01    9.18       0.0  T
   2    -50.7280180 -0.354777E-05  0.105E-01    9.18       1.0  T
   3    -50.7280213 -0.327728E-05  0.105E-02    9.19       1.9  T
   4    -50.7280217 -0.399903E-06  0.374E-03    9.19       5.3  T
   5    -50.7280217 -0.120980E-07  0.119E-03    9.19      16.5  T
   6    -50.7280217 -0.150447E-08  0.575E-04    9.19      34.1  T
speedup  0.93
cpu  time for SCC    0.00 s
wall time for SCC    0.01 s
speedup  0.98
cpu  time for grad    0.01 s
wall time for grad    0.01 s
 E :    -50.45255543  G :  0.013065    pred/act E change: -0.360D-03 -0.226D-03
Maxdispl :   0.2164   ||displ|| :   0.3069   Lambda : -0.518D-03
Largest |displ|/coords:  0.2164 (   5)  0.1534 (   1)  0.0760 (  10)
................................................................................
.............................. CYCLE   30 ......................................
................................................................................
   1    -50.7294146 -0.507294E+02  0.164E-01    9.20       0.0  T
   2    -50.7294226 -0.801510E-05  0.122E-01    9.21       1.0  T
   3    -50.7294292 -0.662252E-05  0.163E-02    9.22       1.2  T
   4    -50.7294302 -0.971730E-06  0.611E-03    9.22       3.2  T
   5    -50.7294302 -0.469199E-07  0.228E-03    9.22       8.6  T
   6    -50.7294302 -0.970464E-08  0.110E-03    9.22      17.8  T
speedup  1.09
cpu  time for SCC    0.01 s
wall time for SCC    0.01 s
speedup  0.98
cpu  time for grad    0.01 s
wall time for grad    0.01 s
 E :    -50.45288496  G :  0.007825    pred/act E change: -0.162D-03 -0.330D-03
Maxdispl :   0.2827   ||displ|| :   0.4819   Lambda : -0.508D-03
Largest |displ|/coords:  0.2827 (   5)  0.2668 (   1)  0.1395 (  12)
................................................................................
.............................. CYCLE   31 ......................................
................................................................................
   1    -50.7244106 -0.507244E+02  0.315E-01    9.22       0.0  T
   2    -50.7244357 -0.250901E-04  0.238E-01    9.23       1.0  T
   3    -50.7244551 -0.193645E-04  0.297E-02    9.27       1.0  T
   4    -50.7244588 -0.371194E-05  0.103E-02    9.26       1.9  T
   5    -50.7244589 -0.117463E-06  0.401E-03    9.26       4.9  T
   6    -50.7244589 -0.243596E-07  0.199E-03    9.26       9.9  T
   7    -50.7244589 -0.111694E-07  0.481E-04    9.26      40.7  T
speedup  0.97
cpu  time for SCC    0.01 s
wall time for SCC    0.01 s
speedup  1.00
cpu  time for grad    0.01 s
wall time for grad    0.01 s
 E :    -50.45319251  G :  0.015307    pred/act E change: -0.284D-03 -0.308D-03
Maxdispl :   0.1993   ||displ|| :   0.3327   Lambda : -0.581D-03
Largest |displ|/coords:  0.1993 (   1)  0.1542 (   5)  0.0919 (  12)
................................................................................
.............................. CYCLE   32 ......................................
................................................................................
   1    -50.7277216 -0.507277E+02  0.147E-01    9.31       0.0  T
   2    -50.7277361 -0.144818E-04  0.111E-01    9.32       1.0  T
   3    -50.7277434 -0.732160E-05  0.239E-02    9.36       1.0  T
   4    -50.7277458 -0.237071E-05  0.764E-03    9.35       2.6  T
   5    -50.7277459 -0.838551E-07  0.270E-03    9.35       7.3  T
   6    -50.7277459 -0.106347E-07  0.154E-03    9.35      12.7  T
speedup  1.11
cpu  time for SCC    0.01 s
wall time for SCC    0.01 s
speedup  0.99
cpu  time for grad    0.01 s
wall time for grad    0.01 s
 E :    -50.45356319  G :  0.012163    pred/act E change: -0.313D-03 -0.371D-03
Maxdispl :   0.3638   ||displ|| :   0.4921   Lambda : -0.673D-03
Largest |displ|/coords:  0.3638 (   5)  0.2161 (   1)  0.1050 (  29)
................................................................................
.............................. CYCLE   33 ......................................
................................................................................
   1    -50.7274518 -0.507275E+02  0.260E-01    9.39       0.0  T
   2    -50.7274941 -0.422781E-04  0.196E-01    9.41       1.0  T
   3    -50.7275153 -0.212088E-04  0.394E-02    9.46       1.0  T
   4    -50.7275229 -0.758359E-05  0.129E-02    9.45       1.5  T
   5    -50.7275231 -0.233908E-06  0.451E-03    9.45       4.4  T
   6    -50.7275231 -0.303322E-07  0.252E-03    9.45       7.8  T
   7    -50.7275232 -0.144604E-07  0.531E-04    9.45      36.9  T
speedup  0.97
cpu  time for SCC    0.01 s
wall time for SCC    0.01 s
speedup  1.01
cpu  time for grad    0.01 s
wall time for grad    0.01 s
 E :    -50.45383190  G :  0.018561    pred/act E change: -0.323D-03 -0.269D-03
Maxdispl :   0.2642   ||displ|| :   0.4123   Lambda : -0.106D-02
Largest |displ|/coords:  0.2642 (   5)  0.1202 (   6)  0.1175 (   1)
................................................................................
.............................. CYCLE   34 ......................................
................................................................................
   1    -50.7293595 -0.507294E+02  0.213E-01    9.45       0.0  T
   2    -50.7294150 -0.554795E-04  0.160E-01    9.47       1.0  T
   3    -50.7294432 -0.282629E-04  0.458E-02    9.51       1.0  T
   4    -50.7294508 -0.754368E-05  0.135E-02    9.51       1.5  T
   5    -50.7294511 -0.349462E-06  0.476E-03    9.50       4.1  T
   6    -50.7294511 -0.283034E-07  0.260E-03    9.50       7.6  T
   7    -50.7294511 -0.114513E-07  0.572E-04    9.50      34.3  T
speedup  0.97
cpu  time for SCC    0.01 s
wall time for SCC    0.01 s
speedup  1.00
cpu  time for grad    0.01 s
wall time for grad    0.01 s
 E :    -50.45444478  G :  0.016809    pred/act E change: -0.418D-03 -0.613D-03
Maxdispl :   0.3489   ||displ|| :   0.5838   Lambda : -0.106D-02
Largest |displ|/coords:  0.3489 (   5)  0.2803 (   1)  0.1779 (   6)
................................................................................
.............................. CYCLE   35 ......................................
................................................................................
   1    -50.7277391 -0.507277E+02  0.297E-01    9.48       0.0  T
   2    -50.7278310 -0.918239E-04  0.224E-01    9.50       1.0  T
   3    -50.7278700 -0.390818E-04  0.606E-02    9.51       1.0  T
   4    -50.7278837 -0.136831E-04  0.172E-02    9.51       1.1  T
   5    -50.7278843 -0.546351E-06  0.554E-03    9.51       3.5  T
   6    -50.7278843 -0.362667E-07  0.327E-03    9.51       6.0  T
   7    -50.7278843 -0.194856E-07  0.732E-04    9.51      26.8  T
   8    -50.7278843 -0.174673E-08  0.290E-04    9.51      67.5  T
speedup  1.13
cpu  time for SCC    0.01 s
wall time for SCC    0.01 s
speedup  1.01
cpu  time for grad    0.01 s
wall time for grad    0.01 s
 E :    -50.45503193  G :  0.022289    pred/act E change: -0.623D-03 -0.587D-03
Maxdispl :   0.2845   ||displ|| :   0.4662   Lambda : -0.137D-02
Largest |displ|/coords:  0.2845 (   5)  0.1519 (   1)  0.1307 (  29)
................................................................................
.............................. CYCLE   36 ......................................
................................................................................
   1    -50.7346009 -0.507346E+02  0.219E-01    9.49       0.0  T
   2    -50.7346941 -0.931529E-04  0.165E-01    9.47       1.0  T
   3    -50.7347358 -0.417325E-04  0.635E-02    9.43       1.0  T
   4    -50.7347450 -0.923787E-05  0.182E-02    9.43       1.1  T
   5    -50.7347456 -0.611115E-06  0.549E-03    9.43       3.6  T
   6    -50.7347457 -0.414440E-07  0.296E-03    9.43       6.6  T
speedup  0.93
cpu  time for SCC    0.00 s
wall time for SCC    0.01 s
speedup  0.98
cpu  time for grad    0.01 s
wall time for grad    0.01 s
 E :    -50.45558674  G :  0.026616    pred/act E change: -0.709D-03 -0.555D-03
Maxdispl :   0.3555   ||displ|| :   0.5264   Lambda : -0.211D-02
Largest |displ|/coords:  0.3555 (   5)  0.1752 (  29)  0.1228 (  22)
................................................................................
.............................. CYCLE   37 ......................................
................................................................................
   1    -50.7383636 -0.507384E+02  0.298E-01    9.45       0.0  T
   2    -50.7385345 -0.170836E-03  0.224E-01    9.43       1.0  T
   3    -50.7385986 -0.641517E-04  0.873E-02    9.40       1.0  T
   4    -50.7386148 -0.161953E-04  0.231E-02    9.40       1.0  T
   5    -50.7386157 -0.911867E-06  0.669E-03    9.40       2.9  T
   6    -50.7386158 -0.694987E-07  0.392E-03    9.40       5.0  T
   7    -50.7386158 -0.327501E-07  0.136E-03    9.40      14.5  T
speedup  0.94
cpu  time for SCC    0.01 s
wall time for SCC    0.01 s
speedup  0.99
cpu  time for grad    0.01 s
wall time for grad    0.01 s
 E :    -50.45683780  G :  0.021187    pred/act E change: -0.831D-03 -0.125D-02
Maxdispl :   0.4310   ||displ|| :   0.6607   Lambda : -0.217D-02
Largest |displ|/coords:  0.4310 (   5)  0.2042 (   1)  0.1969 (  29)
................................................................................
.............................. CYCLE   38 ......................................
................................................................................
   1    -50.7189380 -0.507189E+02  0.389E-01    9.13       0.0  T
   2    -50.7191795 -0.241492E-03  0.289E-01    9.13       1.0  T
   3    -50.7192695 -0.899644E-04  0.975E-02    9.10       1.0  T
   4    -50.7192961 -0.266572E-04  0.251E-02    9.07       1.0  T
   5    -50.7192972 -0.112320E-05  0.866E-03    9.07       2.3  T
   6    -50.7192974 -0.120551E-06  0.486E-03    9.07       4.0  T
   7    -50.7192974 -0.378639E-07  0.130E-03    9.07      15.1  T
speedup  1.09
cpu  time for SCC    0.01 s
wall time for SCC    0.01 s
speedup  0.99
cpu  time for grad    0.01 s
wall time for grad    0.01 s
 E :    -50.45586682  G :  0.055368    pred/act E change: -0.135D-02  0.971D-03
Maxdispl :   0.1780   ||displ|| :   0.4529   Lambda : -0.109D-01
Largest |displ|/coords:  0.1780 (   2)  0.1713 (  10)  0.1615 (   6)
................................................................................
.............................. CYCLE   39 ......................................
................................................................................
   1    -50.7598270 -0.507598E+02  0.376E-01    9.44       0.0  T
   2    -50.7599683 -0.141364E-03  0.280E-01    9.42       1.0  T
   3    -50.7600590 -0.906422E-04  0.699E-02    9.37       1.0  T
   4    -50.7600721 -0.130867E-04  0.271E-02    9.40       1.0  T
   5    -50.7600735 -0.138719E-05  0.704E-03    9.41       2.8  T
   6    -50.7600735 -0.158249E-07  0.372E-03    9.41       5.3  T
   7    -50.7600735 -0.251358E-07  0.710E-04    9.41      27.6  T
speedup  0.97
cpu  time for SCC    0.01 s
wall time for SCC    0.01 s
speedup  1.00
cpu  time for grad    0.01 s
wall time for grad    0.01 s
 E :    -50.45354332  G :  0.093999    pred/act E change: -0.156D-02  0.232D-02
Maxdispl :   0.1378   ||displ|| :   0.4018   Lambda : -0.163D-01
Largest |displ|/coords:  0.1378 (   2)  0.1330 (  10)  0.1214 (  25)
................................................................................
.............................. CYCLE   40 ......................................
................................................................................
   1    -50.7229280 -0.507229E+02  0.370E-01    9.04       0.0  T
   2    -50.7231760 -0.248081E-03  0.268E-01    9.12       1.0  T
   3    -50.7233034 -0.127338E-03  0.883E-02    9.24       1.0  T
   4    -50.7233209 -0.174844E-04  0.284E-02    9.19       1.0  T
   5    -50.7233223 -0.143476E-05  0.798E-03    9.17       2.5  T
   6    -50.7233224 -0.119736E-06  0.485E-03    9.17       4.0  T
   7    -50.7233224 -0.176343E-07  0.943E-04    9.18      20.8  T
speedup  0.97
cpu  time for SCC    0.01 s
wall time for SCC    0.01 s
speedup  1.00
cpu  time for grad    0.01 s
wall time for grad    0.01 s
 E :    -50.45586199  G :  0.056265    pred/act E change: -0.656D-02 -0.232D-02
Maxdispl :   0.1200   ||displ|| :   0.3507   Lambda : -0.886D-02
Largest |displ|/coords:  0.1200 (  22)  0.1062 (  14)  0.1002 (  12)
................................................................................
.............................. CYCLE   41 ......................................
................................................................................
   1    -50.7402442 -0.507402E+02  0.305E-01    9.38       0.0  T
   2    -50.7403928 -0.148664E-03  0.223E-01    9.34       1.0  T
   3    -50.7404666 -0.737502E-04  0.675E-02    9.26       1.0  T
   4    -50.7404792 -0.126308E-04  0.219E-02    9.29       1.0  T
   5    -50.7404801 -0.848848E-06  0.611E-03    9.30       3.2  T
   6    -50.7404801 -0.252394E-07  0.314E-03    9.30       6.2  T
   7    -50.7404801 -0.138640E-07  0.761E-04    9.30      25.8  T
speedup  0.97
cpu  time for SCC    0.01 s
wall time for SCC    0.01 s
speedup  0.99
cpu  time for grad    0.01 s
wall time for grad    0.01 s
 E :    -50.45632090  G :  0.056812    pred/act E change: -0.948D-02 -0.459D-03
Maxdispl :   0.2400   ||displ|| :   0.3753   Lambda : -0.924D-02
Largest |displ|/coords:  0.2400 (  22)  0.1162 (  13)  0.0963 (  24)
................................................................................
.............................. CYCLE   42 ......................................
................................................................................
   1    -50.7410426 -0.507410E+02  0.331E-01    9.20       0.0  T
   2    -50.7411394 -0.967709E-04  0.240E-01    9.22       1.0  T
   3    -50.7411877 -0.482777E-04  0.517E-02    9.24       1.0  T
   4    -50.7411980 -0.102952E-04  0.138E-02    9.22       1.4  T
   5    -50.7411983 -0.318332E-06  0.500E-03    9.21       3.9  T
   6    -50.7411983 -0.135816E-07  0.245E-03    9.21       8.0  T
speedup  1.11
cpu  time for SCC    0.01 s
wall time for SCC    0.01 s
speedup  1.05
cpu  time for grad    0.01 s
wall time for grad    0.01 s
 E :    -50.45535888  G :  0.069190    pred/act E change: -0.497D-02  0.962D-03
Maxdispl :   0.1705   ||displ|| :   0.3528   Lambda : -0.115D-01
Largest |displ|/coords:  0.1705 (  22)  0.1155 (  13)  0.0953 (   3)
................................................................................
.............................. CYCLE   43 ......................................
................................................................................
   1    -50.7341409 -0.507341E+02  0.340E-01    9.22       0.0  T
   2    -50.7342320 -0.910859E-04  0.247E-01    9.22       1.0  T
   3    -50.7342741 -0.421308E-04  0.521E-02    9.22       1.0  T
   4    -50.7342843 -0.102091E-04  0.140E-02    9.23       1.4  T
   5    -50.7342847 -0.327022E-06  0.476E-03    9.23       4.1  T
   6    -50.7342847 -0.182570E-07  0.208E-03    9.23       9.4  T
speedup  1.07
cpu  time for SCC    0.01 s
wall time for SCC    0.01 s
speedup  0.97
cpu  time for grad    0.01 s
wall time for grad    0.01 s
 E :    -50.45678833  G :  0.048780    pred/act E change: -0.527D-02 -0.143D-02
Maxdispl :   0.0846   ||displ|| :   0.1789   Lambda : -0.381D-02
Largest |displ|/coords:  0.0846 (   3)  0.0660 (  22)  0.0511 (  13)
................................................................................
.............................. CYCLE   44 ......................................
................................................................................
   1    -50.7393294 -0.507393E+02  0.175E-01    9.29       0.0  T
   2    -50.7393609 -0.315072E-04  0.131E-01    9.28       1.0  T
   3    -50.7393758 -0.149433E-04  0.369E-02    9.27       1.0  T
   4    -50.7393792 -0.331547E-05  0.108E-02    9.27       1.8  T
   5    -50.7393794 -0.256542E-06  0.273E-03    9.27       7.2  T
   6    -50.7393794 -0.623103E-08  0.168E-03    9.27      11.7  T
speedup  0.93
cpu  time for SCC    0.00 s
wall time for SCC    0.01 s
speedup  0.98
cpu  time for grad    0.01 s
wall time for grad    0.01 s
 E :    -50.45868313  G :  0.013137    pred/act E change: -0.647D-02 -0.189D-02
Maxdispl :   0.0729   ||displ|| :   0.1654   Lambda : -0.763D-03
Largest |displ|/coords:  0.0729 (   3)  0.0672 (   6)  0.0540 (   5)
................................................................................
.............................. CYCLE   45 ......................................
................................................................................
   1    -50.7389819 -0.507390E+02  0.107E-01    9.21       0.0  T
   2    -50.7390025 -0.206166E-04  0.801E-02    9.21       1.0  T
   3    -50.7390096 -0.709385E-05  0.270E-02    9.21       1.0  T
   4    -50.7390117 -0.202350E-05  0.847E-03    9.21       2.3  T
   5    -50.7390117 -0.890547E-07  0.188E-03    9.21      10.4  T
   6    -50.7390117 -0.697990E-08  0.100E-03    9.21      19.6  T
speedup  1.11
cpu  time for SCC    0.01 s
wall time for SCC    0.01 s
speedup  1.05
cpu  time for grad    0.01 s
wall time for grad    0.01 s
 E :    -50.45855703  G :  0.015146    pred/act E change: -0.197D-02  0.126D-03
Maxdispl :   0.0540   ||displ|| :   0.0998   Lambda : -0.700D-03
Largest |displ|/coords:  0.0540 (  29)  0.0467 (   3)  0.0233 (   1)
................................................................................
.............................. CYCLE   46 ......................................
................................................................................
   1    -50.7394908 -0.507395E+02  0.760E-02    9.24       0.0  T
   2    -50.7395103 -0.194802E-04  0.566E-02    9.24       1.0  T
   3    -50.7395169 -0.666497E-05  0.268E-02    9.24       1.0  T
   4    -50.7395179 -0.983574E-06  0.703E-03    9.24       2.8  T
   5    -50.7395180 -0.576578E-07  0.182E-03    9.24      10.8  T
   6    -50.7395180 -0.645215E-08  0.910E-04    9.24      21.5  T
speedup  1.11
cpu  time for SCC    0.01 s
wall time for SCC    0.01 s
speedup  0.98
cpu  time for grad    0.01 s
wall time for grad    0.01 s
 E :    -50.45896119  G :  0.006673    pred/act E change: -0.392D-03 -0.404D-03
Maxdispl :   0.0560   ||displ|| :   0.1005   Lambda : -0.159D-03
Largest |displ|/coords:  0.0560 (   5)  0.0329 (   6)  0.0318 (   8)
................................................................................
.............................. CYCLE   47 ......................................
................................................................................
   1    -50.7388340 -0.507388E+02  0.562E-02    9.22       0.0  T
   2    -50.7388371 -0.315108E-05  0.418E-02    9.22       1.0  T
   3    -50.7388386 -0.150499E-05  0.106E-02    9.21       1.8  T
   4    -50.7388391 -0.431708E-06  0.311E-03    9.21       6.3  T
   5    -50.7388391 -0.153563E-07  0.109E-03    9.22      18.1  T
   6    -50.7388391 -0.214804E-08  0.499E-04    9.22      39.3  T
speedup  0.93
cpu  time for SCC    0.00 s
wall time for SCC    0.01 s
speedup  0.98
cpu  time for grad    0.01 s
wall time for grad    0.01 s
 E :    -50.45905478  G :  0.008581    pred/act E change: -0.354D-03 -0.936D-04
Maxdispl :   0.0989   ||displ|| :   0.1877   Lambda : -0.244D-03
Largest |displ|/coords:  0.0989 (   5)  0.0751 (   6)  0.0568 (  11)
................................................................................
.............................. CYCLE   48 ......................................
................................................................................
   1    -50.7405688 -0.507406E+02  0.947E-02    9.21       0.0  T
   2    -50.7405847 -0.158882E-04  0.702E-02    9.21       1.0  T
   3    -50.7405905 -0.577937E-05  0.258E-02    9.21       1.0  T
   4    -50.7405919 -0.138477E-05  0.642E-03    9.20       3.1  T
   5    -50.7405920 -0.626438E-07  0.194E-03    9.20      10.1  T
   6    -50.7405920 -0.732129E-08  0.996E-04    9.20      19.7  T
speedup  1.09
cpu  time for SCC    0.01 s
wall time for SCC    0.01 s
speedup  1.04
cpu  time for grad    0.01 s
wall time for grad    0.01 s
 E :    -50.45920498  G :  0.008966    pred/act E change: -0.801D-04 -0.150D-03
Maxdispl :   0.1083   ||displ|| :   0.1863   Lambda : -0.227D-03
Largest |displ|/coords:  0.1083 (   5)  0.0805 (   6)  0.0609 (  11)
................................................................................
.............................. CYCLE   49 ......................................
................................................................................
   1    -50.7396133 -0.507396E+02  0.857E-02    9.17       0.0  T
   2    -50.7396165 -0.325069E-05  0.638E-02    9.18       1.0  T
   3    -50.7396183 -0.180558E-05  0.114E-02    9.19       1.7  T
   4    -50.7396188 -0.446847E-06  0.373E-03    9.18       5.3  T
   5    -50.7396188 -0.186480E-07  0.106E-03    9.18      18.5  T
   6    -50.7396188 -0.186384E-08  0.572E-04    9.18      34.3  T
speedup  0.93
cpu  time for SCC    0.00 s
wall time for SCC    0.01 s
speedup  0.98
cpu  time for grad    0.01 s
wall time for grad    0.01 s
 E :    -50.45935141  G :  0.006987    pred/act E change: -0.126D-03 -0.146D-03
Maxdispl :   0.0736   ||displ|| :   0.1288   Lambda : -0.153D-03
Largest |displ|/coords:  0.0736 (   6)  0.0546 (   5)  0.0455 (  11)
................................................................................
.............................. CYCLE   50 ......................................
................................................................................
   1    -50.7401864 -0.507402E+02  0.658E-02    9.19       0.0  T
   2    -50.7401882 -0.178420E-05  0.486E-02    9.19       1.0  T
   3    -50.7401892 -0.103562E-05  0.861E-03    9.21       2.3  T
   4    -50.7401894 -0.204604E-06  0.301E-03    9.20       6.5  T
   5    -50.7401894 -0.131552E-07  0.682E-04    9.20      28.7  T
   6    -50.7401894 -0.642018E-09  0.405E-04    9.20      48.5  T
speedup  0.91
cpu  time for SCC    0.00 s
wall time for SCC    0.01 s
speedup  0.97
cpu  time for grad    0.01 s
wall time for grad    0.01 s
 E :    -50.45944038  G :  0.006608    pred/act E change: -0.117D-03 -0.890D-04
Maxdispl :   0.0508   ||displ|| :   0.1089   Lambda : -0.112D-03
Largest |displ|/coords:  0.0508 (   6)  0.0439 (  11)  0.0367 (   5)
................................................................................
.............................. CYCLE   51 ......................................
................................................................................
   1    -50.7402036 -0.507402E+02  0.532E-02    9.22       0.0  T
   2    -50.7402051 -0.148326E-05  0.390E-02    9.23       1.0  T
   3    -50.7402058 -0.715772E-06  0.788E-03    9.24       2.5  T
   4    -50.7402060 -0.173561E-06  0.236E-03    9.24       8.3  T
   5    -50.7402060 -0.105630E-07  0.586E-04    9.24      33.5  T
speedup  1.09
cpu  time for SCC    0.00 s
wall time for SCC    0.00 s
speedup  1.05
cpu  time for grad    0.01 s
wall time for grad    0.01 s
 E :    -50.45952050  G :  0.005952    pred/act E change: -0.776D-04 -0.801D-04
Maxdispl :   0.0793   ||displ|| :   0.1562   Lambda : -0.160D-03
Largest |displ|/coords:  0.0793 (   6)  0.0538 (  11)  0.0493 (   5)
................................................................................
.............................. CYCLE   52 ......................................
................................................................................
   1    -50.7385345 -0.507385E+02  0.764E-02    9.26       0.0  T
   2    -50.7385388 -0.431882E-05  0.561E-02    9.28       1.0  T
   3    -50.7385409 -0.206658E-05  0.123E-02    9.30       1.6  T
   4    -50.7385414 -0.504082E-06  0.404E-03    9.30       4.8  T
   5    -50.7385414 -0.324759E-07  0.110E-03    9.30      17.9  T
   6    -50.7385414 -0.174111E-08  0.701E-04    9.30      28.0  T
speedup  1.13
cpu  time for SCC    0.01 s
wall time for SCC    0.01 s
speedup  1.06
cpu  time for grad    0.01 s
wall time for grad    0.01 s
 E :    -50.45961329  G :  0.005338    pred/act E change: -0.567D-04 -0.928D-04
Maxdispl :   0.0508   ||displ|| :   0.0899   Lambda : -0.945D-04
Largest |displ|/coords:  0.0508 (   6)  0.0323 (   1)  0.0323 (   7)

generating ANC from model Hessian ...
 Shifting diagonal of input Hessian by   5.163390816844185E-003
 Lowest  eigenvalues of input Hessian
    0.005000   -0.000000   -0.000000   -0.000000    0.000000    0.000000
    0.000000    0.005473    0.005707    0.005879    0.006252    0.006473
    0.007325    0.007746    0.008064    0.008660    0.009635    0.010021
 Highest eigenvalues
    1.395763    1.402668    1.467758    2.717691    3.431899    3.603658
 
cpu  time for ANC gen    0.01 s
wall time for ANC gen    0.01 s
................................................................................
.............................. CYCLE   53 ......................................
................................................................................
   1    -50.7392064 -0.507392E+02  0.524E-02    9.32       0.0  T
   2    -50.7392084 -0.203816E-05  0.386E-02    9.33       1.0  T
   3    -50.7392096 -0.115900E-05  0.800E-03    9.34       2.5  T
   4    -50.7392098 -0.230743E-06  0.241E-03    9.34       8.1  T
   5    -50.7392098 -0.134138E-07  0.886E-04    9.34      22.1  T
   6    -50.7392098 -0.114400E-08  0.470E-04    9.34      41.7  T
speedup  0.94
cpu  time for SCC    0.00 s
wall time for SCC    0.01 s
speedup  1.01
cpu  time for grad    0.01 s
wall time for grad    0.01 s
 E :    -50.45965272  G :  0.005566    pred/act E change:  0.000D+00 -0.394D-04
Maxdispl :   0.0778   ||displ|| :   0.1022   Lambda : -0.125D-03
Largest |displ|/coords:  0.0778 (   6)  0.0306 (   2)  0.0289 (   7)
................................................................................
.............................. CYCLE   54 ......................................
................................................................................
   1    -50.7389275 -0.507389E+02  0.698E-02    9.33       0.0  T
   2    -50.7389282 -0.764441E-06  0.526E-02    9.33       1.0  T
   3    -50.7389290 -0.757491E-06  0.490E-03    9.32       4.0  T
   4    -50.7389291 -0.806273E-07  0.153E-03    9.32      12.8  T
   5    -50.7389291 -0.382242E-08  0.645E-04    9.32      30.4  T
speedup  1.11
cpu  time for SCC    0.00 s
wall time for SCC    0.00 s
speedup  1.04
cpu  time for grad    0.01 s
wall time for grad    0.01 s
 E :    -50.45973968  G :  0.002708    pred/act E change:  0.000D+00 -0.870D-04
Maxdispl :   0.0908   ||displ|| :   0.1515   Lambda : -0.113D-03
Largest |displ|/coords:  0.0908 (   6)  0.0657 (   2)  0.0539 (   3)
................................................................................
.............................. CYCLE   55 ......................................
................................................................................
   1    -50.7383420 -0.507383E+02  0.101E-01    9.31       0.0  T
   2    -50.7383435 -0.148628E-05  0.756E-02    9.31       1.0  T
   3    -50.7383445 -0.993607E-06  0.714E-03    9.30       2.7  T
   4    -50.7383447 -0.235292E-06  0.224E-03    9.30       8.8  T
   5    -50.7383447 -0.540241E-08  0.807E-04    9.31      24.3  T
   6    -50.7383447 -0.564476E-09  0.360E-04    9.31      54.5  T
speedup  0.93
cpu  time for SCC    0.00 s
wall time for SCC    0.01 s
speedup  1.00
cpu  time for grad    0.01 s
wall time for grad    0.01 s
 E :    -50.45980317  G :  0.004657    pred/act E change: -0.633D-04 -0.635D-04
Maxdispl :   0.0574   ||displ|| :   0.1140   Lambda : -0.549D-04
Largest |displ|/coords:  0.0574 (   6)  0.0548 (   2)  0.0452 (   3)
................................................................................
.............................. CYCLE   56 ......................................
................................................................................
   1    -50.7383511 -0.507384E+02  0.617E-02    9.30       0.0  T
   2    -50.7383517 -0.595097E-06  0.462E-02    9.30       1.0  T
   3    -50.7383521 -0.417697E-06  0.463E-03    9.29       4.2  T
   4    -50.7383522 -0.923589E-07  0.152E-03    9.29      12.9  T
   5    -50.7383522 -0.299823E-08  0.525E-04    9.29      37.3  T
speedup  1.09
cpu  time for SCC    0.00 s
wall time for SCC    0.00 s
speedup  1.03
cpu  time for grad    0.01 s
wall time for grad    0.01 s
 E :    -50.45984287  G :  0.004110    pred/act E change: -0.576D-04 -0.397D-04
Maxdispl :   0.0904   ||displ|| :   0.1885   Lambda : -0.780D-04
Largest |displ|/coords:  0.0904 (   2)  0.0822 (   6)  0.0795 (   3)
................................................................................
.............................. CYCLE   57 ......................................
................................................................................
   1    -50.7386799 -0.507387E+02  0.911E-02    9.28       0.0  T
   2    -50.7386812 -0.134177E-05  0.682E-02    9.28       1.0  T
   3    -50.7386822 -0.937667E-06  0.616E-03    9.28       3.2  T
   4    -50.7386824 -0.198496E-06  0.243E-03    9.28       8.1  T
   5    -50.7386824 -0.841533E-08  0.797E-04    9.28      24.6  T
speedup  1.09
cpu  time for SCC    0.00 s
wall time for SCC    0.00 s
speedup  1.03
cpu  time for grad    0.01 s
wall time for grad    0.01 s
 E :    -50.45989087  G :  0.003056    pred/act E change: -0.278D-04 -0.480D-04
Maxdispl :   0.0638   ||displ|| :   0.1115   Lambda : -0.314D-04
Largest |displ|/coords:  0.0638 (   2)  0.0428 (   3)  0.0418 (   6)
................................................................................
.............................. CYCLE   58 ......................................
................................................................................
   1    -50.7391109 -0.507391E+02  0.556E-02    9.28       0.0  T
   2    -50.7391114 -0.475360E-06  0.418E-02    9.28       1.0  T
   3    -50.7391117 -0.330152E-06  0.371E-03    9.28       5.3  T
   4    -50.7391118 -0.760795E-07  0.162E-03    9.28      12.1  T
   5    -50.7391118 -0.367057E-08  0.454E-04    9.28      43.2  T
   6    -50.7391118 -0.219330E-09  0.265E-04    9.28      74.1  T
speedup  0.93
cpu  time for SCC    0.00 s
wall time for SCC    0.01 s
speedup  0.94
cpu  time for grad    0.01 s
wall time for grad    0.01 s
 E :    -50.45991438  G :  0.002423    pred/act E change: -0.404D-04 -0.235D-04
Maxdispl :   0.0897   ||displ|| :   0.1447   Lambda : -0.341D-04
Largest |displ|/coords:  0.0897 (   2)  0.0609 (   3)  0.0455 (   9)
................................................................................
.............................. CYCLE   59 ......................................
................................................................................
   1    -50.7397471 -0.507397E+02  0.663E-02    9.28       0.0  T
   2    -50.7397477 -0.595325E-06  0.497E-02    9.28       1.0  T
   3    -50.7397481 -0.361606E-06  0.493E-03    9.29       4.0  T
   4    -50.7397482 -0.998927E-07  0.195E-03    9.28      10.0  T
   5    -50.7397482 -0.416875E-08  0.477E-04    9.28      41.2  T
   6    -50.7397482 -0.226763E-09  0.309E-04    9.28      63.5  T
speedup  1.11
cpu  time for SCC    0.01 s
wall time for SCC    0.01 s
speedup  1.01
cpu  time for grad    0.01 s
wall time for grad    0.01 s
 E :    -50.45993595  G :  0.001738    pred/act E change: -0.159D-04 -0.216D-04
Maxdispl :   0.0595   ||displ|| :   0.0875   Lambda : -0.112D-04
Largest |displ|/coords:  0.0595 (   2)  0.0365 (   3)  0.0307 (   9)
................................................................................
.............................. CYCLE   60 ......................................
................................................................................
   1    -50.7396595 -0.507397E+02  0.406E-02    9.29       0.0  T
   2    -50.7396596 -0.178538E-06  0.304E-02    9.29       1.0  T
   3    -50.7396598 -0.133627E-06  0.302E-03    9.29       6.5  T
   4    -50.7396598 -0.262373E-07  0.118E-03    9.29      16.6  T
   5    -50.7396598 -0.136814E-08  0.296E-04    9.29      66.3  T
   6    -50.7396598 -0.104968E-09  0.197E-04    9.29      99.4  T
speedup  0.94
cpu  time for SCC    0.00 s
wall time for SCC    0.01 s
speedup  1.01
cpu  time for grad    0.01 s
wall time for grad    0.01 s
 E :    -50.45994378  G :  0.001473    pred/act E change: -0.174D-04 -0.783D-05
Maxdispl :   0.0544   ||displ|| :   0.0760   Lambda : -0.998D-05
Largest |displ|/coords:  0.0544 (   2)  0.0343 (   3)  0.0261 (   9)
................................................................................
.............................. CYCLE   61 ......................................
................................................................................
   1    -50.7398613 -0.507399E+02  0.309E-02    9.29       0.0  T
   2    -50.7398615 -0.160725E-06  0.229E-02    9.29       1.0  T
   3    -50.7398616 -0.110103E-06  0.310E-03    9.30       6.3  T
   4    -50.7398616 -0.219658E-07  0.108E-03    9.30      18.2  T
   5    -50.7398616 -0.120015E-08  0.266E-04    9.30      73.8  T
   6    -50.7398616 -0.105800E-09  0.171E-04    9.30     114.7  T
speedup  0.94
cpu  time for SCC    0.00 s
wall time for SCC    0.01 s
speedup  1.01
cpu  time for grad    0.01 s
wall time for grad    0.01 s
 E :    -50.45995006  G :  0.001585    pred/act E change: -0.564D-05 -0.628D-05
Maxdispl :   0.0598   ||displ|| :   0.0798   Lambda : -0.757D-05
Largest |displ|/coords:  0.0598 (   2)  0.0374 (   3)  0.0227 (   9)
................................................................................
.............................. CYCLE   62 ......................................
................................................................................
   1    -50.7393615 -0.507394E+02  0.331E-02    9.29       0.0  T
   2    -50.7393616 -0.999745E-07  0.247E-02    9.30       1.0  T
   3    -50.7393617 -0.794161E-07  0.226E-03    9.30       8.7  T
   4    -50.7393617 -0.120524E-07  0.692E-04    9.30      28.3  T
   5    -50.7393617 -0.765269E-09  0.240E-04    9.30      81.9  T
speedup  0.87
cpu  time for SCC    0.00 s
wall time for SCC    0.00 s
speedup  0.99
cpu  time for grad    0.01 s
wall time for grad    0.01 s
 E :    -50.45995483  G :  0.001308    pred/act E change: -0.502D-05 -0.477D-05
Maxdispl :   0.0348   ||displ|| :   0.0525   Lambda : -0.686D-05
Largest |displ|/coords:  0.0348 (   2)  0.0252 (   6)  0.0194 (   3)
................................................................................
.............................. CYCLE   63 ......................................
................................................................................
   1    -50.7393762 -0.507394E+02  0.218E-02    9.30       0.0  T
   2    -50.7393763 -0.943514E-07  0.163E-02    9.30       1.2  T
   3    -50.7393764 -0.702388E-07  0.187E-03    9.30      10.5  T
   4    -50.7393764 -0.123261E-07  0.752E-04    9.30      26.1  T
   5    -50.7393764 -0.654794E-09  0.187E-04    9.30     104.7  T
speedup  0.89
cpu  time for SCC    0.00 s
wall time for SCC    0.00 s
speedup  1.00
cpu  time for grad    0.01 s
wall time for grad    0.01 s
 E :    -50.45995957  G :  0.001121    pred/act E change: -0.381D-05 -0.474D-05
Maxdispl :   0.0441   ||displ|| :   0.0617   Lambda : -0.595D-05
Largest |displ|/coords:  0.0441 (   2)  0.0284 (   3)  0.0192 (   6)
................................................................................
.............................. CYCLE   64 ......................................
................................................................................
   1    -50.7391857 -0.507392E+02  0.246E-02    9.30       0.0  T
   2    -50.7391858 -0.647899E-07  0.185E-02    9.30       1.1  T
   3    -50.7391858 -0.644047E-07  0.150E-03    9.30      13.1  T
   4    -50.7391858 -0.547963E-08  0.522E-04    9.30      37.5  T
   5    -50.7391858 -0.425089E-09  0.186E-04    9.30     105.5  T
speedup  1.11
cpu  time for SCC    0.00 s
wall time for SCC    0.00 s
speedup  1.01
cpu  time for grad    0.01 s
wall time for grad    0.01 s
[...]
Largest |displ|/coords:  0.0561 (   2)  0.0331 (   3)  0.0168 (   9)
................................................................................
.............................. CYCLE   66 ......................................
................................................................................
   1    -50.7391768 -0.507392E+02  0.305E-02    9.30       0.0  T
   2    -50.7391769 -0.101114E-06  0.228E-02    9.30       1.0  T
   3    -50.7391770 -0.708655E-07  0.247E-03    9.30       7.9  T
   4    -50.7391770 -0.144517E-07  0.728E-04    9.30      26.9  T
   5    -50.7391770 -0.707253E-09  0.210E-04    9.30      93.3  T
speedup  0.89
cpu  time for SCC    0.00 s
wall time for SCC    0.00 s
speedup  1.01
cpu  time for grad    0.01 s
wall time for grad    0.01 s
 E :    -50.45996960  G :  0.001016    pred/act E change: -0.221D-05 -0.285D-05
Maxdispl :   0.0489   ||displ|| :   0.0614   Lambda : -0.349D-05
Largest |displ|/coords:  0.0489 (   2)  0.0238 (   3)  0.0136 (   9)
................................................................................
.............................. CYCLE   67 ......................................
................................................................................
   1    -50.7393152 -0.507393E+02  0.275E-02    9.30       0.0  T
   2    -50.7393153 -0.101462E-06  0.204E-02    9.30       1.0  T
   3    -50.7393154 -0.603630E-07  0.265E-03    9.30       7.4  T
   4    -50.7393154 -0.156616E-07  0.775E-04    9.30      25.3  T
   5    -50.7393154 -0.673111E-09  0.186E-04    9.30     105.2  T
speedup  0.89
cpu  time for SCC    0.00 s
wall time for SCC    0.00 s
speedup  1.01
cpu  time for grad    0.01 s
wall time for grad    0.01 s
 E :    -50.45997196  G :  0.000716    pred/act E change: -0.202D-05 -0.236D-05
Maxdispl :   0.0453   ||displ|| :   0.0552   Lambda : -0.212D-05
Largest |displ|/coords:  0.0453 (   2)  0.0225 (   3)  0.0134 (   9)
................................................................................
.............................. CYCLE   68 ......................................
................................................................................
   1    -50.7392979 -0.507393E+02  0.247E-02    9.30       0.0  T
   2    -50.7392980 -0.579852E-07  0.185E-02    9.30       1.1  T
   3    -50.7392980 -0.421419E-07  0.174E-03    9.30      11.3  T
   4    -50.7392980 -0.839361E-08  0.592E-04    9.30      33.1  T
   5    -50.7392980 -0.402586E-09  0.166E-04    9.30     117.8  T
speedup  0.89
cpu  time for SCC    0.00 s
wall time for SCC    0.00 s
speedup  1.00
cpu  time for grad    0.01 s
wall time for grad    0.01 s
 E :    -50.45997332  G :  0.000633    pred/act E change: -0.175D-05 -0.136D-05
Maxdispl :   0.0136   ||displ|| :   0.0179   Lambda : -0.125D-05
Largest |displ|/coords:  0.0136 (   2)  0.0053 (   8)  0.0049 (   4)
................................................................................
.............................. CYCLE   69 ......................................
................................................................................
   1    -50.7394622 -0.507395E+02  0.916E-03    9.30       0.0  T
   2    -50.7394622 -0.128654E-07  0.683E-03    9.30       2.9  T
   3    -50.7394623 -0.105919E-07  0.829E-04    9.30      23.7  T
   4    -50.7394623 -0.137734E-08  0.316E-04    9.30      62.0  T
speedup  0.83
cpu  time for SCC    0.00 s
wall time for SCC    0.00 s
speedup  1.00
cpu  time for grad    0.01 s
wall time for grad    0.01 s
 E :    -50.45997401  G :  0.000554    pred/act E change: -0.106D-05 -0.686D-06
Maxdispl :   0.0154   ||displ|| :   0.0166   Lambda : -0.641D-06
Largest |displ|/coords:  0.0154 (   2)  0.0029 (   3)  0.0024 (   4)
................................................................................
.............................. CYCLE   70 ......................................
................................................................................
   1    -50.7394270 -0.507394E+02  0.847E-03    9.30       0.0  T
   2    -50.7394270 -0.920969E-08  0.637E-03    9.30       3.1  T
   3    -50.7394270 -0.747386E-08  0.620E-04    9.30      31.6  T
   4    -50.7394270 -0.127261E-08  0.250E-04    9.30      78.3  T
speedup  1.08
cpu  time for SCC    0.00 s
wall time for SCC    0.00 s
speedup  1.07
cpu  time for grad    0.01 s
wall time for grad    0.01 s
 E :    -50.45997439  G :  0.000381    pred/act E change: -0.624D-06 -0.386D-06
Maxdispl :   0.0040   ||displ|| :   0.0077   Lambda : -0.434D-06
Largest |displ|/coords:  0.0040 (   2)  0.0029 (   3)  0.0027 (   6)
................................................................................
.............................. CYCLE   71 ......................................
................................................................................
   1    -50.7394293 -0.507394E+02  0.343E-03    9.30       0.0  T
   2    -50.7394293 -0.698560E-08  0.247E-03    9.30       7.9  T
   3    -50.7394293 -0.247618E-08  0.656E-04    9.30      29.9  T
   4    -50.7394294 -0.695003E-09  0.169E-04    9.30     116.3  T
speedup  1.05
cpu  time for SCC    0.00 s
wall time for SCC    0.00 s
speedup  0.98
cpu  time for grad    0.01 s
wall time for grad    0.01 s
 E :    -50.45997468  G :  0.000224    pred/act E change: -0.320D-06 -0.285D-06
Maxdispl :   0.0061   ||displ|| :   0.0094   Lambda : -0.278D-06
Largest |displ|/coords:  0.0061 (   2)  0.0044 (   3)  0.0028 (   6)
................................................................................
.............................. CYCLE   72 ......................................
................................................................................
   1    -50.7394437 -0.507394E+02  0.404E-03    9.30       0.0  T
   2    -50.7394437 -0.414774E-08  0.301E-03    9.30       6.5  T
   3    -50.7394437 -0.294209E-08  0.472E-04    9.30      41.6  T
   4    -50.7394438 -0.523507E-09  0.161E-04    9.30     122.1  T
speedup  1.11
cpu  time for SCC    0.00 s
wall time for SCC    0.00 s
speedup  0.99
cpu  time for grad    0.01 s
wall time for grad    0.01 s
 E :    -50.45997487  G :  0.000252    pred/act E change: -0.217D-06 -0.187D-06
Maxdispl :   0.0066   ||displ|| :   0.0101   Lambda : -0.194D-06
Largest |displ|/coords:  0.0066 (   2)  0.0042 (   3)  0.0030 (   6)
................................................................................
.............................. CYCLE   73 ......................................
................................................................................
   1    -50.7394678 -0.507395E+02  0.368E-03    9.30       0.0  T
   2    -50.7394678 -0.243149E-08  0.274E-03    9.30       7.2  T
   3    -50.7394678 -0.204996E-08  0.302E-04    9.30      64.9  T
   4    -50.7394678 -0.248747E-09  0.878E-05    9.30     223.4  T
speedup  1.11
cpu  time for SCC    0.00 s
wall time for SCC    0.00 s
speedup  1.00
cpu  time for grad    0.01 s
wall time for grad    0.01 s
 E :    -50.45997501  G :  0.000234    pred/act E change: -0.139D-06 -0.143D-06
Maxdispl :   0.0083   ||displ|| :   0.0108   Lambda : -0.158D-06
Largest |displ|/coords:  0.0083 (   2)  0.0038 (   3)  0.0030 (   1)
................................................................................
.............................. CYCLE   74 ......................................
................................................................................
   1    -50.7394691 -0.507395E+02  0.404E-03    9.30       0.0  T
   2    -50.7394691 -0.253648E-08  0.301E-03    9.30       6.5  T
   3    -50.7394691 -0.192583E-08  0.360E-04    9.30      54.4  T
   4    -50.7394691 -0.308617E-09  0.122E-04    9.30     160.3  T
speedup  1.11
cpu  time for SCC    0.00 s
wall time for SCC    0.00 s
speedup  1.00
cpu  time for grad    0.01 s
wall time for grad    0.01 s
 E :    -50.45997511  G :  0.000138    pred/act E change: -0.970D-07 -0.104D-06
Maxdispl :   0.0036   ||displ|| :   0.0063   Lambda : -0.774D-07
Largest |displ|/coords:  0.0036 (   3)  0.0035 (   2)  0.0024 (   1)
................................................................................
.............................. CYCLE   75 ......................................
................................................................................
   1    -50.7394760 -0.507395E+02  0.255E-03    9.30       0.0  T
   2    -50.7394760 -0.148822E-08  0.190E-03    9.30      10.3  T
   3    -50.7394760 -0.875517E-09  0.287E-04    9.30      68.4  T
   4    -50.7394760 -0.212083E-09  0.852E-05    9.30     230.3  T
speedup  1.11
cpu  time for SCC    0.00 s
wall time for SCC    0.00 s
speedup  0.99
cpu  time for grad    0.01 s
wall time for grad    0.01 s
 E :    -50.45997517  G :  0.000112    pred/act E change: -0.807D-07 -0.532D-07
Maxdispl :   0.0026   ||displ|| :   0.0039   Lambda : -0.461D-07
Largest |displ|/coords:  0.0026 (   3)  0.0019 (   1)  0.0017 (   2)

   *** GEOMETRY OPTIMIZATION CONVERGED AFTER 75 ITERATIONS ***

------------------------------------------------------------------------
 total energy gain (kcal):     -0.2023
------------------------------------------------------------------------
================
 final structure:
================
$coord
        1.08789807815195        0.05127016283130       -1.64192135604460      S 
       -1.23324939392246        0.84283718523902       -0.00520402695416      O 
        0.98455362940817        1.80868478336451       -3.78767151039986      O 
        3.36044870393536        0.30063998742011       -0.15232554395427      O 
        0.63075910201332       -2.54640292020797       -2.46419920614445      O 
        1.29697671293471        1.75413925133755        6.80319621459972      O 
        0.10274571615229        2.89996703427236        7.53844215068896      H 
        2.58981009325915       -4.47412580831614        1.80000593108731      O 
        3.88651070076724       -3.19559788712377        1.83769397391453      H 
        1.84776838625979       -4.28345804462172        0.12757555074319      H 
       -3.45736574123612       -3.17871604360554       -5.08093537590572      O 
       -2.93960821812862       -4.01382782839809       -6.60347486580436      H 
       -1.92960008503443       -3.14267467935294       -3.98516466292104      H 
        3.45361559141288        4.19702606136635        2.91978947003783      O 
        3.36410802877551        2.82372066953212        1.66945462146312      H 
        2.14241658441198        2.69684929832032        5.44088478019695      H 
        5.21605349141975        4.58470476912117        3.08821985070464      H 
       -1.04001924097514       -1.72123871530837        3.96040900674263      O 
       -0.18274779905721       -0.60388041615963        5.17918291233533      H 
       -1.23277297107910       -0.21186418817095        1.66545542037898      H 
        0.21224627623982       -3.01092227259603        3.47494884816397      H 
       -3.71622341838020        1.73068632523487       -4.39861161662639      N 
       -4.57557862929335        2.95129080258131       -5.60095582975532      H 
       -1.60959096227167        1.95619569444737       -4.30758369555980      H 
       -4.29090654656241        1.97495344130863       -2.57587549792072      H 
       -3.96824810804686       -0.19025660579986       -4.90133558092981      H 
$end
 
 Bond Distances (Angstroems)
 ---------------------------
S1-O2=1.5602         S1-O3=1.4687         S1-O4=1.4439         S1-O5=1.4620         O2-S1=1.5602         O2-H20=1.0455        
O3-S1=1.4687         O4-S1=1.4439         O5-S1=1.4620         O6-H7=0.9583         O6-H16=0.9842        H7-O6=0.9583         
O8-H9=0.9638         O8-H10=0.9735        H9-O8=0.9638         H10-O8=0.9735        O11-H12=0.9589       O11-H13=0.9951       
H12-O11=0.9589       H13-O11=0.9951       O14-H15=0.9839       O14-H17=0.9591       H15-O14=0.9839       H16-O6=0.9842        
H17-O14=0.9591       O18-H19=0.9856       O18-H21=0.9853       H19-O18=0.9856       H20-O2=1.0455        H21-O18=0.9853       
N22-H23=1.0143       N22-H24=1.1222       N22-H25=1.0196       N22-H26=1.0592       H23-N22=1.0143       H24-N22=1.1222       
H25-N22=1.0196       H26-N22=1.0592       
 N  H  Rav=1.0538 sigma=0.0431  Rmin=1.0143  Rmax=1.1222     4
 O  H  Rav=0.9812 sigma=0.0238  Rmin=0.9583  Rmax=1.0455    11
 S  O  Rav=1.4837 sigma=0.0451  Rmin=1.4439  Rmax=1.5602     4
 
 selected bond angles (degree)
 --------------------
O3-S1-O2=103.29                O4-S1-O2=109.15                O4-S1-O3=113.28                O5-S1-O2=106.70                
O5-S1-O3=111.04                O5-S1-O4=112.72                H20-O2-S1=109.02               H16-O6-H7=106.05               
H10-O8-H9=103.49               
 
 selected dihedral angles (degree)
 ---------------------------------
H20-O2-S1-O3=184.82           H20-O2-S1-O4=305.61           H20-O2-S1-O5= 67.68           
 
 CMA Distance (Angstroems)
 ---------------------------
R(CMA):  1.4998

========================================================================
 FINAL SINGLEPOINT CALCULATION ON OPTIMIZED GEOMETRY
========================================================================

 Ncao       : 65
 Nao        : 64
 Nshell     : 38
 Nel        : 80
 T(el)      :   300.0
 intcut     :    25.0
 scfconv/Eh :  0.100E-05
   qconv/e  :  0.100E-03
 intneglect :  0.100E-07
 broydamp   :      0.250
 iter      E             dE          RMSdq      gap      omega  full diag
   1    -50.7394760 -0.507395E+02  0.272E-05    9.30       0.0  T
   2    -50.7394760 -0.547118E-12  0.178E-05    9.30    1099.7  T
   3    -50.7394760 -0.454747E-12  0.378E-06    9.30    5185.1  T
speedup  1.11
cpu  time for SCC    0.00 s
wall time for SCC    0.00 s

   *** convergence criteria satisfied after 3 iterations ***

          eigenvalues
 #    :          28         29         30         31         32         33         34         35
 occ. :        2.000      2.000      2.000      2.000      2.000      2.000      2.000      2.000
 eps  :       -13.346    -13.050    -12.522    -12.448    -12.257    -12.178    -11.925    -11.855
 #    :          36         37         38         39         40         41         42         43
 occ. :        2.000      2.000      2.000      2.000      2.000      0.000      0.000      0.000
 eps  :       -11.776    -11.763    -11.711    -11.674    -11.532     -2.233     -0.995     -0.060
 #    :          44         45         46         47         48         49         50         51
 occ. :        0.000      0.000      0.000      0.000      0.000      0.000      0.000      0.000
 eps  :         0.911      1.256      1.560      2.193      2.728      3.802      3.960      4.619


   #   Z            q   n(s)   n(p)   n(d)      C6AA      α(0)
   1  16 S      1.692  1.587  1.779  0.942    88.944    15.873
   2   8 O     -0.681  1.771  4.910  0.000    27.182     7.038
   3   8 O     -0.719  1.768  4.952  0.000    29.162     7.243
   4   8 O     -0.728  1.763  4.966  0.000    29.493     7.281
   5   8 O     -0.765  1.779  4.986  0.000    30.531     7.408
   6   8 O     -0.610  1.751  4.860  0.000    25.433     6.806
   7   1 H      0.281  0.719  0.000  0.000     0.780     1.387
   8   8 O     -0.605  1.743  4.862  0.000    25.303     6.789
   9   1 H      0.301  0.699  0.000  0.000     0.717     1.330
  10   1 H      0.311  0.689  0.000  0.000     0.689     1.304
  11   8 O     -0.610  1.744  4.866  0.000    25.420     6.805
  12   1 H      0.292  0.708  0.000  0.000     0.746     1.357
  13   1 H      0.338  0.662  0.000  0.000     0.616     1.233
  14   8 O     -0.613  1.746  4.867  0.000    25.501     6.816
  15   1 H      0.325  0.675  0.000  0.000     0.651     1.267
  16   1 H      0.329  0.671  0.000  0.000     0.639     1.256
  17   1 H      0.286  0.714  0.000  0.000     0.763     1.372
  18   8 O     -0.624  1.766  4.858  0.000    25.743     6.849
  19   1 H      0.337  0.663  0.000  0.000     0.621     1.238
  20   1 H      0.385  0.615  0.000  0.000     0.509     1.119
  21   1 H      0.331  0.669  0.000  0.000     0.634     1.251
  22   7 N     -0.347  1.274  4.073  0.000    28.927     7.988
  23   1 H      0.232  0.768  0.000  0.000     0.958     1.533
  24   1 H      0.313  0.687  0.000  0.000     0.670     1.279
  25   1 H      0.253  0.747  0.000  0.000     0.870     1.461
  26   1 H      0.294  0.706  0.000  0.000     0.732     1.340

 Mol. C6AA /au·bohr⁶  :       5453.661339
 Mol. C8AA /au·bohr⁸  :     117999.020571
 Mol. α(0) /au        :        106.623695

 
 Wiberg/Mayer (AO) data. WBOs > 0.1 written file <wbo>
 largest (>0.05) Wiberg bond orders for each atom
           total WBO             WBO to atom ...
     1  S   4.835    O    4 1.338    O    5 1.256    O    3 1.241    O    2 0.960
     2  O   1.907    S    1 0.960    H   20 0.636    O    4 0.085    O    5 0.082    O    3 0.066    O   18 0.062
     3  O   1.797    S    1 1.241    H   24 0.208    O    5 0.100    O    4 0.096    N   22 0.074    O    2 0.066
     4  O   1.740    S    1 1.338    O    5 0.102    O    3 0.096    O    2 0.085    H   15 0.067
     5  O   1.715    S    1 1.256    O    4 0.102    O    3 0.100    O    2 0.082    H   13 0.081
     6  O   1.875    H    7 0.919    H   16 0.823    H   19 0.068
     7  H   0.921    O    6 0.919
     8  O   1.884    H    9 0.896    H   10 0.858    H   21 0.068
     9  H   0.909    O    8 0.896
    10  H   0.903    O    8 0.858
    11  O   1.910    H   12 0.909    H   13 0.800    H   26 0.108    N   22 0.052
    12  H   0.915    O   11 0.909
    13  H   0.885    O   11 0.800    O    5 0.081
    14  O   1.872    H   17 0.915    H   15 0.825    H   16 0.067
    15  H   0.894    O   14 0.825    O    4 0.067
    16  H   0.891    O    6 0.823    O   14 0.067
    17  H   0.918    O   14 0.915
    18  O   1.973    H   21 0.821    H   19 0.817    H   20 0.200    O    2 0.062
    19  H   0.887    O   18 0.817    O    6 0.068
    20  H   0.852    O    2 0.636    O   18 0.200
    21  H   0.890    O   18 0.821    O    8 0.068
    22  N   3.501    H   23 0.943    H   25 0.924    H   26 0.801    H   24 0.684    O    3 0.074    O   11 0.052
    23  H   0.946    N   22 0.943
    24  H   0.902    N   22 0.684    O    3 0.208
    25  H   0.936    N   22 0.924
    26  H   0.914    N   22 0.801    O   11 0.108
 MOs/occ written to file <molden.input>
 
molecular dipole:
                 x           y           z       tot (Debye)
 q only:       -2.112       1.276      -1.477
   full:       -1.605       1.502      -1.692       7.050
molecular quadrupole (traceless):
                xx          xy          yy          xz          yz          zz
 q only:        3.431      -5.606      -9.558      14.650       2.425       6.127
  q+dip:        4.590      -5.768     -10.182      13.620       6.495       5.591
   full:        4.668      -5.845     -10.479      13.624       6.671       5.811

SCC energy    :     -50.7394760
rep           :       0.2793002
ES            :       0.2664526
AES           :      -0.0720269
AXC           :      -0.0093177
disp          :      -0.0189314
XB            :       0.0000000
fix           :       0.0000000
total E       :     -50.4599752
atomizationE  :       4.9902793     3131.45
(atE without considering molecular charge,
 total energy contains solvation terms)
H-L gap (eV)  :          9.2991
optimized geometry written to: xtbopt.xyz


------------------------------------------------------------------------
 * finished run on 2019/09/16 at 11:47:32.783     
------------------------------------------------------------------------
 total:
 * wall-time:     0 d,  0 h,  0 min,  2.013 sec
 *  cpu-time:     0 d,  0 h,  0 min,  1.724 sec
 * ratio c/w:     0.856 speedup
 SCF:
 * wall-time:     0 d,  0 h,  0 min,  0.373 sec
 *  cpu-time:     0 d,  0 h,  0 min,  0.130 sec
 * ratio c/w:     0.349 speedup
 ANC optimizer:
 * wall-time:     0 d,  0 h,  0 min,  1.616 sec
 *  cpu-time:     0 d,  0 h,  0 min,  1.572 sec
 * ratio c/w:     0.973 speedup

