      -----------------------------------------------------------      
     |                   =====================                   |     
     |                           x T B                           |     
     |                   =====================                   |     
     |                         S. Grimme                         |     
     |          Mulliken Center for Theoretical Chemistry        |     
     |                    University of Bonn                     |     
     |                 Version 6.0.1 (SAW181210)                 |     
      -----------------------------------------------------------      

   This program is distributed in the hope that it will be useful,
   but WITHOUT ANY WARRANTY; without even the implied warranty of
   MERCHANTABILITY or FITNESS FOR A PARTICULAR PURPOSE.
   
   FOR NON-COMMERCIAL, ACADEMIA USE ONLY.
   
   Cite this work as:
   S. Grimme, C. Bannwarth, P. Shushkov, J. Comput. Theory Chem., 2017,
   13, 1989-2009.
   C. Bannwarth, S. Ehlert and S. Grimme., ChemRxiv, 2018, preprint.
   http://doi.org/10.26434/chemrxiv.7246238.v1
   
   for sTDA-xTB:
   S. Grimme and C. Bannwarth, J. Chem. Phys., 2016, 145, 054103.
   
   in the mass-spec context:
   V. Asgeirsson, C. Bauer and S. Grimme, Chem. Sci., 2017, 8, 4879.
   
   if GBSA is used:
   P. Shushkov, F. März and S. Grimme, unpublished.
   
   for ANC optimizer:
   S. Grimme, unpublished.
   Rational Function algorithm used in ANCopt:
   F. Eckert, P. Pulay, H.-J. Werner, J. Comput. Chem., 1997, 18, 1473.
   
   with help from (in alphabetical order)
   C. Bannwarth, F. Bohle, G. Brandenburg, E. Caldeweyher, M. Checinski,
   S. Dohm, S. Ehlert, S. Ehrlich, F. März, H. Neugebauer, J. Pisarek,
   P. Pracht, P. Shushkov, and S. Spicher.
   
 * started run on 2019/09/16 at 11:45:35.232     
========================================================================
 # omp threads = 1
========================================================================
number of atoms            : 26
number of electrons        : 80
charge                     : 0
spin                       : .0
first test random number   : .7204

########################################################################
# WARNING! Please study the warnings concerning your input carefully
#  - XTBPATH is not set, using XTBHOME instead
#  - the use of '-opt' is discouraged, please use '--opt' next time
#  - the use of '-chrg' is discouraged, please use '--chrg' next time
#  - the use of '-uhf' is discouraged, please use '--uhf' next time
########################################################################

           ------------------------------------------------- 
          |                 G F N 2 - x T B                 |
          | Geometry, Frequencies, Noncovalent interactions |
          |            JCTC 2018 parametrisation            |
           ------------------------------------------------- 
      method parameters     
 k(s)        :  1.8500
 k(p)        :  2.2300
 k(d)        :  2.2300
 k(f)        :  2.0000
 kEN (H0ij)  : -2.0000
 D4 a1       :  0.5200
 D4 a2       :  5.0000
 D4 s6       :  1.0000
 D4 s8       :  2.7000
 D4 s9       :  5.0000
 alphaj      :  2.0000


            Z     q(EN)     CN     RAES       Cart. coordinates
     1  S   6.0    0.67    4.17    3.99    -1.71410     1.04005    -0.32321
     2  O   6.0   -0.33    1.22    1.80    -1.90068    -1.40368     1.06298
     3  O   6.0   -0.34    1.28    1.80     0.54192     0.99391    -2.00736
     4  O   6.0   -0.30    1.17    1.80    -4.03434     1.41978    -1.87254
     5  O   6.0   -0.31    1.16    1.80    -1.46331     3.15019     1.52410
     6  O   6.0   -0.29    2.03    1.83     0.53410     5.53227    -4.49436
     7  H   1.0    0.17    1.05    1.44     0.76138     3.87578    -3.77393
     8  H   1.0    0.15    0.97    1.43     1.84688     5.69767    -5.74490
     9  O   6.0   -0.30    2.06    1.83     4.64688    -2.45627     3.59076
    10  H   1.0    0.16    1.05    1.44     3.26429    -1.57844     4.38605
    11  H   1.0    0.15    0.97    1.43     5.91614    -2.62790     4.88464
    12  O   6.0   -0.29    2.04    1.83     0.59955    -0.08698     5.31368
    13  H   1.0    0.16    0.99    1.43     0.25491     1.67092     4.98866
    14  H   1.0    0.17    1.04    1.43    -0.55731    -1.00866     4.25217
    15  O   6.0   -0.22    2.93    2.60    -3.53193     6.33865    -1.85131
    16  H   1.0    0.14    0.99    1.43    -2.93704     6.29819    -0.08091
    17  H   1.0    0.14    1.03    1.43    -2.12855     6.60248    -3.05586
    18  H   1.0    0.14    1.03    1.43    -4.54841     4.83109    -2.28205
    19  O   6.0   -0.22    2.91    2.56     2.94847    -3.18292    -0.94948
    20  H   1.0    0.14    1.06    1.44     3.79506    -2.97574     0.70285
    21  H   1.0    0.13    1.07    1.44     1.64068    -4.51620    -0.90408
    22  H   1.0    0.15    1.08    1.44     2.27477    -1.56508    -1.59772
    23  N   5.0   -0.22    3.05    1.93    -1.00821    -6.45339    -0.57764
    24  H   1.0    0.10    0.99    1.43    -1.30911    -7.81796     0.74843
    25  H   1.0    0.11    0.99    1.43    -2.11024    -6.93445    -2.08268
    26  H   1.0    0.13    1.03    1.43    -1.78175    -4.84331     0.14372

  Z AO/shell   Hii/eV     exponent
  1     Wed Apr 25 08:07:45 CEST 2018   EN: 2.200 GM2: 0.406  GM3: 0.0800  RAES: 1.40
     1s    -10.707211    1.230000
  7     Wed Apr 25 08:07:45 CEST 2018   EN: 3.040 GM2: 0.461  GM3:-0.0640  RAES: 1.90
     2s    -16.686243    2.339881
     2p    -12.523956    2.014332
  8     Wed Apr 25 08:07:45 CEST 2018   EN: 3.440 GM2: 0.452  GM3:-0.0517  RAES: 1.80
     2s    -20.229985    2.439742
     2p    -15.503117    2.137023
 16     Tue Apr 24 11:44:34 CEST 2018   EN: 2.580 GM2: 0.340  GM3:-0.0502  RAES: 3.10
     3s    -20.029654    1.981333
     3p    -11.377694    2.025643
     3d     -0.420282    1.702555
 no old-style atom pair restraining (fixing) potential

molecular fragmentation (1/2 indicates fragments):
11111222222222222222222222
# atoms in fragment 1/2:     5    21
 fragment masses (1/2) :       96.06      109.12
CMA distance (Bohr)    :   2.639
constraining FC (au)   :  0.0500
           ------------------------------------------------- 
          |        Self-Consistent Charge Iterations        |
           ------------------------------------------------- 

 Ncao       : 65
 Nao        : 64
 Nshell     : 38
 Nel        : 80
 T(el)      :   300.0
 intcut     :    25.0
 scfconv/Eh :  0.100E-05
   qconv/e  :  0.100E-03
 intneglect :  0.100E-07
 broydamp   :      0.250
 iter      E             dE          RMSdq      gap      omega  full diag
   1    -50.5932394 -0.505932E+02  0.697E+00   10.25       0.0  T
   2    -50.6316367 -0.383973E-01  0.501E+00   10.01       1.0  T
   3    -50.6629595 -0.313228E-01  0.108E+00    7.96       1.0  T
   4    -50.6674054 -0.444591E-02  0.482E-01    7.85       1.0  T
   5    -50.6679887 -0.583375E-03  0.240E-01    7.71       1.0  T
   6    -50.6682494 -0.260643E-03  0.121E-01    7.76       1.0  T
   7    -50.6683332 -0.837824E-04  0.450E-02    7.82       1.0  T
   8    -50.6683424 -0.922201E-05  0.262E-02    7.82       1.0  T
   9    -50.6683466 -0.420415E-05  0.997E-03    7.81       2.0  T
  10    -50.6683471 -0.463824E-06  0.199E-03    7.81       9.9  T
  11    -50.6683471 -0.148487E-07  0.852E-04    7.81      23.0  T
  12    -50.6683471 -0.349215E-08  0.321E-04    7.81      61.1  T
speedup  1.01
cpu  time for SCC    0.01 s
wall time for SCC    0.01 s

   *** convergence criteria satisfied after 12 iterations ***

          eigenvalues
 #    :          28         29         30         31         32         33         34         35
 occ. :        2.000      2.000      2.000      2.000      2.000      2.000      2.000      2.000
 eps  :       -12.161    -12.118    -12.011    -11.136    -11.057    -10.764    -10.547     -9.983
 #    :          36         37         38         39         40         41         42         43
 occ. :        2.000      2.000      2.000      2.000      2.000      0.000      0.000      0.000
 eps  :        -9.836     -9.777     -9.547     -9.459     -9.407     -1.600     -0.716      0.592
 #    :          44         45         46         47         48         49         50         51
 occ. :        0.000      0.000      0.000      0.000      0.000      0.000      0.000      0.000
 eps  :         1.713      2.226      2.730      2.841      3.045      3.572      4.621      5.361


   #   Z            q   n(s)   n(p)   n(d)      C6AA      α(0)
   1  16 S      1.492  1.610  1.906  0.993    93.659    16.288
   2   8 O     -0.792  1.776  5.016  0.000    31.355     7.508
   3   8 O     -0.810  1.781  5.029  0.000    31.886     7.571
   4   8 O     -0.796  1.785  5.012  0.000    31.470     7.521
   5   8 O     -0.810  1.782  5.028  0.000    31.883     7.571
   6   8 O     -0.622  1.727  4.894  0.000    25.710     6.844
   7   1 H      0.337  0.663  0.000  0.000     0.620     1.236
   8   1 H      0.289  0.711  0.000  0.000     0.756     1.366
   9   8 O     -0.625  1.728  4.897  0.000    25.790     6.854
  10   1 H      0.343  0.657  0.000  0.000     0.605     1.221
  11   1 H      0.288  0.712  0.000  0.000     0.759     1.369
  12   8 O     -0.618  1.734  4.884  0.000    25.613     6.831
  13   1 H      0.305  0.695  0.000  0.000     0.705     1.319
  14   1 H      0.321  0.679  0.000  0.000     0.662     1.278
  15   8 O     -0.385  1.624  4.760  0.000    20.502     6.115
  16   1 H      0.413  0.587  0.000  0.000     0.461     1.067
  17   1 H      0.420  0.580  0.000  0.000     0.450     1.054
  18   1 H      0.419  0.581  0.000  0.000     0.451     1.055
  19   8 O     -0.426  1.640  4.786  0.000    21.301     6.233
  20   1 H      0.412  0.588  0.000  0.000     0.464     1.070
  21   1 H      0.395  0.605  0.000  0.000     0.494     1.104
  22   1 H      0.406  0.594  0.000  0.000     0.473     1.081
  23   7 N     -0.465  1.382  4.083  0.000    32.271     8.437
  24   1 H      0.148  0.852  0.000  0.000     1.411     1.861
  25   1 H      0.150  0.850  0.000  0.000     1.404     1.856
  26   1 H      0.211  0.789  0.000  0.000     1.050     1.605

 Mol. C6AA /au·bohr⁶  :       5523.344511
 Mol. C8AA /au·bohr⁸  :     120005.757282
 Mol. α(0) /au        :        107.314340

 
 Wiberg/Mayer (AO) data. WBOs > 0.1 written file <wbo>
 largest (>0.05) Wiberg bond orders for each atom
           total WBO             WBO to atom ...
     1  S   4.994    O    4 1.262    O    2 1.261    O    5 1.260    O    3 1.182
     2  O   1.658    S    1 1.261    O    5 0.094    O    3 0.093    O    4 0.091
     3  O   1.678    S    1 1.182    H   22 0.107    O    2 0.093    O    5 0.092    O    4 0.091    H    7 0.052
     4  O   1.653    S    1 1.262    O    5 0.104    O    2 0.091    O    3 0.091    H   18 0.070
     5  O   1.628    S    1 1.260    O    4 0.104    O    2 0.094    O    3 0.092
     6  O   1.848    H    8 0.905    H    7 0.831    H   17 0.065
     7  H   0.886    O    6 0.831    O    3 0.052
     8  H   0.917    O    6 0.905
     9  O   1.856    H   11 0.904    H   10 0.811    H   20 0.081
    10  H   0.882    O    9 0.811    O   12 0.069
    11  H   0.917    O    9 0.904
    12  O   1.871    H   13 0.889    H   14 0.854    H   10 0.069
    13  H   0.907    O   12 0.889
    14  H   0.897    O   12 0.854
    15  O   2.360    H   16 0.787    H   17 0.752    H   18 0.747
    16  H   0.829    O   15 0.787
    17  H   0.824    O   15 0.752    O    6 0.065
    18  H   0.824    O   15 0.747    O    4 0.070
    19  O   2.321    H   20 0.743    H   21 0.741    H   22 0.720
    20  H   0.830    O   19 0.743    O    9 0.081
    21  H   0.844    O   19 0.741    N   23 0.095
    22  H   0.835    O   19 0.720    O    3 0.107
    23  N   3.021    H   25 0.974    H   24 0.973    H   26 0.914    H   21 0.095
    24  H   0.978    N   23 0.973
    25  H   0.978    N   23 0.974
    26  H   0.955    N   23 0.914
 MOs/occ written to file <molden.input>
 
molecular dipole:
                 x           y           z       tot (Debye)
 q only:        1.618       0.617      -1.082
   full:        1.278       0.460      -0.897       4.138
molecular quadrupole (traceless):
                xx          xy          yy          xz          yz          zz
 q only:       -9.183     -15.211      22.217       3.144      -9.587     -13.034
  q+dip:       -8.551      -6.764      19.205       3.004      -9.594     -10.654
   full:       -8.719      -6.881      19.245       3.124      -9.681     -10.526

SCC energy    :     -50.6683471
rep           :       0.2897918
ES            :       0.3511883
AES           :      -0.0832897
AXC           :      -0.0089442
disp          :      -0.0181881
XB            :       0.0000000
fix           :       0.0000000
total E       :     -50.3783775
atomizationE  :       4.9086816     3080.24
(atE without considering molecular charge,
 total energy contains solvation terms)
H-L gap (eV)  :          7.8066
           ------------------------------------------------- 
          |                 ===============                 |
          |                   A N C O P T                   |
          |                 ===============                 |
          |          Approximate Normal Coordinate          |
          |           Rational Function Optimizer           |
           ------------------------------------------------- 
dumping coords to <xtbopt.coord> and <xtbopt.log>
 optlevel               2
 Maxcycle             520
 Maxmicro              25
 Econv         1.000000000000000E-007
 Gconv         2.000000000000000E-004
 Maxdispl       1.00000000000000     
 Hlow          5.000000000000000E-003
 S6             20.0000000000000     
 Nvar               72

generating ANC from model Hessian ...
 Shifting diagonal of input Hessian by   5.140591624193747E-003
 Lowest  eigenvalues of input Hessian
    0.005000   -0.000000   -0.000000   -0.000000   -0.000000    0.000000
    0.000000    0.005224    0.005333    0.005455    0.005543    0.005648
    0.005843    0.006074    0.006417    0.006613    0.006985    0.007267
 Highest eigenvalues
    1.552354    1.554361    1.562319    3.073110    3.077889    3.084852
 
cpu  time for ANC gen    0.01 s
wall time for ANC gen    0.01 s
................................................................................
.............................. CYCLE    1 ......................................
................................................................................
   1    -50.6683471 -0.506683E+02  0.837E-05    7.81       0.0  T
   2    -50.6683471 -0.157101E-10  0.649E-05    7.81     302.3  T
   3    -50.6683471 -0.127471E-10  0.316E-05    7.81     620.0  T
speedup  1.03
cpu  time for SCC    0.00 s
wall time for SCC    0.00 s
speedup  0.98
cpu  time for grad    0.01 s
wall time for grad    0.01 s
 E :    -50.37837747  G :  0.119469    pred/act E change:  0.000D+00  0.112D-07
Maxdispl :   0.2279   ||displ|| :   0.5740   Lambda : -0.340D-01
Largest |displ|/coords:  0.2279 (  27)  0.2210 (  29)  0.1913 (  26)
................................................................................
.............................. CYCLE    2 ......................................
................................................................................
   1    -50.6792361 -0.506792E+02  0.424E-01    8.43       0.0  T
   2    -50.6794227 -0.186606E-03  0.316E-01    8.51       1.0  T
   3    -50.6795269 -0.104188E-03  0.718E-02    8.69       1.0  T
   4    -50.6795465 -0.196934E-04  0.229E-02    8.68       1.0  T
   5    -50.6795474 -0.850915E-06  0.851E-03    8.67       2.3  T
   6    -50.6795476 -0.180197E-06  0.452E-03    8.67       4.3  T
   7    -50.6795477 -0.827473E-07  0.210E-03    8.67       9.4  T
speedup  1.11
cpu  time for SCC    0.01 s
wall time for SCC    0.01 s
speedup  1.00
cpu  time for grad    0.01 s
wall time for grad    0.01 s
 E :    -50.40903576  G :  0.079273    pred/act E change:  0.000D+00 -0.307D-01
Maxdispl :   0.2976   ||displ|| :   0.6418   Lambda : -0.276D-01
Largest |displ|/coords:  0.2976 (  29)  0.2485 (  27)  0.1980 (  26)
................................................................................
.............................. CYCLE    3 ......................................
................................................................................
   1    -50.6875171 -0.506875E+02  0.467E-01    8.95       0.0  T
   2    -50.6882221 -0.705016E-03  0.336E-01    9.01       1.0  T
   3    -50.6885472 -0.325124E-03  0.121E-01    9.12       1.0  T
   4    -50.6885797 -0.324545E-04  0.339E-02    9.13       1.0  T
   5    -50.6885815 -0.189487E-05  0.135E-02    9.13       1.4  T
   6    -50.6885820 -0.415097E-06  0.665E-03    9.13       2.9  T
   7    -50.6885821 -0.184137E-06  0.312E-03    9.13       6.3  T
   8    -50.6885822 -0.597498E-07  0.877E-04    9.12      22.4  T
speedup  0.97
cpu  time for SCC    0.01 s
wall time for SCC    0.01 s
speedup  1.01
cpu  time for grad    0.01 s
wall time for grad    0.01 s
 E :    -50.43177077  G :  0.050229    pred/act E change: -0.226D-01 -0.227D-01
Maxdispl :   0.2405   ||displ|| :   0.5934   Lambda : -0.143D-01
Largest |displ|/coords:  0.2405 (  29)  0.2339 (  27)  0.1727 (  16)
................................................................................
.............................. CYCLE    4 ......................................
................................................................................
   1    -50.6897961 -0.506898E+02  0.448E-01    9.30       0.0  T
   2    -50.6909370 -0.114086E-02  0.310E-01    9.33       1.0  T
   3    -50.6914423 -0.505286E-03  0.135E-01    9.36       1.0  T
   4    -50.6914673 -0.250393E-04  0.386E-02    9.37       1.0  T
   5    -50.6914699 -0.257014E-05  0.158E-02    9.37       1.2  T
   6    -50.6914704 -0.475414E-06  0.752E-03    9.37       2.6  T
   7    -50.6914706 -0.227365E-06  0.321E-03    9.37       6.1  T
   8    -50.6914707 -0.596109E-07  0.109E-03    9.37      18.0  T
speedup  0.99
cpu  time for SCC    0.01 s
wall time for SCC    0.01 s
speedup  0.93
cpu  time for grad    0.01 s
wall time for grad    0.01 s
 E :    -50.44005957  G :  0.045999    pred/act E change: -0.195D-01 -0.829D-02
Maxdispl :   0.1776   ||displ|| :   0.4095   Lambda : -0.539D-02
Largest |displ|/coords:  0.1776 (  27)  0.1512 (  14)  0.1258 (  28)
................................................................................
.............................. CYCLE    5 ......................................
................................................................................
   1    -50.6949526 -0.506950E+02  0.234E-01    9.50       0.0  T
   2    -50.6950510 -0.984609E-04  0.169E-01    9.51       1.0  T
   3    -50.6950962 -0.451952E-04  0.473E-02    9.52       1.0  T
   4    -50.6951028 -0.656724E-05  0.123E-02    9.52       1.6  T
   5    -50.6951031 -0.329757E-06  0.397E-03    9.52       4.9  T
   6    -50.6951031 -0.214096E-07  0.189E-03    9.52      10.4  T
speedup  0.91
cpu  time for SCC    0.00 s
wall time for SCC    0.01 s
speedup  0.98
cpu  time for grad    0.01 s
wall time for grad    0.01 s
 E :    -50.44259771  G :  0.041091    pred/act E change: -0.970D-02 -0.254D-02
Maxdispl :   0.1769   ||displ|| :   0.4226   Lambda : -0.435D-02
Largest |displ|/coords:  0.1769 (  14)  0.1505 (  19)  0.1232 (  17)
................................................................................
.............................. CYCLE    6 ......................................
................................................................................
   1    -50.7054800 -0.507055E+02  0.256E-01    9.64       0.0  T
   2    -50.7055927 -0.112724E-03  0.189E-01    9.64       1.0  T
   3    -50.7056420 -0.492924E-04  0.574E-02    9.64       1.0  T
   4    -50.7056532 -0.112211E-04  0.169E-02    9.65       1.2  T
   5    -50.7056537 -0.520061E-06  0.586E-03    9.65       3.3  T
   6    -50.7056538 -0.355541E-07  0.289E-03    9.65       6.8  T
speedup  0.94
cpu  time for SCC    0.00 s
wall time for SCC    0.01 s
speedup  0.98
cpu  time for grad    0.01 s
wall time for grad    0.01 s
 E :    -50.44559826  G :  0.033133    pred/act E change: -0.315D-02 -0.300D-02
Maxdispl :   0.2245   ||displ|| :   0.5301   Lambda : -0.477D-02
Largest |displ|/coords:  0.2245 (  14)  0.2128 (  21)  0.1558 (  13)
................................................................................
.............................. CYCLE    7 ......................................
................................................................................
   1    -50.7205552 -0.507206E+02  0.389E-01    9.75       0.0  T
   2    -50.7209646 -0.409428E-03  0.292E-01    9.74       1.0  T
   3    -50.7211507 -0.186109E-03  0.121E-01    9.73       1.0  T
   4    -50.7211783 -0.275783E-04  0.405E-02    9.74       1.0  T
   5    -50.7211814 -0.308621E-05  0.105E-02    9.74       1.9  T
   6    -50.7211815 -0.112329E-06  0.546E-03    9.74       3.6  T
   7    -50.7211815 -0.396911E-07  0.147E-03    9.74      13.3  T
speedup  0.95
cpu  time for SCC    0.01 s
wall time for SCC    0.01 s
speedup  0.99
cpu  time for grad    0.01 s
wall time for grad    0.01 s
 E :    -50.44855671  G :  0.039494    pred/act E change: -0.256D-02 -0.296D-02
Maxdispl :   0.2639   ||displ|| :   0.5550   Lambda : -0.495D-02
Largest |displ|/coords:  0.2639 (  16)  0.1811 (   7)  0.1553 (  33)
................................................................................
.............................. CYCLE    8 ......................................
................................................................................
   1    -50.7367730 -0.507368E+02  0.461E-01    9.70       0.0  T
   2    -50.7370901 -0.317159E-03  0.341E-01    9.71       1.0  T
   3    -50.7372725 -0.182379E-03  0.115E-01    9.73       1.0  T
   4    -50.7373005 -0.279742E-04  0.316E-02    9.73       1.0  T
   5    -50.7373026 -0.211048E-05  0.117E-02    9.74       1.7  T
   6    -50.7373027 -0.982706E-07  0.611E-03    9.74       3.2  T
   7    -50.7373028 -0.598519E-07  0.178E-03    9.74      11.0  T
   8    -50.7373028 -0.445768E-08  0.376E-04    9.74      52.1  T
speedup  1.13
cpu  time for SCC    0.01 s
wall time for SCC    0.01 s
speedup  1.00
cpu  time for grad    0.01 s
wall time for grad    0.01 s
 E :    -50.44806358  G :  0.077630    pred/act E change: -0.306D-02  0.493D-03
Maxdispl :   0.1662   ||displ|| :   0.4314   Lambda : -0.219D-01
Largest |displ|/coords:  0.1662 (  27)  0.1520 (  29)  0.1441 (  32)
................................................................................
.............................. CYCLE    9 ......................................
................................................................................
   1    -50.7146039 -0.507146E+02  0.507E-01    9.56       0.0  T
   2    -50.7156466 -0.104272E-02  0.366E-01    9.57       1.0  T
   3    -50.7161178 -0.471164E-03  0.162E-01    9.58       1.0  T
   4    -50.7161661 -0.482786E-04  0.498E-02    9.57       1.0  T
   5    -50.7161705 -0.438702E-05  0.168E-02    9.57       1.2  T
   6    -50.7161715 -0.988202E-06  0.105E-02    9.57       1.9  T
   7    -50.7161716 -0.135875E-06  0.208E-03    9.57       9.4  T
   8    -50.7161716 -0.117397E-07  0.750E-04    9.57      26.2  T
speedup  1.00
cpu  time for SCC    0.01 s
wall time for SCC    0.01 s
speedup  1.01
cpu  time for grad    0.01 s
wall time for grad    0.01 s
 E :    -50.44802109  G :  0.044719    pred/act E change: -0.324D-02  0.425D-04
Maxdispl :   0.0911   ||displ|| :   0.2344   Lambda : -0.551D-02
Largest |displ|/coords:  0.0911 (  14)  0.0862 (  17)  0.0700 (  21)
................................................................................
.............................. CYCLE   10 ......................................
................................................................................
   1    -50.7186423 -0.507186E+02  0.228E-01    9.62       0.0  T
   2    -50.7187634 -0.121119E-03  0.170E-01    9.62       1.0  T
   3    -50.7188203 -0.568939E-04  0.607E-02    9.62       1.0  T
   4    -50.7188304 -0.100254E-04  0.170E-02    9.62       1.2  T
   5    -50.7188309 -0.537147E-06  0.590E-03    9.62       3.3  T
   6    -50.7188309 -0.287577E-07  0.299E-03    9.62       6.6  T
speedup  1.13
cpu  time for SCC    0.01 s
wall time for SCC    0.01 s
speedup  0.98
cpu  time for grad    0.01 s
wall time for grad    0.01 s
 E :    -50.45190366  G :  0.032830    pred/act E change: -0.130D-01 -0.388D-02
Maxdispl :   0.1772   ||displ|| :   0.5196   Lambda : -0.932D-02
Largest |displ|/coords:  0.1772 (  16)  0.1747 (  33)  0.1625 (  27)
................................................................................
.............................. CYCLE   11 ......................................
................................................................................
   1    -50.7496921 -0.507497E+02  0.498E-01    9.73       0.0  T
   2    -50.7502662 -0.574083E-03  0.372E-01    9.73       1.0  T
   3    -50.7506334 -0.367173E-03  0.158E-01    9.57       1.0  T
   4    -50.7506753 -0.419147E-04  0.448E-02    9.56       1.0  T
   5    -50.7506792 -0.389885E-05  0.174E-02    9.58       1.1  T
   6    -50.7506794 -0.199020E-06  0.766E-03    9.58       2.6  T
   7    -50.7506796 -0.159757E-06  0.274E-03    9.58       7.2  T
   8    -50.7506796 -0.104245E-07  0.712E-04    9.58      27.5  T
speedup  0.99
cpu  time for SCC    0.01 s
wall time for SCC    0.01 s
speedup  1.00
cpu  time for grad    0.01 s
wall time for grad    0.01 s
 E :    -50.44053477  G :  0.171622    pred/act E change: -0.291D-02  0.114D-01
Maxdispl :   0.2022   ||displ|| :   0.5495   Lambda : -0.804D-01
Largest |displ|/coords:  0.2022 (  29)  0.2012 (  32)  0.2009 (  33)
................................................................................
.............................. CYCLE   12 ......................................
................................................................................
   1    -50.7048852 -0.507049E+02  0.717E-01    9.50       0.0  T
   2    -50.7073533 -0.246811E-02  0.508E-01    9.52       1.0  T
   3    -50.7084530 -0.109972E-02  0.238E-01    9.52       1.0  T
   4    -50.7085569 -0.103830E-03  0.785E-02    9.51       1.0  T
   5    -50.7085673 -0.104344E-04  0.281E-02    9.51       1.0  T
   6    -50.7085708 -0.351342E-05  0.170E-02    9.51       1.2  T
   7    -50.7085712 -0.403968E-06  0.348E-03    9.51       5.6  T
   8    -50.7085712 -0.266795E-07  0.128E-03    9.51      15.3  T
speedup  0.99
cpu  time for SCC    0.01 s
wall time for SCC    0.01 s
speedup  0.93
cpu  time for grad    0.01 s
wall time for grad    0.01 s
 E :    -50.44536960  G :  0.062273    pred/act E change: -0.592D-02 -0.483D-02
Maxdispl :   0.2150   ||displ|| :   0.3314   Lambda : -0.999D-02
Largest |displ|/coords:  0.2150 (   7)  0.1007 (   8)  0.0708 (   2)
................................................................................
.............................. CYCLE   13 ......................................
................................................................................
   1    -50.7218270 -0.507218E+02  0.499E-01    9.58       0.0  T
   2    -50.7221108 -0.283807E-03  0.377E-01    9.57       1.0  T
   3    -50.7222463 -0.135421E-03  0.984E-02    9.57       1.0  T
   4    -50.7222855 -0.392669E-04  0.302E-02    9.58       1.0  T
   5    -50.7222873 -0.180536E-05  0.971E-03    9.57       2.0  T
   6    -50.7222874 -0.700486E-07  0.501E-03    9.57       3.9  T
   7    -50.7222875 -0.487933E-07  0.135E-03    9.57      14.5  T
speedup  1.06
cpu  time for SCC    0.01 s
wall time for SCC    0.01 s
speedup  1.03
cpu  time for grad    0.01 s
wall time for grad    0.01 s
 E :    -50.45105224  G :  0.053159    pred/act E change: -0.523D-01 -0.568D-02
Maxdispl :   0.2176   ||displ|| :   0.4012   Lambda : -0.781D-02
Largest |displ|/coords:  0.2176 (   8)  0.1819 (   7)  0.1158 (   5)
................................................................................
.............................. CYCLE   14 ......................................
................................................................................
   1    -50.7249309 -0.507249E+02  0.615E-01    9.59       0.0  T
   2    -50.7251937 -0.262805E-03  0.463E-01    9.59       1.0  T
   3    -50.7253481 -0.154319E-03  0.102E-01    9.59       1.0  T
   4    -50.7253862 -0.381819E-04  0.245E-02    9.59       1.0  T
   5    -50.7253873 -0.107031E-05  0.999E-03    9.59       2.0  T
   6    -50.7253874 -0.901685E-07  0.532E-03    9.59       3.7  T
   7    -50.7253875 -0.622423E-07  0.167E-03    9.59      11.8  T
speedup  0.97
cpu  time for SCC    0.01 s
wall time for SCC    0.01 s
speedup  1.00
cpu  time for grad    0.01 s
wall time for grad    0.01 s
 E :    -50.45408651  G :  0.034070    pred/act E change: -0.554D-02 -0.303D-02
Maxdispl :   0.1945   ||displ|| :   0.3887   Lambda : -0.384D-02
Largest |displ|/coords:  0.1945 (   6)  0.1396 (   8)  0.1387 (   5)
................................................................................
.............................. CYCLE   15 ......................................
................................................................................
   1    -50.7383908 -0.507384E+02  0.554E-01    9.60       0.0  T
   2    -50.7385222 -0.131461E-03  0.421E-01    9.60       1.0  T
   3    -50.7386199 -0.976306E-04  0.637E-02    9.60       1.0  T
   4    -50.7386393 -0.194919E-04  0.136E-02    9.60       1.4  T
   5    -50.7386397 -0.348504E-06  0.705E-03    9.60       2.8  T
   6    -50.7386397 -0.240031E-07  0.349E-03    9.60       5.6  T
   7    -50.7386397 -0.229827E-07  0.730E-04    9.60      26.8  T
speedup  0.97
cpu  time for SCC    0.01 s
wall time for SCC    0.01 s
speedup  0.89
cpu  time for grad    0.01 s
wall time for grad    0.01 s
 E :    -50.45320231  G :  0.048781    pred/act E change: -0.453D-02  0.884D-03
Maxdispl :   0.2169   ||displ|| :   0.3383   Lambda : -0.462D-02
Largest |displ|/coords:  0.2169 (   6)  0.1274 (   8)  0.0983 (  13)
................................................................................
.............................. CYCLE   16 ......................................
................................................................................
   1    -50.7343027 -0.507343E+02  0.511E-01    9.60       0.0  T
   2    -50.7343720 -0.692891E-04  0.388E-01    9.60       1.0  T
   3    -50.7344316 -0.595894E-04  0.533E-02    9.60       1.0  T
   4    -50.7344395 -0.786503E-05  0.141E-02    9.60       1.4  T
   5    -50.7344399 -0.425074E-06  0.451E-03    9.60       4.3  T
   6    -50.7344399 -0.150568E-07  0.250E-03    9.60       7.8  T
speedup  1.11
cpu  time for SCC    0.01 s
wall time for SCC    0.01 s
speedup  1.04
cpu  time for grad    0.01 s
wall time for grad    0.01 s
 E :    -50.45490196  G :  0.028870    pred/act E change: -0.221D-02 -0.170D-02
Maxdispl :   0.1108   ||displ|| :   0.2380   Lambda : -0.198D-02
Largest |displ|/coords:  0.1108 (   8)  0.0912 (   5)  0.0836 (  18)
................................................................................
.............................. CYCLE   17 ......................................
................................................................................
   1    -50.7326462 -0.507326E+02  0.301E-01    9.55       0.0  T
   2    -50.7326667 -0.205512E-04  0.228E-01    9.55       1.0  T
   3    -50.7326859 -0.191567E-04  0.265E-02    9.56       1.0  T
   4    -50.7326880 -0.207368E-05  0.844E-03    9.55       2.3  T
   5    -50.7326881 -0.117581E-06  0.294E-03    9.55       6.7  T
   6    -50.7326881 -0.609913E-08  0.149E-03    9.55      13.2  T
speedup  1.13
cpu  time for SCC    0.01 s
wall time for SCC    0.01 s
speedup  1.06
cpu  time for grad    0.01 s
wall time for grad    0.01 s
 E :    -50.45573525  G :  0.022174    pred/act E change: -0.257D-02 -0.833D-03
Maxdispl :   0.1085   ||displ|| :   0.1806   Lambda : -0.106D-02
Largest |displ|/coords:  0.1085 (   7)  0.0660 (   6)  0.0448 (  12)
................................................................................
.............................. CYCLE   18 ......................................
................................................................................
   1    -50.7328514 -0.507329E+02  0.197E-01    9.53       0.0  T
   2    -50.7328761 -0.246444E-04  0.148E-01    9.53       1.0  T
   3    -50.7328911 -0.150231E-04  0.314E-02    9.53       1.0  T
   4    -50.7328946 -0.349136E-05  0.859E-03    9.53       2.3  T
   5    -50.7328947 -0.129356E-06  0.339E-03    9.53       5.8  T
   6    -50.7328947 -0.148832E-07  0.191E-03    9.53      10.3  T
speedup  1.09
cpu  time for SCC    0.01 s
wall time for SCC    0.01 s
speedup  0.97
cpu  time for grad    0.01 s
wall time for grad    0.01 s
 E :    -50.45596956  G :  0.024563    pred/act E change: -0.104D-02 -0.234D-03
Maxdispl :   0.0740   ||displ|| :   0.1493   Lambda : -0.861D-03
Largest |displ|/coords:  0.0740 (   2)  0.0688 (   6)  0.0493 (   8)
................................................................................
.............................. CYCLE   19 ......................................
................................................................................
   1    -50.7340915 -0.507341E+02  0.139E-01    9.52       0.0  T
   2    -50.7340962 -0.469830E-05  0.105E-01    9.52       1.0  T
   3    -50.7341001 -0.384646E-05  0.136E-02    9.52       1.4  T
   4    -50.7341006 -0.550108E-06  0.351E-03    9.52       5.6  T
   5    -50.7341006 -0.182568E-07  0.153E-03    9.52      12.8  T
speedup  1.09
cpu  time for SCC    0.00 s
wall time for SCC    0.00 s
speedup  1.03
cpu  time for grad    0.01 s
wall time for grad    0.01 s
 E :    -50.45643695  G :  0.013418    pred/act E change: -0.547D-03 -0.467D-03
Maxdispl :   0.1300   ||displ|| :   0.1915   Lambda : -0.578D-03
Largest |displ|/coords:  0.1300 (   2)  0.0592 (   3)  0.0570 (  16)
................................................................................
.............................. CYCLE   20 ......................................
................................................................................
   1    -50.7343808 -0.507344E+02  0.171E-01    9.50       0.0  T
   2    -50.7343899 -0.909152E-05  0.129E-01    9.50       1.0  T
   3    -50.7343968 -0.695863E-05  0.189E-02    9.50       1.0  T
   4    -50.7343980 -0.117372E-05  0.440E-03    9.50       4.5  T
   5    -50.7343980 -0.371821E-07  0.184E-03    9.50      10.7  T
   6    -50.7343980 -0.330412E-08  0.994E-04    9.50      19.7  T
speedup  0.94
cpu  time for SCC    0.01 s
wall time for SCC    0.01 s
speedup  0.98
cpu  time for grad    0.01 s
wall time for grad    0.01 s
 E :    -50.45672701  G :  0.015851    pred/act E change: -0.440D-03 -0.290D-03
Maxdispl :   0.0935   ||displ|| :   0.2194   Lambda : -0.716D-03
Largest |displ|/coords:  0.0935 (   2)  0.0898 (   9)  0.0793 (   7)
................................................................................
.............................. CYCLE   21 ......................................
................................................................................
   1    -50.7373036 -0.507373E+02  0.158E-01    9.48       0.0  T
   2    -50.7373196 -0.160081E-04  0.118E-01    9.48       1.0  T
   3    -50.7373307 -0.110597E-04  0.238E-02    9.48       1.0  T
   4    -50.7373324 -0.176165E-05  0.659E-03    9.48       3.0  T
   5    -50.7373325 -0.723957E-07  0.232E-03    9.48       8.4  T
   6    -50.7373325 -0.436576E-08  0.127E-03    9.48      15.5  T
speedup  0.93
cpu  time for SCC    0.00 s
wall time for SCC    0.01 s
speedup  0.98
cpu  time for grad    0.01 s
wall time for grad    0.01 s
 E :    -50.45659487  G :  0.026668    pred/act E change: -0.300D-03  0.132D-03
Maxdispl :   0.1610   ||displ|| :   0.2173   Lambda : -0.124D-02
Largest |displ|/coords:  0.1610 (   5)  0.0600 (   7)  0.0543 (   8)
................................................................................
.............................. CYCLE   22 ......................................
................................................................................
   1    -50.7334057 -0.507334E+02  0.212E-01    9.46       0.0  T
   2    -50.7334290 -0.233205E-04  0.159E-01    9.46       1.0  T
   3    -50.7334447 -0.156937E-04  0.279E-02    9.45       1.0  T
   4    -50.7334479 -0.325521E-05  0.726E-03    9.45       2.7  T
   5    -50.7334480 -0.939165E-07  0.326E-03    9.45       6.0  T
   6    -50.7334480 -0.147323E-07  0.175E-03    9.45      11.2  T
speedup  1.11
cpu  time for SCC    0.01 s
wall time for SCC    0.01 s
speedup  1.05
cpu  time for grad    0.01 s
wall time for grad    0.01 s
 E :    -50.45715126  G :  0.017053    pred/act E change: -0.375D-03 -0.556D-03
Maxdispl :   0.0462   ||displ|| :   0.1127   Lambda : -0.447D-03
Largest |displ|/coords:  0.0462 (   5)  0.0454 (  12)  0.0357 (   7)
................................................................................
.............................. CYCLE   23 ......................................
................................................................................
   1    -50.7366846 -0.507367E+02  0.104E-01    9.44       0.0  T
   2    -50.7366902 -0.564395E-05  0.779E-02    9.44       1.0  T
   3    -50.7366941 -0.391940E-05  0.140E-02    9.44       1.4  T
   4    -50.7366949 -0.704817E-06  0.414E-03    9.44       4.7  T
   5    -50.7366949 -0.296627E-07  0.157E-03    9.44      12.5  T
   6    -50.7366949 -0.265526E-08  0.724E-04    9.44      27.1  T
speedup  1.11
cpu  time for SCC    0.01 s
wall time for SCC    0.01 s
speedup  0.98
cpu  time for grad    0.01 s
wall time for grad    0.01 s
 E :    -50.45726248  G :  0.012473    pred/act E change: -0.651D-03 -0.111D-03
Maxdispl :   0.0576   ||displ|| :   0.0997   Lambda : -0.284D-03
Largest |displ|/coords:  0.0576 (   9)  0.0309 (   6)  0.0277 (   7)
................................................................................
.............................. CYCLE   24 ......................................
................................................................................
   1    -50.7362214 -0.507362E+02  0.641E-02    9.46       0.0  T
   2    -50.7362245 -0.303310E-05  0.481E-02    9.46       1.0  T
   3    -50.7362260 -0.154466E-05  0.102E-02    9.46       1.9  T
   4    -50.7362265 -0.498687E-06  0.312E-03    9.46       6.3  T
   5    -50.7362265 -0.131718E-07  0.102E-03    9.46      19.3  T
   6    -50.7362265 -0.151175E-08  0.492E-04    9.46      39.8  T
speedup  0.94
cpu  time for SCC    0.00 s
wall time for SCC    0.01 s
speedup  0.98
cpu  time for grad    0.01 s
wall time for grad    0.01 s
 E :    -50.45746595  G :  0.007816    pred/act E change: -0.226D-03 -0.203D-03
Maxdispl :   0.1498   ||displ|| :   0.2712   Lambda : -0.477D-03
Largest |displ|/coords:  0.1498 (   9)  0.0908 (   5)  0.0823 (  17)
................................................................................
.............................. CYCLE   25 ......................................
................................................................................
   1    -50.7338157 -0.507338E+02  0.189E-01    9.47       0.0  T
   2    -50.7338520 -0.363597E-04  0.141E-01    9.47       1.0  T
   3    -50.7338651 -0.131129E-04  0.334E-02    9.47       1.0  T
   4    -50.7338708 -0.564522E-05  0.845E-03    9.47       2.3  T
   5    -50.7338709 -0.137742E-06  0.299E-03    9.47       6.6  T
   6    -50.7338709 -0.101673E-07  0.142E-03    9.47      13.8  T
speedup  0.93
cpu  time for SCC    0.01 s
wall time for SCC    0.01 s
speedup  0.98
cpu  time for grad    0.01 s
wall time for grad    0.01 s
 E :    -50.45770336  G :  0.016832    pred/act E change: -0.143D-03 -0.237D-03
Maxdispl :   0.1724   ||displ|| :   0.2902   Lambda : -0.527D-03
Largest |displ|/coords:  0.1724 (   9)  0.0953 (  10)  0.0777 (  17)

generating ANC from model Hessian ...
 Shifting diagonal of input Hessian by   4.925622155698593E-003
 Lowest  eigenvalues of input Hessian
   -0.000000   -0.000000   -0.000000    0.000000    0.000000    0.000000
    0.005000    0.005240    0.005550    0.005783    0.006596    0.006812
    0.006985    0.007660    0.008614    0.008987    0.009803    0.010768
 Highest eigenvalues
    1.400639    1.402361    1.403651    2.768048    3.329081    3.636508
 
cpu  time for ANC gen    0.01 s
wall time for ANC gen    0.01 s
................................................................................
.............................. CYCLE   26 ......................................
................................................................................
   1    -50.7344273 -0.507344E+02  0.162E-01    9.46       0.0  T
   2    -50.7344783 -0.510723E-04  0.120E-01    9.46       1.0  T
   3    -50.7344953 -0.169324E-04  0.389E-02    9.45       1.0  T
   4    -50.7345005 -0.525744E-05  0.856E-03    9.45       2.3  T
   5    -50.7345007 -0.161516E-06  0.282E-03    9.45       6.9  T
   6    -50.7345007 -0.105846E-07  0.136E-03    9.45      14.4  T
   7    -50.7345007 -0.356175E-08  0.474E-04    9.45      41.4  T
   8    -50.7345007 -0.669338E-09  0.185E-04    9.45     106.0  T
speedup  0.99
cpu  time for SCC    0.01 s
wall time for SCC    0.01 s
speedup  1.03
cpu  time for grad    0.02 s
wall time for grad    0.02 s
 E :    -50.45808410  G :  0.018376    pred/act E change:  0.000D+00 -0.381D-03
Maxdispl :   0.1169   ||displ|| :   0.2014   Lambda : -0.819D-03
Largest |displ|/coords:  0.1169 (   7)  0.0639 (   1)  0.0502 (  12)
................................................................................
.............................. CYCLE   27 ......................................
................................................................................
   1    -50.7356247 -0.507356E+02  0.151E-01    9.43       0.0  T
   2    -50.7356296 -0.493157E-05  0.114E-01    9.43       1.0  T
   3    -50.7356332 -0.356827E-05  0.113E-02    9.44       1.7  T
   4    -50.7356339 -0.748627E-06  0.458E-03    9.43       4.3  T
   5    -50.7356339 -0.216954E-07  0.138E-03    9.43      14.3  T
   6    -50.7356339 -0.222999E-08  0.738E-04    9.43      26.6  T
speedup  1.13
cpu  time for SCC    0.01 s
wall time for SCC    0.01 s
speedup  1.05
cpu  time for grad    0.01 s
wall time for grad    0.01 s
 E :    -50.45853845  G :  0.009670    pred/act E change:  0.000D+00 -0.454D-03
Maxdispl :   0.0914   ||displ|| :   0.1945   Lambda : -0.492D-03
Largest |displ|/coords:  0.0914 (   1)  0.0806 (   2)  0.0678 (   4)
................................................................................
.............................. CYCLE   28 ......................................
................................................................................
   1    -50.7362047 -0.507362E+02  0.175E-01    9.42       0.0  T
   2    -50.7362138 -0.908601E-05  0.132E-01    9.43       1.0  T
   3    -50.7362184 -0.458565E-05  0.160E-02    9.43       1.2  T
   4    -50.7362202 -0.179493E-05  0.536E-03    9.43       3.7  T
   5    -50.7362202 -0.359945E-07  0.165E-03    9.43      11.9  T
   6    -50.7362202 -0.245676E-08  0.845E-04    9.43      23.2  T
speedup  0.94
cpu  time for SCC    0.01 s
wall time for SCC    0.01 s
speedup  0.99
cpu  time for grad    0.01 s
wall time for grad    0.01 s
 E :    -50.45887042  G :  0.009328    pred/act E change: -0.426D-03 -0.332D-03
Maxdispl :   0.1507   ||displ|| :   0.2726   Lambda : -0.433D-03
Largest |displ|/coords:  0.1507 (   1)  0.1163 (   2)  0.0919 (  12)
................................................................................
.............................. CYCLE   29 ......................................
................................................................................
   1    -50.7345810 -0.507346E+02  0.235E-01    9.42       0.0  T
   2    -50.7346093 -0.282483E-04  0.176E-01    9.42       1.0  T
   3    -50.7346185 -0.920714E-05  0.282E-02    9.42       1.0  T
   4    -50.7346244 -0.591588E-05  0.807E-03    9.42       2.4  T
   5    -50.7346245 -0.114420E-06  0.267E-03    9.42       7.3  T
   6    -50.7346245 -0.626584E-08  0.133E-03    9.42      14.7  T
speedup  0.94
cpu  time for SCC    0.00 s
wall time for SCC    0.01 s
speedup  0.98
cpu  time for grad    0.01 s
wall time for grad    0.01 s
 E :    -50.45918857  G :  0.016044    pred/act E change: -0.255D-03 -0.318D-03
Maxdispl :   0.2207   ||displ|| :   0.3843   Lambda : -0.837D-03
Largest |displ|/coords:  0.2207 (   1)  0.1566 (   2)  0.1430 (   5)
................................................................................
.............................. CYCLE   30 ......................................
................................................................................
   1    -50.7349319 -0.507349E+02  0.263E-01    9.41       0.0  T
   2    -50.7350504 -0.118576E-03  0.194E-01    9.41       1.0  T
   3    -50.7350839 -0.334798E-04  0.568E-02    9.40       1.0  T
   4    -50.7350975 -0.135324E-04  0.138E-02    9.41       1.4  T
   5    -50.7350978 -0.369910E-06  0.408E-03    9.40       4.8  T
   6    -50.7350978 -0.196516E-07  0.190E-03    9.40      10.3  T
   7    -50.7350978 -0.586891E-08  0.655E-04    9.40      30.0  T
speedup  1.13
cpu  time for SCC    0.01 s
wall time for SCC    0.01 s
speedup  1.00
cpu  time for grad    0.01 s
wall time for grad    0.01 s
 E :    -50.45983214  G :  0.018375    pred/act E change: -0.233D-03 -0.644D-03
Maxdispl :   0.1884   ||displ|| :   0.4576   Lambda : -0.136D-02
Largest |displ|/coords:  0.1884 (   2)  0.1822 (   1)  0.1807 (   5)
................................................................................
.............................. CYCLE   31 ......................................
................................................................................
   1    -50.7355351 -0.507355E+02  0.354E-01    9.40       0.0  T
   2    -50.7358395 -0.304406E-03  0.258E-01    9.39       1.0  T
   3    -50.7359419 -0.102455E-03  0.885E-02    9.38       1.0  T
   4    -50.7359660 -0.240478E-04  0.213E-02    9.38       1.0  T
   5    -50.7359670 -0.965209E-06  0.655E-03    9.38       3.0  T
   6    -50.7359670 -0.538933E-07  0.316E-03    9.38       6.2  T
   7    -50.7359670 -0.153854E-07  0.103E-03    9.38      19.0  T
   8    -50.7359670 -0.247030E-08  0.332E-04    9.38      59.0  T
speedup  1.01
cpu  time for SCC    0.01 s
wall time for SCC    0.01 s
speedup  0.95
cpu  time for grad    0.01 s
wall time for grad    0.01 s
 E :    -50.46038139  G :  0.031117    pred/act E change: -0.480D-03 -0.549D-03
Maxdispl :   0.1801   ||displ|| :   0.3908   Lambda : -0.256D-02
Largest |displ|/coords:  0.1801 (   1)  0.1091 (   3)  0.1072 (   5)
................................................................................
.............................. CYCLE   32 ......................................
................................................................................
   1    -50.7473137 -0.507473E+02  0.359E-01    9.41       0.0  T
   2    -50.7476340 -0.320367E-03  0.261E-01    9.40       1.0  T
   3    -50.7477628 -0.128786E-03  0.899E-02    9.37       1.0  T
   4    -50.7477853 -0.224813E-04  0.241E-02    9.37       1.0  T
   5    -50.7477865 -0.123934E-05  0.719E-03    9.37       2.7  T
   6    -50.7477866 -0.616515E-07  0.341E-03    9.37       5.8  T
   7    -50.7477866 -0.184004E-07  0.121E-03    9.37      16.2  T
speedup  0.81
cpu  time for SCC    0.01 s
wall time for SCC    0.01 s
speedup  0.93
cpu  time for grad    0.01 s
wall time for grad    0.01 s
 E :    -50.45895090  G :  0.068361    pred/act E change: -0.821D-03  0.143D-02
Maxdispl :   0.1276   ||displ|| :   0.4079   Lambda : -0.116D-01
Largest |displ|/coords:  0.1276 (   6)  0.1251 (  26)  0.1235 (  12)
................................................................................
.............................. CYCLE   33 ......................................
................................................................................
   1    -50.7164677 -0.507165E+02  0.558E-01    9.25       0.0  T
   2    -50.7172250 -0.757304E-03  0.400E-01    9.32       1.0  T
   3    -50.7175453 -0.320289E-03  0.136E-01    9.36       1.0  T
   4    -50.7175969 -0.515860E-04  0.374E-02    9.35       1.0  T
   5    -50.7176001 -0.325685E-05  0.111E-02    9.35       1.8  T
   6    -50.7176004 -0.209775E-06  0.683E-03    9.35       2.9  T
   7    -50.7176004 -0.814004E-07  0.201E-03    9.35       9.8  T
   8    -50.7176004 -0.715799E-08  0.610E-04    9.35      32.1  T
speedup  1.00
cpu  time for SCC    0.01 s
wall time for SCC    0.01 s
speedup  1.01
cpu  time for grad    0.01 s
wall time for grad    0.01 s
 E :    -50.45598887  G :  0.084504    pred/act E change: -0.148D-02  0.296D-02
Maxdispl :   0.1792   ||displ|| :   0.4495   Lambda : -0.210D-01
Largest |displ|/coords:  0.1792 (  21)  0.1616 (  12)  0.1430 (   2)
................................................................................
.............................. CYCLE   34 ......................................
................................................................................
   1    -50.7557447 -0.507557E+02  0.675E-01    9.41       0.0  T
   2    -50.7563459 -0.601164E-03  0.499E-01    9.40       1.0  T
   3    -50.7567127 -0.366816E-03  0.132E-01    9.37       1.0  T
   4    -50.7567727 -0.599644E-04  0.311E-02    9.38       1.0  T
   5    -50.7567757 -0.300466E-05  0.136E-02    9.38       1.4  T
   6    -50.7567758 -0.112881E-06  0.601E-03    9.38       3.3  T
   7    -50.7567759 -0.981964E-07  0.144E-03    9.38      13.6  T
   8    -50.7567759 -0.511994E-08  0.510E-04    9.38      38.5  T
speedup  1.01
cpu  time for SCC    0.01 s
wall time for SCC    0.01 s
speedup  1.02
cpu  time for grad    0.01 s
wall time for grad    0.01 s
 E :    -50.45706963  G :  0.102844    pred/act E change: -0.679D-02 -0.108D-02
Maxdispl :   0.1723   ||displ|| :   0.3176   Lambda : -0.144D-01
Largest |displ|/coords:  0.1723 (   4)  0.1149 (  21)  0.0835 (   7)
................................................................................
.............................. CYCLE   35 ......................................
................................................................................
   1    -50.7281649 -0.507282E+02  0.418E-01    9.35       0.0  T
   2    -50.7284735 -0.308646E-03  0.305E-01    9.36       1.0  T
   3    -50.7286440 -0.170457E-03  0.925E-02    9.38       1.0  T
   4    -50.7286716 -0.275735E-04  0.236E-02    9.37       1.0  T
   5    -50.7286729 -0.132714E-05  0.806E-03    9.37       2.4  T
   6    -50.7286730 -0.940203E-07  0.474E-03    9.37       4.1  T
   7    -50.7286730 -0.434504E-07  0.107E-03    9.37      18.3  T
speedup  0.97
cpu  time for SCC    0.01 s
wall time for SCC    0.01 s
speedup  1.01
cpu  time for grad    0.01 s
wall time for grad    0.01 s
 E :    -50.45980098  G :  0.048376    pred/act E change: -0.126D-01 -0.273D-02
Maxdispl :   0.1848   ||displ|| :   0.2395   Lambda : -0.382D-02
Largest |displ|/coords:  0.1848 (   4)  0.0692 (   3)  0.0526 (   8)
................................................................................
.............................. CYCLE   36 ......................................
................................................................................
   1    -50.7402389 -0.507402E+02  0.191E-01    9.39       0.0  T
   2    -50.7402836 -0.446786E-04  0.142E-01    9.39       1.0  T
   3    -50.7403075 -0.239202E-04  0.359E-02    9.39       1.0  T
   4    -50.7403130 -0.553652E-05  0.994E-03    9.39       2.0  T
   5    -50.7403132 -0.228792E-06  0.402E-03    9.39       4.9  T
   6    -50.7403133 -0.866074E-08  0.195E-03    9.39      10.1  T
speedup  0.96
cpu  time for SCC    0.00 s
wall time for SCC    0.01 s
speedup  1.00
cpu  time for grad    0.01 s
wall time for grad    0.01 s
 E :    -50.46151564  G :  0.015490    pred/act E change: -0.793D-02 -0.171D-02
Maxdispl :   0.1502   ||displ|| :   0.2808   Lambda : -0.148D-02
Largest |displ|/coords:  0.1502 (   4)  0.1138 (   3)  0.1133 (   5)
................................................................................
.............................. CYCLE   37 ......................................
................................................................................
   1    -50.7461723 -0.507462E+02  0.230E-01    9.40       0.0  T
   2    -50.7462774 -0.105062E-03  0.167E-01    9.40       1.0  T
   3    -50.7463151 -0.377125E-04  0.514E-02    9.38       1.0  T
   4    -50.7463243 -0.916568E-05  0.121E-02    9.39       1.6  T
   5    -50.7463246 -0.334840E-06  0.348E-03    9.39       5.6  T
   6    -50.7463246 -0.126947E-07  0.172E-03    9.39      11.4  T
   7    -50.7463246 -0.462266E-08  0.549E-04    9.39      35.8  T
speedup  0.98
cpu  time for SCC    0.01 s
wall time for SCC    0.01 s
speedup  1.00
cpu  time for grad    0.01 s
wall time for grad    0.01 s
 E :    -50.46156934  G :  0.030016    pred/act E change: -0.202D-02 -0.537D-04
Maxdispl :   0.0569   ||displ|| :   0.1048   Lambda : -0.114D-02
Largest |displ|/coords:  0.0569 (   4)  0.0336 (   1)  0.0320 (   6)
................................................................................
.............................. CYCLE   38 ......................................
................................................................................
   1    -50.7430343 -0.507430E+02  0.124E-01    9.38       0.0  T
   2    -50.7430440 -0.976975E-05  0.929E-02    9.38       1.0  T
   3    -50.7430505 -0.649495E-05  0.175E-02    9.38       1.1  T
   4    -50.7430517 -0.121688E-05  0.383E-03    9.38       5.1  T
   5    -50.7430518 -0.310655E-07  0.177E-03    9.38      11.1  T
speedup  0.91
cpu  time for SCC    0.00 s
wall time for SCC    0.00 s
speedup  0.97
cpu  time for grad    0.01 s
wall time for grad    0.01 s
 E :    -50.46218020  G :  0.008852    pred/act E change: -0.800D-03 -0.611D-03
Maxdispl :   0.0370   ||displ|| :   0.0886   Lambda : -0.204D-03
Largest |displ|/coords:  0.0370 (  13)  0.0310 (   3)  0.0298 (  15)
................................................................................
.............................. CYCLE   39 ......................................
................................................................................
   1    -50.7422387 -0.507422E+02  0.494E-02    9.37       0.0  T
   2    -50.7422398 -0.102123E-05  0.370E-02    9.37       1.0  T
   3    -50.7422405 -0.735655E-06  0.603E-03    9.38       3.3  T
   4    -50.7422406 -0.139925E-06  0.192E-03    9.38      10.2  T
   5    -50.7422406 -0.589712E-08  0.631E-04    9.38      31.1  T
speedup  0.87
cpu  time for SCC    0.00 s
wall time for SCC    0.00 s
speedup  0.96
cpu  time for grad    0.01 s
wall time for grad    0.01 s
 E :    -50.46233426  G :  0.007747    pred/act E change: -0.575D-03 -0.154D-03
Maxdispl :   0.1224   ||displ|| :   0.2588   Lambda : -0.344D-03
Largest |displ|/coords:  0.1224 (   1)  0.0969 (  13)  0.0860 (  15)
................................................................................
.............................. CYCLE   40 ......................................
................................................................................
   1    -50.7431547 -0.507432E+02  0.134E-01    9.38       0.0  T
   2    -50.7431778 -0.231898E-04  0.100E-01    9.37       1.0  T
   3    -50.7431863 -0.845659E-05  0.273E-02    9.37       1.0  T
   4    -50.7431895 -0.317613E-05  0.653E-03    9.37       3.0  T
   5    -50.7431896 -0.103363E-06  0.224E-03    9.37       8.7  T
   6    -50.7431896 -0.654032E-08  0.113E-03    9.37      17.4  T
speedup  0.94
cpu  time for SCC    0.00 s
wall time for SCC    0.01 s
speedup  0.98
cpu  time for grad    0.01 s
wall time for grad    0.01 s
 E :    -50.46250183  G :  0.007532    pred/act E change: -0.103D-03 -0.168D-03
Maxdispl :   0.0331   ||displ|| :   0.0673   Lambda : -0.135D-03
Largest |displ|/coords:  0.0331 (  13)  0.0212 (  22)  0.0203 (  31)
................................................................................
.............................. CYCLE   41 ......................................
................................................................................
   1    -50.7446621 -0.507447E+02  0.549E-02    9.36       0.0  T
   2    -50.7446653 -0.322227E-05  0.398E-02    9.37       1.0  T
   3    -50.7446668 -0.148243E-05  0.981E-03    9.37       2.0  T
   4    -50.7446671 -0.308373E-06  0.330E-03    9.37       5.9  T
   5    -50.7446671 -0.152206E-07  0.824E-04    9.37      23.8  T
   6    -50.7446671 -0.917574E-09  0.447E-04    9.37      43.9  T
speedup  1.13
cpu  time for SCC    0.01 s
wall time for SCC    0.01 s
speedup  1.06
cpu  time for grad    0.01 s
wall time for grad    0.01 s
 E :    -50.46255772  G :  0.003870    pred/act E change: -0.183D-03 -0.559D-04
Maxdispl :   0.0107   ||displ|| :   0.0333   Lambda : -0.368D-04
Largest |displ|/coords:  0.0107 (   3)  0.0107 (   8)  0.0104 (   1)
................................................................................
.............................. CYCLE   42 ......................................
................................................................................
   1    -50.7449669 -0.507450E+02  0.172E-02    9.37       0.0  T
   2    -50.7449672 -0.257540E-06  0.128E-02    9.37       1.5  T
   3    -50.7449673 -0.102375E-06  0.282E-03    9.37       7.0  T
   4    -50.7449673 -0.390492E-07  0.737E-04    9.37      26.6  T
   5    -50.7449673 -0.111864E-08  0.209E-04    9.37      93.9  T
speedup  1.11
cpu  time for SCC    0.00 s
wall time for SCC    0.00 s
speedup  1.01
cpu  time for grad    0.01 s
wall time for grad    0.01 s
 E :    -50.46258480  G :  0.002563    pred/act E change: -0.680D-04 -0.271D-04
Maxdispl :   0.0263   ||displ|| :   0.0652   Lambda : -0.391D-04
Largest |displ|/coords:  0.0263 (  13)  0.0244 (   3)  0.0202 (   5)
................................................................................
.............................. CYCLE   43 ......................................
................................................................................
   1    -50.7452840 -0.507453E+02  0.307E-02    9.37       0.0  T
   2    -50.7452843 -0.332526E-06  0.228E-02    9.37       1.0  T
   3    -50.7452845 -0.233284E-06  0.394E-03    9.37       5.0  T
   4    -50.7452846 -0.405938E-07  0.124E-03    9.37      15.8  T
   5    -50.7452846 -0.223913E-08  0.325E-04    9.37      60.4  T
   6    -50.7452846 -0.139963E-09  0.205E-04    9.37      95.5  T
speedup  0.93
cpu  time for SCC    0.01 s
wall time for SCC    0.01 s
speedup  1.01
cpu  time for grad    0.01 s
wall time for grad    0.01 s
 E :    -50.46261029  G :  0.001859    pred/act E change: -0.184D-04 -0.255D-04
Maxdispl :   0.0323   ||displ|| :   0.0731   Lambda : -0.231D-04
Largest |displ|/coords:  0.0323 (  13)  0.0291 (   3)  0.0235 (  15)
................................................................................
.............................. CYCLE   44 ......................................
................................................................................
   1    -50.7452702 -0.507453E+02  0.309E-02    9.37       0.0  T
   2    -50.7452706 -0.342011E-06  0.231E-02    9.37       1.0  T
   3    -50.7452708 -0.201079E-06  0.375E-03    9.37       5.2  T
   4    -50.7452708 -0.535014E-07  0.112E-03    9.37      17.5  T
   5    -50.7452708 -0.175208E-08  0.321E-04    9.37      61.1  T
   6    -50.7452708 -0.138101E-09  0.193E-04    9.37     101.7  T
speedup  1.11
cpu  time for SCC    0.01 s
wall time for SCC    0.01 s
speedup  1.01
cpu  time for grad    0.01 s
wall time for grad    0.01 s
 E :    -50.46262650  G :  0.002352    pred/act E change: -0.196D-04 -0.162D-04
Maxdispl :   0.0423   ||displ|| :   0.0961   Lambda : -0.241D-04
Largest |displ|/coords:  0.0423 (  13)  0.0402 (   3)  0.0331 (   5)
................................................................................
.............................. CYCLE   45 ......................................
................................................................................
   1    -50.7453236 -0.507453E+02  0.380E-02    9.37       0.0  T
   2    -50.7453241 -0.542433E-06  0.285E-02    9.37       1.0  T
   3    -50.7453244 -0.300380E-06  0.421E-03    9.37       4.7  T
   4    -50.7453245 -0.947492E-07  0.125E-03    9.37      15.7  T
   5    -50.7453245 -0.257713E-08  0.412E-04    9.37      47.6  T
   6    -50.7453245 -0.214044E-09  0.220E-04    9.37      89.3  T
speedup  1.07
cpu  time for SCC    0.01 s
wall time for SCC    0.01 s
speedup  1.00
cpu  time for grad    0.01 s
wall time for grad    0.01 s
 E :    -50.46264316  G :  0.002289    pred/act E change: -0.116D-04 -0.167D-04
Maxdispl :   0.0450   ||displ|| :   0.0974   Lambda : -0.203D-04
Largest |displ|/coords:  0.0450 (   3)  0.0380 (  13)  0.0319 (   5)
................................................................................
.............................. CYCLE   46 ......................................
................................................................................
   1    -50.7452308 -0.507452E+02  0.354E-02    9.37       0.0  T
   2    -50.7452312 -0.344748E-06  0.266E-02    9.37       1.0  T
   3    -50.7452314 -0.239654E-06  0.353E-03    9.37       5.6  T
   4    -50.7452315 -0.520341E-07  0.150E-03    9.37      13.1  T
   5    -50.7452315 -0.294679E-08  0.351E-04    9.37      55.9  T
   6    -50.7452315 -0.166324E-09  0.217E-04    9.37      90.5  T
speedup  0.93
cpu  time for SCC    0.00 s
wall time for SCC    0.01 s
speedup  1.01
cpu  time for grad    0.01 s
wall time for grad    0.01 s
 E :    -50.46265709  G :  0.001742    pred/act E change: -0.122D-04 -0.139D-04
Maxdispl :   0.0375   ||displ|| :   0.0759   Lambda : -0.139D-04
Largest |displ|/coords:  0.0375 (   3)  0.0290 (   5)  0.0252 (  13)
................................................................................
.............................. CYCLE   47 ......................................
................................................................................
   1    -50.7452590 -0.507453E+02  0.296E-02    9.37       0.0  T
   2    -50.7452594 -0.349605E-06  0.221E-02    9.37       1.0  T
   3    -50.7452596 -0.207063E-06  0.389E-03    9.37       5.0  T
   4    -50.7452596 -0.538818E-07  0.162E-03    9.37      12.1  T
   5    -50.7452596 -0.284751E-08  0.342E-04    9.37      57.3  T
   6    -50.7452596 -0.175717E-09  0.219E-04    9.37      89.4  T
speedup  1.13
cpu  time for SCC    0.01 s
wall time for SCC    0.01 s
speedup  1.02
cpu  time for grad    0.01 s
wall time for grad    0.01 s
 E :    -50.46266615  G :  0.001380    pred/act E change: -0.102D-04 -0.907D-05
Maxdispl :   0.0251   ||displ|| :   0.0431   Lambda : -0.697D-05
Largest |displ|/coords:  0.0251 (   3)  0.0183 (   8)  0.0129 (   2)
................................................................................
.............................. CYCLE   48 ......................................
................................................................................
   1    -50.7452417 -0.507452E+02  0.169E-02    9.38       0.0  T
   2    -50.7452419 -0.188828E-06  0.125E-02    9.38       1.6  T
   3    -50.7452420 -0.916911E-07  0.268E-03    9.38       7.3  T
   4    -50.7452420 -0.267122E-07  0.103E-03    9.38      19.1  T
   5    -50.7452420 -0.141433E-08  0.256E-04    9.38      76.6  T
   6    -50.7452420 -0.135252E-09  0.131E-04    9.38     149.2  T
speedup  0.93
cpu  time for SCC    0.00 s
wall time for SCC    0.01 s
speedup  1.01
cpu  time for grad    0.01 s
wall time for grad    0.01 s
 E :    -50.46267093  G :  0.001166    pred/act E change: -0.697D-05 -0.478D-05
Maxdispl :   0.0261   ||displ|| :   0.0402   Lambda : -0.529D-05
Largest |displ|/coords:  0.0261 (   3)  0.0167 (   8)  0.0130 (   2)
................................................................................
.............................. CYCLE   49 ......................................
................................................................................
   1    -50.7452420 -0.507452E+02  0.164E-02    9.38       0.0  T
   2    -50.7452422 -0.146544E-06  0.122E-02    9.38       1.6  T
   3    -50.7452423 -0.800259E-07  0.231E-03    9.38       8.5  T
   4    -50.7452423 -0.232059E-07  0.864E-04    9.38      22.7  T
   5    -50.7452423 -0.101511E-08  0.244E-04    9.38      80.4  T
speedup  1.09
cpu  time for SCC    0.00 s
wall time for SCC    0.00 s
speedup  0.99
cpu  time for grad    0.01 s
wall time for grad    0.01 s
 E :    -50.46267478  G :  0.001090    pred/act E change: -0.349D-05 -0.385D-05
Maxdispl :   0.0351   ||displ|| :   0.0500   Lambda : -0.559D-05
Largest |displ|/coords:  0.0351 (   3)  0.0172 (   8)  0.0161 (   2)
................................................................................
.............................. CYCLE   50 ......................................
................................................................................
   1    -50.7452125 -0.507452E+02  0.196E-02    9.38       0.0  T
   2    -50.7452126 -0.124648E-06  0.146E-02    9.38       1.3  T
   3    -50.7452127 -0.957123E-07  0.215E-03    9.38       9.1  T
   4    -50.7452128 -0.165333E-07  0.111E-03    9.38      17.6  T
   5    -50.7452128 -0.137515E-08  0.248E-04    9.38      79.2  T
   6    -50.7452128 -0.898694E-10  0.143E-04    9.38     137.0  T
speedup  1.13
cpu  time for SCC    0.01 s
wall time for SCC    0.01 s
speedup  1.01
cpu  time for grad    0.01 s
wall time for grad    0.01 s
 E :    -50.46267892  G :  0.000975    pred/act E change: -0.265D-05 -0.414D-05
Maxdispl :   0.0485   ||displ|| :   0.0673   Lambda : -0.603D-05
Largest |displ|/coords:  0.0485 (   3)  0.0204 (   2)  0.0171 (   8)
................................................................................
.............................. CYCLE   51 ......................................
................................................................................
   1    -50.7451521 -0.507452E+02  0.265E-02    9.38       0.0  T
   2    -50.7451522 -0.177794E-06  0.199E-02    9.38       1.0  T
   3    -50.7451524 -0.149417E-06  0.259E-03    9.38       7.6  T
   4    -50.7451524 -0.212569E-07  0.145E-03    9.38      13.6  T
   5    -50.7451524 -0.198671E-08  0.278E-04    9.38      70.5  T
   6    -50.7451524 -0.859757E-10  0.184E-04    9.38     106.8  T
speedup  0.93
cpu  time for SCC    0.00 s
wall time for SCC    0.01 s
speedup  1.00
cpu  time for grad    0.01 s
wall time for grad    0.01 s
 E :    -50.46268341  G :  0.001073    pred/act E change: -0.280D-05 -0.449D-05
Maxdispl :   0.0640   ||displ|| :   0.0881   Lambda : -0.689D-05
Largest |displ|/coords:  0.0640 (   3)  0.0248 (   2)  0.0208 (  11)
................................................................................
.............................. CYCLE   52 ......................................
................................................................................
   1    -50.7450870 -0.507451E+02  0.343E-02    9.39       0.0  T
   2    -50.7450873 -0.275766E-06  0.257E-02    9.38       1.0  T
   3    -50.7450875 -0.220777E-06  0.316E-03    9.38       6.2  T
   4    -50.7450875 -0.361139E-07  0.170E-03    9.38      11.5  T
   5    -50.7450875 -0.264816E-08  0.326E-04    9.38      60.2  T
   6    -50.7450875 -0.130861E-09  0.214E-04    9.38      91.7  T
speedup  0.91
cpu  time for SCC    0.00 s
wall time for SCC    0.01 s
speedup  0.93
cpu  time for grad    0.01 s
wall time for grad    0.01 s
 E :    -50.46268862  G :  0.001349    pred/act E change: -0.303D-05 -0.520D-05
Maxdispl :   0.0857   ||displ|| :   0.1179   Lambda : -0.852D-05
Largest |displ|/coords:  0.0857 (   3)  0.0315 (   2)  0.0305 (   1)

generating ANC from model Hessian ...
 Shifting diagonal of input Hessian by   4.988370670638037E-003
 Lowest  eigenvalues of input Hessian
   -0.000000    0.000000    0.000000    0.000000    0.000000    0.000000
    0.005000    0.005264    0.005844    0.006131    0.006256    0.006817
    0.007066    0.007614    0.008479    0.009163    0.011019    0.012448
 Highest eigenvalues
    1.399395    1.404185    1.430776    2.772639    3.335382    3.610010
 
cpu  time for ANC gen    0.01 s
wall time for ANC gen    0.01 s
................................................................................
.............................. CYCLE   53 ......................................
................................................................................
   1    -50.7449381 -0.507449E+02  0.472E-02    9.38       0.0  T
   2    -50.7449385 -0.434376E-06  0.355E-02    9.38       1.0  T
   3    -50.7449389 -0.394692E-06  0.399E-03    9.38       4.9  T
   4    -50.7449390 -0.496498E-07  0.199E-03    9.38       9.9  T
   5    -50.7449390 -0.333208E-08  0.416E-04    9.38      47.1  T
   6    -50.7449390 -0.199165E-09  0.272E-04    9.38      72.2  T
speedup  0.91
cpu  time for SCC    0.00 s
wall time for SCC    0.01 s
speedup  1.01
cpu  time for grad    0.01 s
wall time for grad    0.01 s
 E :    -50.46269500  G :  0.001680    pred/act E change:  0.000D+00 -0.638D-05
Maxdispl :   0.0087   ||displ|| :   0.0200   Lambda : -0.813D-05
Largest |displ|/coords:  0.0087 (   2)  0.0064 (  13)  0.0062 (  10)
................................................................................
.............................. CYCLE   54 ......................................
................................................................................
   1    -50.7450778 -0.507451E+02  0.180E-02    9.38       0.0  T
   2    -50.7450778 -0.441160E-07  0.136E-02    9.38       1.4  T
   3    -50.7450779 -0.441082E-07  0.145E-03    9.38      13.5  T
   4    -50.7450779 -0.367652E-08  0.520E-04    9.38      37.7  T
   5    -50.7450779 -0.200600E-09  0.113E-04    9.38     173.4  T
speedup  1.11
cpu  time for SCC    0.00 s
wall time for SCC    0.00 s
speedup  1.01
cpu  time for grad    0.01 s
wall time for grad    0.01 s
 E :    -50.46270112  G :  0.001147    pred/act E change:  0.000D+00 -0.612D-05
Maxdispl :   0.0262   ||displ|| :   0.0440   Lambda : -0.100D-04
Largest |displ|/coords:  0.0262 (   2)  0.0164 (   1)  0.0160 (  13)
................................................................................
.............................. CYCLE   55 ......................................
................................................................................
   1    -50.7451961 -0.507452E+02  0.371E-02    9.38       0.0  T
   2    -50.7451963 -0.151377E-06  0.278E-02    9.38       1.0  T
   3    -50.7451964 -0.152816E-06  0.313E-03    9.38       6.3  T
   4    -50.7451964 -0.115891E-07  0.948E-04    9.38      20.7  T
   5    -50.7451964 -0.865626E-09  0.238E-04    9.38      82.4  T
speedup  0.89
cpu  time for SCC    0.00 s
wall time for SCC    0.00 s
speedup  1.01
cpu  time for grad    0.01 s
wall time for grad    0.01 s
 E :    -50.46270754  G :  0.000699    pred/act E change: -0.407D-05 -0.642D-05
Maxdispl :   0.0256   ||displ|| :   0.0391   Lambda : -0.412D-05
Largest |displ|/coords:  0.0256 (   2)  0.0167 (   1)  0.0119 (  13)
................................................................................
.............................. CYCLE   56 ......................................
................................................................................
   1    -50.7451456 -0.507451E+02  0.277E-02    9.38       0.0  T
   2    -50.7451457 -0.864760E-07  0.207E-02    9.38       1.0  T
   3    -50.7451458 -0.835076E-07  0.233E-03    9.38       8.4  T
   4    -50.7451458 -0.764009E-08  0.624E-04    9.38      31.4  T
   5    -50.7451458 -0.421096E-09  0.194E-04    9.38     101.0  T
speedup  0.87
cpu  time for SCC    0.00 s
wall time for SCC    0.00 s
speedup  1.00
cpu  time for grad    0.01 s
wall time for grad    0.01 s
 E :    -50.46271055  G :  0.000617    pred/act E change: -0.502D-05 -0.301D-05
Maxdispl :   0.0373   ||displ|| :   0.0522   Lambda : -0.390D-05
Largest |displ|/coords:  0.0373 (   2)  0.0245 (   1)  0.0132 (   6)
................................................................................
.............................. CYCLE   57 ......................................
................................................................................
   1    -50.7450677 -0.507451E+02  0.314E-02    9.38       0.0  T
   2    -50.7450678 -0.121564E-06  0.235E-02    9.38       1.0  T
   3    -50.7450679 -0.113083E-06  0.270E-03    9.38       7.3  T
   4    -50.7450679 -0.122310E-07  0.711E-04    9.38      27.6  T
   5    -50.7450679 -0.627033E-09  0.239E-04    9.38      81.9  T
speedup  1.06
cpu  time for SCC    0.01 s
wall time for SCC    0.00 s
speedup  0.99
cpu  time for grad    0.01 s
wall time for grad    0.01 s
 E :    -50.46271325  G :  0.000779    pred/act E change: -0.206D-05 -0.269D-05
Maxdispl :   0.0373   ||displ|| :   0.0510   Lambda : -0.310D-05
Largest |displ|/coords:  0.0373 (   2)  0.0256 (   1)  0.0132 (   6)
................................................................................
.............................. CYCLE   58 ......................................
................................................................................
   1    -50.7450415 -0.507450E+02  0.233E-02    9.38       0.0  T
   2    -50.7450416 -0.713348E-07  0.174E-02    9.38       1.1  T
   3    -50.7450416 -0.619505E-07  0.197E-03    9.38      10.0  T
   4    -50.7450416 -0.800208E-08  0.598E-04    9.38      32.8  T
   5    -50.7450416 -0.404988E-09  0.177E-04    9.38     110.5  T
speedup  1.11
cpu  time for SCC    0.00 s
wall time for SCC    0.00 s
speedup  0.99
cpu  time for grad    0.01 s
wall time for grad    0.01 s
 E :    -50.46271560  G :  0.000849    pred/act E change: -0.196D-05 -0.235D-05
Maxdispl :   0.0622   ||displ|| :   0.0832   Lambda : -0.443D-05
Largest |displ|/coords:  0.0622 (   2)  0.0427 (   1)  0.0182 (   6)
................................................................................
.............................. CYCLE   59 ......................................
................................................................................
   1    -50.7450205 -0.507450E+02  0.346E-02    9.37       0.0  T
   2    -50.7450207 -0.167528E-06  0.260E-02    9.37       1.0  T
   3    -50.7450208 -0.161146E-06  0.302E-03    9.37       6.5  T
   4    -50.7450208 -0.169756E-07  0.106E-03    9.37      18.5  T
   5    -50.7450208 -0.105683E-08  0.280E-04    9.37      70.1  T
   6    -50.7450208 -0.633733E-10  0.177E-04    9.37     110.7  T
speedup  1.07
cpu  time for SCC    0.01 s
wall time for SCC    0.01 s
speedup  0.93
cpu  time for grad    0.01 s
wall time for grad    0.01 s
 E :    -50.46271880  G :  0.000943    pred/act E change: -0.155D-05 -0.320D-05
Maxdispl :   0.0704   ||displ|| :   0.0945   Lambda : -0.432D-05
Largest |displ|/coords:  0.0704 (   2)  0.0476 (   1)  0.0190 (   6)
................................................................................
.............................. CYCLE   60 ......................................
................................................................................
   1    -50.7450235 -0.507450E+02  0.355E-02    9.37       0.0  T
   2    -50.7450237 -0.162933E-06  0.267E-02    9.37       1.0  T
   3    -50.7450238 -0.175551E-06  0.275E-03    9.37       7.1  T
   4    -50.7450239 -0.133957E-07  0.112E-03    9.37      17.5  T
   5    -50.7450239 -0.107548E-08  0.285E-04    9.37      68.9  T
   6    -50.7450239 -0.628901E-10  0.186E-04    9.37     105.4  T
speedup  0.94
cpu  time for SCC    0.00 s
wall time for SCC    0.01 s
speedup  1.02
cpu  time for grad    0.01 s
wall time for grad    0.01 s
 E :    -50.46272193  G :  0.001002    pred/act E change: -0.223D-05 -0.313D-05
Maxdispl :   0.0748   ||displ|| :   0.1002   Lambda : -0.394D-05
Largest |displ|/coords:  0.0748 (   2)  0.0494 (   1)  0.0182 (   8)
................................................................................
.............................. CYCLE   61 ......................................
................................................................................
   1    -50.7450004 -0.507450E+02  0.383E-02    9.37       0.0  T
   2    -50.7450006 -0.188194E-06  0.289E-02    9.37       1.0  T
   3    -50.7450008 -0.230285E-06  0.279E-03    9.37       7.0  T
   4    -50.7450009 -0.110711E-07  0.103E-03    9.37      19.1  T
   5    -50.7450009 -0.117130E-08  0.321E-04    9.37      61.2  T
   6    -50.7450009 -0.900258E-10  0.201E-04    9.37      97.8  T
speedup  1.11
cpu  time for SCC    0.01 s
wall time for SCC    0.01 s
speedup  1.06
cpu  time for grad    0.01 s
wall time for grad    0.01 s
 E :    -50.46272474  G :  0.001006    pred/act E change: -0.218D-05 -0.282D-05
Maxdispl :   0.0584   ||displ|| :   0.0791   Lambda : -0.324D-05
Largest |displ|/coords:  0.0584 (   2)  0.0360 (   1)  0.0164 (   5)
................................................................................
.............................. CYCLE   62 ......................................
................................................................................
   1    -50.7450356 -0.507450E+02  0.294E-02    9.38       0.0  T
   2    -50.7450358 -0.131843E-06  0.222E-02    9.38       1.0  T
   3    -50.7450359 -0.160684E-06  0.195E-03    9.38      10.1  T
   4    -50.7450359 -0.835968E-08  0.740E-04    9.38      26.5  T
   5    -50.7450359 -0.677744E-09  0.272E-04    9.38      72.1  T
speedup  1.11
cpu  time for SCC    0.01 s
wall time for SCC    0.00 s
speedup  1.07
cpu  time for grad    0.01 s
wall time for grad    0.01 s
 E :    -50.46272703  G :  0.000894    pred/act E change: -0.199D-05 -0.228D-05
Maxdispl :   0.0640   ||displ|| :   0.0852   Lambda : -0.278D-05
Largest |displ|/coords:  0.0640 (   2)  0.0376 (   1)  0.0154 (   5)
................................................................................
.............................. CYCLE   63 ......................................
................................................................................
   1    -50.7448891 -0.507449E+02  0.358E-02    9.38       0.0  T
   2    -50.7448893 -0.177223E-06  0.271E-02    9.38       1.0  T
   3    -50.7448895 -0.220628E-06  0.235E-03    9.38       8.3  T
   4    -50.7448895 -0.990133E-08  0.844E-04    9.38      23.2  T
   5    -50.7448895 -0.952078E-09  0.309E-04    9.38      63.5  T
speedup  0.89
cpu  time for SCC    0.00 s
wall time for SCC    0.00 s
speedup  1.00
cpu  time for grad    0.01 s
wall time for grad    0.01 s
 E :    -50.46272876  G :  0.000715    pred/act E change: -0.163D-05 -0.173D-05
Maxdispl :   0.0186   ||displ|| :   0.0359   Lambda : -0.282D-05
Largest |displ|/coords:  0.0186 (   2)  0.0182 (  13)  0.0108 (   5)
................................................................................
.............................. CYCLE   64 ......................................
................................................................................
   1    -50.7450568 -0.507451E+02  0.189E-02    9.39       0.0  T
   2    -50.7450569 -0.118092E-06  0.143E-02    9.39       1.4  T
   3    -50.7450570 -0.106253E-06  0.197E-03    9.39       9.9  T
   4    -50.7450571 -0.139161E-07  0.890E-04    9.39      22.0  T
   5    -50.7450571 -0.101551E-08  0.226E-04    9.39      86.7  T
speedup  0.87
cpu  time for SCC    0.00 s
wall time for SCC    0.00 s
speedup  0.98
cpu  time for grad    0.01 s
wall time for grad    0.01 s
 E :    -50.46272983  G :  0.000973    pred/act E change: -0.140D-05 -0.107D-05
Maxdispl :   0.0192   ||displ|| :   0.0263   Lambda : -0.153D-05
Largest |displ|/coords:  0.0192 (   2)  0.0092 (   1)  0.0059 (  10)
................................................................................
[...]
   5    -50.7443432 -0.417671E-09  0.192E-04    9.46     102.4  T
speedup  1.11
cpu  time for SCC    0.00 s
wall time for SCC    0.00 s
speedup  1.00
cpu  time for grad    0.01 s
wall time for grad    0.01 s
 E :    -50.46278175  G :  0.000305    pred/act E change: -0.172D-05 -0.607D-06
Maxdispl :   0.0207   ||displ|| :   0.0338   Lambda : -0.848D-06
Largest |displ|/coords:  0.0207 (   3)  0.0113 (   7)  0.0102 (   5)
................................................................................
.............................. CYCLE  110 ......................................
................................................................................
   1    -50.7444379 -0.507444E+02  0.173E-02    9.46       0.0  T
   2    -50.7444379 -0.397208E-07  0.130E-02    9.46       1.5  T
   3    -50.7444380 -0.404791E-07  0.124E-03    9.46      15.8  T
   4    -50.7444380 -0.383906E-08  0.486E-04    9.46      40.3  T
   5    -50.7444380 -0.266070E-09  0.137E-04    9.46     143.1  T
speedup  0.89
cpu  time for SCC    0.00 s
wall time for SCC    0.00 s
speedup  1.01
cpu  time for grad    0.01 s
wall time for grad    0.01 s
 E :    -50.46278236  G :  0.000287    pred/act E change: -0.410D-06 -0.618D-06
Maxdispl :   0.0181   ||displ|| :   0.0343   Lambda : -0.981D-06
Largest |displ|/coords:  0.0181 (   3)  0.0174 (   1)  0.0104 (   5)
................................................................................
.............................. CYCLE  111 ......................................
................................................................................
   1    -50.7445014 -0.507445E+02  0.171E-02    9.47       0.0  T
   2    -50.7445014 -0.358750E-07  0.129E-02    9.47       1.5  T
   3    -50.7445014 -0.305806E-07  0.102E-03    9.46      19.2  T
   4    -50.7445014 -0.466980E-08  0.469E-04    9.46      41.8  T
   5    -50.7445014 -0.208132E-09  0.117E-04    9.46     167.2  T
speedup  0.89
cpu  time for SCC    0.00 s
wall time for SCC    0.00 s
speedup  1.01
cpu  time for grad    0.01 s
wall time for grad    0.01 s
 E :    -50.46278305  G :  0.000358    pred/act E change: -0.425D-06 -0.691D-06
Maxdispl :   0.0235   ||displ|| :   0.0380   Lambda : -0.917D-06
Largest |displ|/coords:  0.0235 (   1)  0.0171 (   2)  0.0127 (   6)
................................................................................
.............................. CYCLE  112 ......................................
................................................................................
   1    -50.7444857 -0.507445E+02  0.194E-02    9.47       0.0  T
   2    -50.7444857 -0.323746E-07  0.146E-02    9.47       1.3  T
   3    -50.7444858 -0.334773E-07  0.102E-03    9.47      19.2  T
   4    -50.7444858 -0.290827E-08  0.426E-04    9.47      46.1  T
   5    -50.7444858 -0.143956E-09  0.124E-04    9.47     158.3  T
speedup  1.14
cpu  time for SCC    0.01 s
wall time for SCC    0.00 s
speedup  1.01
cpu  time for grad    0.01 s
wall time for grad    0.01 s
 E :    -50.46278365  G :  0.000448    pred/act E change: -0.491D-06 -0.597D-06
Maxdispl :   0.0184   ||displ|| :   0.0306   Lambda : -0.553D-06
Largest |displ|/coords:  0.0184 (   2)  0.0182 (   1)  0.0112 (   6)

generating ANC from model Hessian ...
 Shifting diagonal of input Hessian by   5.029293791558483E-003
 Lowest  eigenvalues of input Hessian
    0.005000   -0.000000   -0.000000   -0.000000   -0.000000    0.000000
    0.000000    0.005293    0.005495    0.005854    0.006208    0.006614
    0.006998    0.007610    0.008175    0.008322    0.009914    0.011882
 Highest eigenvalues
    1.394156    1.404411    1.431608    2.806064    3.368636    3.572294
 
cpu  time for ANC gen    0.01 s
wall time for ANC gen    0.01 s
................................................................................
.............................. CYCLE  113 ......................................
................................................................................
   1    -50.7444570 -0.507445E+02  0.151E-02    9.46       0.0  T
   2    -50.7444570 -0.186873E-07  0.114E-02    9.46       1.7  T
   3    -50.7444570 -0.231158E-07  0.916E-04    9.46      21.4  T
   4    -50.7444570 -0.102435E-08  0.265E-04    9.46      74.1  T
speedup  1.11
cpu  time for SCC    0.00 s
wall time for SCC    0.00 s
speedup  1.00
cpu  time for grad    0.01 s
wall time for grad    0.01 s
 E :    -50.46278403  G :  0.000409    pred/act E change:  0.000D+00 -0.378D-06
Maxdispl :   0.0019   ||displ|| :   0.0034   Lambda : -0.234D-06
Largest |displ|/coords:  0.0019 (   5)  0.0011 (   9)  0.0010 (   7)
................................................................................
.............................. CYCLE  114 ......................................
................................................................................
   1    -50.7444478 -0.507444E+02  0.222E-03    9.46       0.0  T
   2    -50.7444478 -0.158730E-08  0.168E-03    9.46      11.7  T
   3    -50.7444478 -0.819909E-09  0.254E-04    9.46      77.2  T
   4    -50.7444478 -0.284409E-09  0.107E-04    9.46     183.8  T
speedup  0.83
cpu  time for SCC    0.00 s
wall time for SCC    0.00 s
speedup  1.01
cpu  time for grad    0.01 s
wall time for grad    0.01 s
 E :    -50.46278422  G :  0.000278    pred/act E change:  0.000D+00 -0.190D-06
Maxdispl :   0.0079   ||displ|| :   0.0124   Lambda : -0.594D-06
Largest |displ|/coords:  0.0079 (   5)  0.0038 (   9)  0.0037 (   7)
................................................................................
.............................. CYCLE  115 ......................................
................................................................................
   1    -50.7444070 -0.507444E+02  0.653E-03    9.46       0.0  T
   2    -50.7444070 -0.127007E-07  0.491E-03    9.46       4.0  T
   3    -50.7444070 -0.693868E-08  0.716E-04    9.46      27.4  T
   4    -50.7444070 -0.221718E-08  0.327E-04    9.46      60.0  T
speedup  1.11
cpu  time for SCC    0.00 s
wall time for SCC    0.00 s
speedup  1.00
cpu  time for grad    0.01 s
wall time for grad    0.01 s
 E :    -50.46278456  G :  0.000242    pred/act E change: -0.117D-06 -0.342D-06
Maxdispl :   0.0039   ||displ|| :   0.0061   Lambda : -0.136D-06
Largest |displ|/coords:  0.0039 (   5)  0.0018 (   7)  0.0017 (  14)
................................................................................
.............................. CYCLE  116 ......................................
................................................................................
   1    -50.7443921 -0.507444E+02  0.296E-03    9.46       0.0  T
   2    -50.7443921 -0.176721E-08  0.222E-03    9.46       8.8  T
   3    -50.7443921 -0.133146E-08  0.283E-04    9.46      69.2  T
   4    -50.7443921 -0.251298E-09  0.120E-04    9.46     163.3  T
speedup  1.11
cpu  time for SCC    0.00 s
wall time for SCC    0.00 s
speedup  1.00
cpu  time for grad    0.01 s
wall time for grad    0.01 s
 E :    -50.46278468  G :  0.000213    pred/act E change: -0.297D-06 -0.115D-06
Maxdispl :   0.0102   ||displ|| :   0.0157   Lambda : -0.282D-06
Largest |displ|/coords:  0.0102 (   5)  0.0056 (   7)  0.0049 (   2)
................................................................................
.............................. CYCLE  117 ......................................
................................................................................
   1    -50.7443670 -0.507444E+02  0.747E-03    9.46       0.0  T
   2    -50.7443670 -0.804672E-08  0.561E-03    9.46       3.5  T
   3    -50.7443670 -0.767596E-08  0.561E-04    9.46      35.0  T
   4    -50.7443670 -0.855330E-09  0.232E-04    9.46      84.4  T
speedup  0.83
cpu  time for SCC    0.00 s
wall time for SCC    0.00 s
speedup  1.00
cpu  time for grad    0.01 s
wall time for grad    0.01 s
 E :    -50.46278486  G :  0.000223    pred/act E change: -0.681D-07 -0.184D-06
Maxdispl :   0.0055   ||displ|| :   0.0085   Lambda : -0.118D-06
Largest |displ|/coords:  0.0055 (   5)  0.0035 (   2)  0.0033 (   7)
................................................................................
.............................. CYCLE  118 ......................................
................................................................................
   1    -50.7443729 -0.507444E+02  0.410E-03    9.46       0.0  T
   2    -50.7443729 -0.176865E-08  0.308E-03    9.46       6.4  T
   3    -50.7443729 -0.198584E-08  0.259E-04    9.46      75.6  T
   4    -50.7443729 -0.122924E-09  0.888E-05    9.46     220.8  T
speedup  1.11
cpu  time for SCC    0.00 s
wall time for SCC    0.00 s
speedup  1.00
cpu  time for grad    0.01 s
wall time for grad    0.01 s
 E :    -50.46278495  G :  0.000190    pred/act E change: -0.141D-06 -0.914D-07
Maxdispl :   0.0088   ||displ|| :   0.0147   Lambda : -0.171D-06
Largest |displ|/coords:  0.0088 (   5)  0.0068 (   2)  0.0066 (   7)

   *** GEOMETRY OPTIMIZATION CONVERGED AFTER 118 ITERATIONS ***

------------------------------------------------------------------------
 total energy gain (kcal):     -0.0006
------------------------------------------------------------------------
================
 final structure:
================
$coord
       -2.11512928457066        0.99071269432694       -0.12263946685029      S 
       -2.94389016897003       -1.40510177346428        0.99906917499621      O 
        0.05090185334492        0.53255936888058       -1.78616709347158      O 
       -4.33369421422634        1.89733783339330       -1.81070629084967      O 
       -1.58258540288880        2.91678892090492        1.74852173559968      O 
        1.20209882310503        4.81395358959346       -4.11944282269748      O 
        0.95265118427589        3.20773572877798       -3.22648381620510      H 
        1.14712582489366        4.42235603684574       -5.88726894851770      H 
        4.38179855768932       -2.36827367635973        3.42838540888799      O 
        2.80873478749016       -1.65077738600781        4.13072394395099      H 
        5.70630125029997       -1.24955013809308        3.95163100561812      H 
        0.10109494772615       -0.33915134237339        5.12034206141173      O 
       -0.31124137293914        1.14959694548355        4.10315651074858      H 
       -1.31797169101450       -1.43793557454168        4.83634814143621      H 
       -2.87550875376239        6.51355242884433       -1.60167787058517      O 
       -2.31088450241355        6.05298936078860        0.07911452182544      H 
       -1.36252075676202        6.39097885390528       -2.66111624366987      H 
       -4.06577833745975        3.76937137436452       -1.93115123888783      H 
        3.44496446536992       -3.07997592795792       -1.43805745182676      O 
        4.09501658487549       -2.84194634658811        0.29454542930871      H 
        1.23356292045010       -4.63995678200431       -0.98160290483481      H 
        2.47345752229339       -1.53713813687399       -1.79312794877082      H 
       -0.65192309075536       -5.42506830869754       -0.46791631804913      N 
       -0.50578428999649       -6.65714913598636        0.99461329612421      H 
       -1.50193404342208       -6.25455363716038       -1.97220415131336      H 
       -1.71886281260322       -3.77135491329554        0.11311129880977      H 
$end
 
 Bond Distances (Angstroems)
 ---------------------------
S1-O2=1.4670         S1-O3=1.4654         S1-O4=1.5513         S1-O5=1.4487         O2-S1=1.4670         O3-S1=1.4654         
O4-S1=1.5513         O4-H18=1.0028        O5-S1=1.4487         O6-H7=0.9814         O6-H8=0.9586         H7-O6=0.9814         
H8-O6=0.9586         O9-H10=0.9875        O9-H11=0.9583        H10-O9=0.9875        H11-O9=0.9583        O12-H13=0.9788       
O12-H14=0.9616       H13-O12=0.9788       H14-O12=0.9616       O15-H16=0.9694       O15-H17=0.9796       H16-O15=0.9694       
H17-O15=0.9796       H18-O4=1.0028        O19-H20=0.9873       O19-H22=0.9829       H20-O19=0.9873       H21-N23=1.1145       
H22-O19=0.9829       N23-H21=1.1145       N23-H24=1.0149       N23-H25=1.0142       N23-H26=1.0859       H24-N23=1.0149       
H25-N23=1.0142       H26-N23=1.0859       
 N  H  Rav=1.0574 sigma=0.0440  Rmin=1.0142  Rmax=1.1145     4
 O  H  Rav=0.9771 sigma=0.0132  Rmin=0.9583  Rmax=1.0028    11
 S  O  Rav=1.4831 sigma=0.0400  Rmin=1.4487  Rmax=1.5513     4
 
 selected bond angles (degree)
 --------------------
O3-S1-O2=109.51                O4-S1-O2=105.90                O4-S1-O3=107.29                O5-S1-O2=112.93                
O5-S1-O3=112.01                O5-S1-O4=108.86                H18-O4-S1=103.60               H8-O6-H7=106.17                
H11-O9-H10=105.68              
 
 selected dihedral angles (degree)
 ---------------------------------
H18-O4-S1-O2=156.52           H18-O4-S1-O3=273.41           H18-O4-S1-O5= 34.82           
 
 CMA Distance (Angstroems)
 ---------------------------
R(CMA):  1.6972

========================================================================
 FINAL SINGLEPOINT CALCULATION ON OPTIMIZED GEOMETRY
========================================================================

 Ncao       : 65
 Nao        : 64
 Nshell     : 38
 Nel        : 80
 T(el)      :   300.0
 intcut     :    25.0
 scfconv/Eh :  0.100E-05
   qconv/e  :  0.100E-03
 intneglect :  0.100E-07
 broydamp   :      0.250
 iter      E             dE          RMSdq      gap      omega  full diag
   1    -50.7443729 -0.507444E+02  0.302E-05    9.46       0.0  T
   2    -50.7443729 -0.930811E-12  0.197E-05    9.46     994.7  T
   3    -50.7443729 -0.454747E-12  0.437E-06    9.46    4490.9  T
speedup  1.11
cpu  time for SCC    0.00 s
wall time for SCC    0.00 s

   *** convergence criteria satisfied after 3 iterations ***

          eigenvalues
 #    :          28         29         30         31         32         33         34         35
 occ. :        2.000      2.000      2.000      2.000      2.000      2.000      2.000      2.000
 eps  :       -13.525    -13.045    -12.583    -12.385    -12.266    -12.205    -12.091    -11.971
 #    :          36         37         38         39         40         41         42         43
 occ. :        2.000      2.000      2.000      2.000      2.000      0.000      0.000      0.000
 eps  :       -11.947    -11.902    -11.865    -11.803    -11.710     -2.249     -1.104      0.087
 #    :          44         45         46         47         48         49         50         51
 occ. :        0.000      0.000      0.000      0.000      0.000      0.000      0.000      0.000
 eps  :         0.638      1.081      1.498      1.963      2.954      3.935      4.009      4.317


   #   Z            q   n(s)   n(p)   n(d)      C6AA      α(0)
   1  16 S      1.707  1.584  1.770  0.939    88.599    15.842
   2   8 O     -0.740  1.760  4.980  0.000    29.807     7.321
   3   8 O     -0.778  1.773  5.005  0.000    30.915     7.455
   4   8 O     -0.630  1.764  4.866  0.000    25.898     6.870
   5   8 O     -0.753  1.777  4.976  0.000    30.191     7.367
   6   8 O     -0.614  1.747  4.867  0.000    25.516     6.818
   7   1 H      0.319  0.681  0.000  0.000     0.667     1.283
   8   1 H      0.284  0.716  0.000  0.000     0.770     1.378
   9   8 O     -0.621  1.748  4.873  0.000    25.684     6.840
  10   1 H      0.331  0.669  0.000  0.000     0.634     1.251
  11   1 H      0.286  0.714  0.000  0.000     0.765     1.374
  12   8 O     -0.612  1.741  4.871  0.000    25.471     6.812
  13   1 H      0.319  0.681  0.000  0.000     0.666     1.282
  14   1 H      0.295  0.705  0.000  0.000     0.736     1.347
  15   8 O     -0.611  1.754  4.857  0.000    25.447     6.808
  16   1 H      0.314  0.686  0.000  0.000     0.681     1.297
  17   1 H      0.329  0.671  0.000  0.000     0.639     1.256
  18   1 H      0.379  0.621  0.000  0.000     0.518     1.128
  19   8 O     -0.604  1.758  4.846  0.000    25.246     6.783
  20   1 H      0.339  0.661  0.000  0.000     0.615     1.232
  21   1 H      0.311  0.689  0.000  0.000     0.678     1.289
  22   1 H      0.336  0.664  0.000  0.000     0.623     1.240
  23   7 N     -0.347  1.282  4.065  0.000    28.914     7.986
  24   1 H      0.230  0.770  0.000  0.000     0.964     1.538
  25   1 H      0.226  0.774  0.000  0.000     0.982     1.552
  26   1 H      0.301  0.699  0.000  0.000     0.708     1.317

 Mol. C6AA /au·bohr⁶  :       5458.666360
 Mol. C8AA /au·bohr⁸  :     118056.148277
 Mol. α(0) /au        :        106.664263

 
 Wiberg/Mayer (AO) data. WBOs > 0.1 written file <wbo>
 largest (>0.05) Wiberg bond orders for each atom
           total WBO             WBO to atom ...
     1  S   4.822    O    5 1.306    O    2 1.261    O    3 1.245    O    4 0.964
     2  O   1.756    S    1 1.261    H   26 0.149    O    3 0.102    O    5 0.099    O    4 0.064    N   23 0.056
     3  O   1.693    S    1 1.245    O    5 0.106    O    2 0.102    O    4 0.077    H    7 0.061    H   22 0.055
     4  O   1.957    S    1 0.964    H   18 0.715    O    5 0.084    O    3 0.077    O    2 0.064
     5  O   1.716    S    1 1.306    O    3 0.106    O    2 0.099    O    4 0.084    H   13 0.055
     6  O   1.858    H    8 0.916    H    7 0.834    H   17 0.051
     7  H   0.898    O    6 0.834    O    3 0.061
     8  H   0.919    O    6 0.916
     9  O   1.866    H   11 0.915    H   10 0.814    H   20 0.069
    10  H   0.890    O    9 0.814    O   12 0.074
    11  H   0.918    O    9 0.915
    12  O   1.879    H   14 0.901    H   13 0.838    H   10 0.074
    13  H   0.898    O   12 0.838    O    5 0.055
    14  H   0.913    O   12 0.901
    15  O   1.925    H   16 0.874    H   17 0.838    H   18 0.123
    16  H   0.902    O   15 0.874
    17  H   0.892    O   15 0.838    O    6 0.051
    18  H   0.856    O    4 0.715    O   15 0.123
    19  O   2.006    H   22 0.828    H   20 0.814    H   21 0.209    N   23 0.089
    20  H   0.885    O   19 0.814    O    9 0.069
    21  H   0.903    N   23 0.689    O   19 0.209
    22  H   0.887    O   19 0.828    O    3 0.055
    23  N   3.495    H   25 0.946    H   24 0.944    H   26 0.752    H   21 0.689    O   19 0.089    O    2 0.056
    24  H   0.947    N   23 0.944
    25  H   0.949    N   23 0.946
    26  H   0.909    N   23 0.752    O    2 0.149
 MOs/occ written to file <molden.input>
 
molecular dipole:
                 x           y           z       tot (Debye)
 q only:        0.453      -2.846      -0.501
   full:        0.130      -2.580      -0.505       6.690
molecular quadrupole (traceless):
                xx          xy          yy          xz          yz          zz
 q only:       -8.554       8.398      11.166       2.322       1.567      -2.611
  q+dip:       -7.622      12.318       7.977       2.298       2.567      -0.355
   full:       -7.866      12.224       8.181       2.590       2.211      -0.315

SCC energy    :     -50.7443729
rep           :       0.2813271
ES            :       0.2659413
AES           :      -0.0743397
AXC           :      -0.0093687
disp          :      -0.0189187
XB            :       0.0000000
fix           :       0.0000000
total E       :     -50.4627850
atomizationE  :       4.9930891     3133.21
(atE without considering molecular charge,
 total energy contains solvation terms)
H-L gap (eV)  :          9.4608
optimized geometry written to: xtbopt.xyz


------------------------------------------------------------------------
 * finished run on 2019/09/16 at 11:45:38.043     
------------------------------------------------------------------------
 total:
 * wall-time:     0 d,  0 h,  0 min,  2.809 sec
 *  cpu-time:     0 d,  0 h,  0 min,  2.579 sec
 * ratio c/w:     0.918 speedup
 SCF:
 * wall-time:     0 d,  0 h,  0 min,  0.137 sec
 *  cpu-time:     0 d,  0 h,  0 min,  0.133 sec
 * ratio c/w:     0.971 speedup
 ANC optimizer:
 * wall-time:     0 d,  0 h,  0 min,  2.649 sec
 *  cpu-time:     0 d,  0 h,  0 min,  2.426 sec
 * ratio c/w:     0.916 speedup

