      -----------------------------------------------------------      
     |                   =====================                   |     
     |                           x T B                           |     
     |                   =====================                   |     
     |                         S. Grimme                         |     
     |          Mulliken Center for Theoretical Chemistry        |     
     |                    University of Bonn                     |     
     |                 Version 6.0.1 (SAW181210)                 |     
      -----------------------------------------------------------      

   This program is distributed in the hope that it will be useful,
   but WITHOUT ANY WARRANTY; without even the implied warranty of
   MERCHANTABILITY or FITNESS FOR A PARTICULAR PURPOSE.
   
   FOR NON-COMMERCIAL, ACADEMIA USE ONLY.
   
   Cite this work as:
   S. Grimme, C. Bannwarth, P. Shushkov, J. Comput. Theory Chem., 2017,
   13, 1989-2009.
   C. Bannwarth, S. Ehlert and S. Grimme., ChemRxiv, 2018, preprint.
   http://doi.org/10.26434/chemrxiv.7246238.v1
   
   for sTDA-xTB:
   S. Grimme and C. Bannwarth, J. Chem. Phys., 2016, 145, 054103.
   
   in the mass-spec context:
   V. Asgeirsson, C. Bauer and S. Grimme, Chem. Sci., 2017, 8, 4879.
   
   if GBSA is used:
   P. Shushkov, F. März and S. Grimme, unpublished.
   
   for ANC optimizer:
   S. Grimme, unpublished.
   Rational Function algorithm used in ANCopt:
   F. Eckert, P. Pulay, H.-J. Werner, J. Comput. Chem., 1997, 18, 1473.
   
   with help from (in alphabetical order)
   C. Bannwarth, F. Bohle, G. Brandenburg, E. Caldeweyher, M. Checinski,
   S. Dohm, S. Ehlert, S. Ehrlich, F. März, H. Neugebauer, J. Pisarek,
   P. Pracht, P. Shushkov, and S. Spicher.
   
 * started run on 2019/09/16 at 11:46:40.474     
========================================================================
 # omp threads = 1
========================================================================
number of atoms            : 26
number of electrons        : 80
charge                     : 0
spin                       : .0
first test random number   : .8365

########################################################################
# WARNING! Please study the warnings concerning your input carefully
#  - XTBPATH is not set, using XTBHOME instead
#  - the use of '-opt' is discouraged, please use '--opt' next time
#  - the use of '-chrg' is discouraged, please use '--chrg' next time
#  - the use of '-uhf' is discouraged, please use '--uhf' next time
########################################################################

           ------------------------------------------------- 
          |                 G F N 2 - x T B                 |
          | Geometry, Frequencies, Noncovalent interactions |
          |            JCTC 2018 parametrisation            |
           ------------------------------------------------- 
      method parameters     
 k(s)        :  1.8500
 k(p)        :  2.2300
 k(d)        :  2.2300
 k(f)        :  2.0000
 kEN (H0ij)  : -2.0000
 D4 a1       :  0.5200
 D4 a2       :  5.0000
 D4 s6       :  1.0000
 D4 s8       :  2.7000
 D4 s9       :  5.0000
 alphaj      :  2.0000


            Z     q(EN)     CN     RAES       Cart. coordinates
     1  S   6.0    0.67    4.17    3.99    -1.20089    -0.75226     1.45537
     2  O   6.0   -0.31    1.16    1.80     0.67222    -1.94629     3.18565
     3  O   6.0   -0.33    1.22    1.80    -1.15913    -2.07498    -1.02995
     4  O   6.0   -0.30    1.17    1.80    -3.77499    -0.94793     2.57958
     5  O   6.0   -0.34    1.28    1.80    -0.54166     1.96016     1.08618
     6  O   6.0   -0.29    2.04    1.83     3.64015    -3.80880    -0.91569
     7  H   1.0    0.17    1.04    1.43     1.88298    -3.73279    -1.38599
     8  H   1.0    0.16    0.99    1.43     3.65847    -3.68072     0.90032
     9  O   6.0   -0.30    2.06    1.83     4.99379    -0.07529    -3.94740
    10  H   1.0    0.15    0.97    1.43     6.68123    -0.31803    -4.58631
    11  H   1.0    0.16    1.05    1.44     4.67492    -1.50981    -2.87265
    12  O   6.0   -0.29    2.03    1.83    -0.83193     4.12971     5.77552
    13  H   1.0    0.15    0.97    1.43    -0.56047     5.92996     5.78052
    14  H   1.0    0.17    1.05    1.44    -0.67115     3.62341     4.03413
    15  O   6.0   -0.22    2.91    2.56     0.77959     2.41008    -3.64769
    16  H   1.0    0.15    1.08    1.44     0.31735     2.58291    -1.84594
    17  H   1.0    0.14    1.06    1.44     2.46917     1.64374    -3.86688
    18  H   1.0    0.13    1.07    1.44    -0.53121     1.50220    -4.62189
    19  O   6.0   -0.22    2.93    2.60    -2.06284    -0.41555     7.18755
    20  H   1.0    0.14    0.99    1.43    -0.55672    -1.44136     6.77625
    21  H   1.0    0.14    1.03    1.43    -1.66906     1.40921     7.25954
    22  H   1.0    0.14    1.03    1.43    -3.49062    -0.77747     6.03778
    23  N   5.0   -0.22    3.05    1.93    -2.83824    -0.48250    -5.89112
    24  H   1.0    0.11    0.99    1.43    -4.70414    -0.00346    -5.89528
    25  H   1.0    0.13    1.03    1.43    -2.54959    -1.44763    -4.24909
    26  H   1.0    0.10    0.99    1.43    -2.62723    -1.77652    -7.30252

  Z AO/shell   Hii/eV     exponent
  1     Wed Apr 25 08:07:45 CEST 2018   EN: 2.200 GM2: 0.406  GM3: 0.0800  RAES: 1.40
     1s    -10.707211    1.230000
  7     Wed Apr 25 08:07:45 CEST 2018   EN: 3.040 GM2: 0.461  GM3:-0.0640  RAES: 1.90
     2s    -16.686243    2.339881
     2p    -12.523956    2.014332
  8     Wed Apr 25 08:07:45 CEST 2018   EN: 3.440 GM2: 0.452  GM3:-0.0517  RAES: 1.80
     2s    -20.229985    2.439742
     2p    -15.503117    2.137023
 16     Tue Apr 24 11:44:34 CEST 2018   EN: 2.580 GM2: 0.340  GM3:-0.0502  RAES: 3.10
     3s    -20.029654    1.981333
     3p    -11.377694    2.025643
     3d     -0.420282    1.702555
 no old-style atom pair restraining (fixing) potential

molecular fragmentation (1/2 indicates fragments):
11111222222222222222222222
# atoms in fragment 1/2:     5    21
 fragment masses (1/2) :       96.06      109.12
CMA distance (Bohr)    :   2.639
constraining FC (au)   :  0.0500
           ------------------------------------------------- 
          |        Self-Consistent Charge Iterations        |
           ------------------------------------------------- 

 Ncao       : 65
 Nao        : 64
 Nshell     : 38
 Nel        : 80
 T(el)      :   300.0
 intcut     :    25.0
 scfconv/Eh :  0.100E-05
   qconv/e  :  0.100E-03
 intneglect :  0.100E-07
 broydamp   :      0.250
 iter      E             dE          RMSdq      gap      omega  full diag
   1    -50.5932327 -0.505932E+02  0.698E+00   10.25       0.0  T
   2    -50.6316254 -0.383927E-01  0.502E+00   10.02       1.0  T
   3    -50.6629582 -0.313328E-01  0.110E+00    7.96       1.0  T
   4    -50.6674073 -0.444904E-02  0.483E-01    7.84       1.0  T
   5    -50.6679649 -0.557694E-03  0.246E-01    7.71       1.0  T
   6    -50.6682344 -0.269435E-03  0.123E-01    7.76       1.0  T
   7    -50.6683191 -0.847280E-04  0.458E-02    7.82       1.0  T
   8    -50.6683288 -0.971683E-05  0.265E-02    7.82       1.0  T
   9    -50.6683331 -0.426292E-05  0.103E-02    7.81       1.9  T
  10    -50.6683336 -0.501454E-06  0.200E-03    7.81       9.8  T
  11    -50.6683336 -0.151773E-07  0.853E-04    7.81      23.0  T
  12    -50.6683336 -0.346589E-08  0.328E-04    7.81      59.8  T
speedup  1.01
cpu  time for SCC    0.01 s
wall time for SCC    0.01 s

   *** convergence criteria satisfied after 12 iterations ***

          eigenvalues
 #    :          28         29         30         31         32         33         34         35
 occ. :        2.000      2.000      2.000      2.000      2.000      2.000      2.000      2.000
 eps  :       -12.161    -12.117    -12.010    -11.136    -11.058    -10.764    -10.546     -9.982
 #    :          36         37         38         39         40         41         42         43
 occ. :        2.000      2.000      2.000      2.000      2.000      0.000      0.000      0.000
 eps  :        -9.836     -9.776     -9.546     -9.459     -9.406     -1.600     -0.717      0.592
 #    :          44         45         46         47         48         49         50         51
 occ. :        0.000      0.000      0.000      0.000      0.000      0.000      0.000      0.000
 eps  :         1.711      2.226      2.731      2.841      3.046      3.572      4.621      5.360


   #   Z            q   n(s)   n(p)   n(d)      C6AA      α(0)
   1  16 S      1.492  1.610  1.906  0.993    93.659    16.288
   2   8 O     -0.810  1.782  5.028  0.000    31.883     7.571
   3   8 O     -0.792  1.776  5.016  0.000    31.356     7.508
   4   8 O     -0.796  1.785  5.012  0.000    31.470     7.521
   5   8 O     -0.810  1.781  5.029  0.000    31.887     7.571
   6   8 O     -0.618  1.734  4.884  0.000    25.614     6.831
   7   1 H      0.321  0.679  0.000  0.000     0.662     1.278
   8   1 H      0.305  0.695  0.000  0.000     0.705     1.319
   9   8 O     -0.625  1.728  4.897  0.000    25.790     6.854
  10   1 H      0.288  0.712  0.000  0.000     0.759     1.369
  11   1 H      0.343  0.657  0.000  0.000     0.605     1.221
  12   8 O     -0.622  1.727  4.894  0.000    25.710     6.844
  13   1 H      0.289  0.711  0.000  0.000     0.756     1.366
  14   1 H      0.337  0.663  0.000  0.000     0.620     1.236
  15   8 O     -0.426  1.640  4.786  0.000    21.301     6.233
  16   1 H      0.406  0.594  0.000  0.000     0.473     1.081
  17   1 H      0.412  0.588  0.000  0.000     0.464     1.070
  18   1 H      0.395  0.605  0.000  0.000     0.494     1.104
  19   8 O     -0.385  1.624  4.760  0.000    20.502     6.115
  20   1 H      0.413  0.587  0.000  0.000     0.461     1.067
  21   1 H      0.420  0.580  0.000  0.000     0.450     1.054
  22   1 H      0.419  0.581  0.000  0.000     0.451     1.055
  23   7 N     -0.465  1.382  4.083  0.000    32.270     8.437
  24   1 H      0.150  0.850  0.000  0.000     1.403     1.856
  25   1 H      0.211  0.789  0.000  0.000     1.050     1.605
  26   1 H      0.149  0.851  0.000  0.000     1.411     1.861

 Mol. C6AA /au·bohr⁶  :       5523.338992
 Mol. C8AA /au·bohr⁸  :     120005.838741
 Mol. α(0) /au        :        107.314251

 
 Wiberg/Mayer (AO) data. WBOs > 0.1 written file <wbo>
 largest (>0.05) Wiberg bond orders for each atom
           total WBO             WBO to atom ...
     1  S   4.994    O    4 1.262    O    3 1.261    O    2 1.260    O    5 1.182
     2  O   1.628    S    1 1.260    O    4 0.104    O    3 0.094    O    5 0.092
     3  O   1.658    S    1 1.261    O    2 0.094    O    5 0.093    O    4 0.091
     4  O   1.653    S    1 1.262    O    2 0.104    O    3 0.091    O    5 0.091    H   22 0.070
     5  O   1.678    S    1 1.182    H   16 0.107    O    3 0.093    O    2 0.092    O    4 0.091    H   14 0.052
     6  O   1.871    H    8 0.889    H    7 0.854    H   11 0.069
     7  H   0.897    O    6 0.854
     8  H   0.907    O    6 0.889
     9  O   1.856    H   10 0.904    H   11 0.811    H   17 0.081
    10  H   0.917    O    9 0.904
    11  H   0.882    O    9 0.811    O    6 0.069
    12  O   1.848    H   13 0.905    H   14 0.831    H   21 0.065
    13  H   0.917    O   12 0.905
    14  H   0.886    O   12 0.831    O    5 0.052
    15  O   2.321    H   17 0.743    H   18 0.740    H   16 0.720
    16  H   0.835    O   15 0.720    O    5 0.107
    17  H   0.830    O   15 0.743    O    9 0.081
    18  H   0.844    O   15 0.740    N   23 0.096
    19  O   2.360    H   20 0.787    H   21 0.752    H   22 0.747
    20  H   0.829    O   19 0.787
    21  H   0.824    O   19 0.752    O   12 0.065
    22  H   0.824    O   19 0.747    O    4 0.070
    23  N   3.021    H   24 0.974    H   26 0.973    H   25 0.914    H   18 0.096
    24  H   0.978    N   23 0.974
    25  H   0.955    N   23 0.914
    26  H   0.978    N   23 0.973
 MOs/occ written to file <molden.input>
 
molecular dipole:
                 x           y           z       tot (Debye)
 q only:        0.724       1.878       0.342
   full:        0.539       1.515       0.249       4.136
molecular quadrupole (traceless):
                xx          xy          yy          xz          yz          zz
 q only:      -14.728       0.226     -14.714      -7.567      -0.117      29.441
  q+dip:      -10.447       1.086     -12.367      -3.075       4.794      22.814
   full:      -10.458       0.914     -12.469      -3.198       4.846      22.927

SCC energy    :     -50.6683336
rep           :       0.2897920
ES            :       0.3512140
AES           :      -0.0832959
AXC           :      -0.0089446
disp          :      -0.0181879
XB            :       0.0000000
fix           :       0.0000000
total E       :     -50.3783639
atomizationE  :       4.9086681     3080.24
(atE without considering molecular charge,
 total energy contains solvation terms)
H-L gap (eV)  :          7.8064
           ------------------------------------------------- 
          |                 ===============                 |
          |                   A N C O P T                   |
          |                 ===============                 |
          |          Approximate Normal Coordinate          |
          |           Rational Function Optimizer           |
           ------------------------------------------------- 
dumping coords to <xtbopt.coord> and <xtbopt.log>
 optlevel               2
 Maxcycle             520
 Maxmicro              25
 Econv         1.000000000000000E-007
 Gconv         2.000000000000000E-004
 Maxdispl       1.00000000000000     
 Hlow          5.000000000000000E-003
 S6             20.0000000000000     
 Nvar               72

generating ANC from model Hessian ...
 Shifting diagonal of input Hessian by   5.140773798713531E-003
 Lowest  eigenvalues of input Hessian
    0.005000   -0.000000   -0.000000   -0.000000   -0.000000    0.000000
    0.000000    0.005224    0.005333    0.005454    0.005543    0.005648
    0.005844    0.006074    0.006417    0.006613    0.006985    0.007267
 Highest eigenvalues
    1.552355    1.554053    1.562623    3.073111    3.077887    3.084842
 
cpu  time for ANC gen    0.01 s
wall time for ANC gen    0.01 s
................................................................................
.............................. CYCLE    1 ......................................
................................................................................
   1    -50.6683336 -0.506683E+02  0.807E-05    7.81       0.0  T
   2    -50.6683336 -0.149285E-10  0.624E-05    7.81     314.5  T
   3    -50.6683336 -0.111982E-10  0.327E-05    7.81     600.4  T
speedup  1.03
cpu  time for SCC    0.00 s
wall time for SCC    0.00 s
speedup  0.98
cpu  time for grad    0.01 s
wall time for grad    0.01 s
 E :    -50.37836389  G :  0.119489    pred/act E change:  0.000D+00  0.132D-07
Maxdispl :   0.2289   ||displ|| :   0.5740   Lambda : -0.340D-01
Largest |displ|/coords:  0.2289 (  27)  0.2210 (  29)  0.1908 (  26)
................................................................................
.............................. CYCLE    2 ......................................
................................................................................
   1    -50.6792239 -0.506792E+02  0.435E-01    8.43       0.0  T
   2    -50.6794105 -0.186607E-03  0.323E-01    8.51       1.0  T
   3    -50.6795153 -0.104756E-03  0.731E-02    8.69       1.0  T
   4    -50.6795345 -0.191911E-04  0.232E-02    8.68       1.0  T
   5    -50.6795353 -0.790315E-06  0.848E-03    8.67       2.3  T
   6    -50.6795355 -0.182339E-06  0.448E-03    8.67       4.4  T
   7    -50.6795355 -0.822383E-07  0.213E-03    8.67       9.2  T
speedup  1.11
cpu  time for SCC    0.01 s
wall time for SCC    0.01 s
speedup  1.01
cpu  time for grad    0.01 s
wall time for grad    0.01 s
 E :    -50.40902643  G :  0.079277    pred/act E change:  0.000D+00 -0.307D-01
Maxdispl :   0.2976   ||displ|| :   0.6419   Lambda : -0.276D-01
Largest |displ|/coords:  0.2976 (  29)  0.2495 (  27)  0.1974 (  26)
................................................................................
.............................. CYCLE    3 ......................................
................................................................................
   1    -50.6875074 -0.506875E+02  0.500E-01    8.95       0.0  T
   2    -50.6882125 -0.705000E-03  0.360E-01    9.01       1.0  T
   3    -50.6885328 -0.320375E-03  0.122E-01    9.12       1.0  T
   4    -50.6885701 -0.372950E-04  0.351E-02    9.13       1.0  T
   5    -50.6885719 -0.179626E-05  0.138E-02    9.13       1.4  T
   6    -50.6885723 -0.414071E-06  0.673E-03    9.13       2.9  T
   7    -50.6885725 -0.184690E-06  0.319E-03    9.12       6.2  T
   8    -50.6885726 -0.623961E-07  0.905E-04    9.12      21.7  T
speedup  1.00
cpu  time for SCC    0.01 s
wall time for SCC    0.01 s
speedup  0.95
cpu  time for grad    0.01 s
wall time for grad    0.01 s
 E :    -50.43176583  G :  0.050231    pred/act E change: -0.226D-01 -0.227D-01
Maxdispl :   0.2405   ||displ|| :   0.5935   Lambda : -0.143D-01
Largest |displ|/coords:  0.2405 (  29)  0.2345 (  27)  0.1729 (  16)
................................................................................
.............................. CYCLE    4 ......................................
................................................................................
   1    -50.6897874 -0.506898E+02  0.475E-01    9.30       0.0  T
   2    -50.6909286 -0.114112E-02  0.331E-01    9.33       1.0  T
   3    -50.6914304 -0.501867E-03  0.137E-01    9.36       1.0  T
   4    -50.6914590 -0.285574E-04  0.408E-02    9.37       1.0  T
   5    -50.6914616 -0.259970E-05  0.164E-02    9.37       1.2  T
   6    -50.6914621 -0.471452E-06  0.772E-03    9.37       2.5  T
   7    -50.6914623 -0.231007E-06  0.328E-03    9.37       6.0  T
   8    -50.6914623 -0.621677E-07  0.113E-03    9.37      17.4  T
speedup  1.00
cpu  time for SCC    0.01 s
wall time for SCC    0.01 s
speedup  1.02
cpu  time for grad    0.01 s
wall time for grad    0.01 s
 E :    -50.44005720  G :  0.046005    pred/act E change: -0.195D-01 -0.829D-02
Maxdispl :   0.1772   ||displ|| :   0.4095   Lambda : -0.539D-02
Largest |displ|/coords:  0.1772 (  27)  0.1512 (  14)  0.1259 (  28)
................................................................................
.............................. CYCLE    5 ......................................
................................................................................
   1    -50.6949463 -0.506949E+02  0.230E-01    9.50       0.0  T
   2    -50.6950448 -0.984980E-04  0.165E-01    9.51       1.0  T
   3    -50.6950906 -0.457822E-04  0.467E-02    9.52       1.0  T
   4    -50.6950966 -0.601778E-05  0.128E-02    9.52       1.5  T
   5    -50.6950969 -0.311816E-06  0.402E-03    9.52       4.9  T
   6    -50.6950969 -0.212847E-07  0.188E-03    9.52      10.4  T
speedup  0.93
cpu  time for SCC    0.00 s
wall time for SCC    0.01 s
speedup  0.99
cpu  time for grad    0.01 s
wall time for grad    0.01 s
 E :    -50.44259556  G :  0.041095    pred/act E change: -0.970D-02 -0.254D-02
Maxdispl :   0.1770   ||displ|| :   0.4226   Lambda : -0.435D-02
Largest |displ|/coords:  0.1770 (  14)  0.1509 (  19)  0.1232 (  17)
................................................................................
.............................. CYCLE    6 ......................................
................................................................................
   1    -50.7054769 -0.507055E+02  0.244E-01    9.64       0.0  T
   2    -50.7055896 -0.112705E-03  0.179E-01    9.64       1.0  T
   3    -50.7056396 -0.500552E-04  0.565E-02    9.64       1.0  T
   4    -50.7056501 -0.104510E-04  0.173E-02    9.65       1.1  T
   5    -50.7056506 -0.514478E-06  0.576E-03    9.65       3.4  T
   6    -50.7056506 -0.352546E-07  0.284E-03    9.65       6.9  T
speedup  0.94
cpu  time for SCC    0.01 s
wall time for SCC    0.01 s
speedup  0.98
cpu  time for grad    0.01 s
wall time for grad    0.01 s
 E :    -50.44559725  G :  0.033134    pred/act E change: -0.315D-02 -0.300D-02
Maxdispl :   0.2245   ||displ|| :   0.5302   Lambda : -0.478D-02
Largest |displ|/coords:  0.2245 (  14)  0.2130 (  21)  0.1561 (  13)
................................................................................
.............................. CYCLE    7 ......................................
................................................................................
   1    -50.7205736 -0.507206E+02  0.383E-01    9.75       0.0  T
   2    -50.7209833 -0.409736E-03  0.289E-01    9.74       1.0  T
   3    -50.7211712 -0.187879E-03  0.124E-01    9.73       1.0  T
   4    -50.7211970 -0.258107E-04  0.406E-02    9.74       1.0  T
   5    -50.7212003 -0.323689E-05  0.104E-02    9.74       1.9  T
   6    -50.7212004 -0.101009E-06  0.540E-03    9.74       3.6  T
   7    -50.7212004 -0.376820E-07  0.147E-03    9.74      13.4  T
speedup  0.81
cpu  time for SCC    0.00 s
wall time for SCC    0.01 s
speedup  0.91
cpu  time for grad    0.01 s
wall time for grad    0.01 s
 E :    -50.44855578  G :  0.039499    pred/act E change: -0.256D-02 -0.296D-02
Maxdispl :   0.2638   ||displ|| :   0.5547   Lambda : -0.495D-02
Largest |displ|/coords:  0.2638 (  16)  0.1810 (   7)  0.1551 (  33)
................................................................................
.............................. CYCLE    8 ......................................
................................................................................
   1    -50.7367778 -0.507368E+02  0.455E-01    9.70       0.0  T
   2    -50.7370944 -0.316630E-03  0.337E-01    9.71       1.0  T
   3    -50.7372782 -0.183747E-03  0.118E-01    9.73       1.0  T
   4    -50.7373043 -0.261230E-04  0.343E-02    9.73       1.0  T
   5    -50.7373065 -0.226725E-05  0.117E-02    9.74       1.7  T
   6    -50.7373066 -0.969699E-07  0.617E-03    9.74       3.2  T
   7    -50.7373067 -0.575089E-07  0.175E-03    9.74      11.2  T
   8    -50.7373067 -0.454560E-08  0.382E-04    9.74      51.3  T
speedup  0.99
cpu  time for SCC    0.01 s
wall time for SCC    0.01 s
speedup  1.01
cpu  time for grad    0.01 s
wall time for grad    0.01 s
 E :    -50.44806251  G :  0.077612    pred/act E change: -0.306D-02  0.493D-03
Maxdispl :   0.1661   ||displ|| :   0.4313   Lambda : -0.219D-01
Largest |displ|/coords:  0.1661 (  27)  0.1520 (  29)  0.1440 (  32)
................................................................................
.............................. CYCLE    9 ......................................
................................................................................
   1    -50.7145973 -0.507146E+02  0.519E-01    9.56       0.0  T
   2    -50.7156399 -0.104257E-02  0.377E-01    9.57       1.0  T
   3    -50.7161093 -0.469474E-03  0.163E-01    9.58       1.0  T
   4    -50.7161588 -0.495041E-04  0.521E-02    9.57       1.0  T
   5    -50.7161635 -0.465288E-05  0.173E-02    9.57       1.1  T
   6    -50.7161646 -0.107593E-05  0.110E-02    9.57       1.8  T
   7    -50.7161647 -0.144616E-06  0.215E-03    9.57       9.1  T
   8    -50.7161647 -0.127939E-07  0.754E-04    9.57      26.0  T
speedup  1.00
cpu  time for SCC    0.01 s
wall time for SCC    0.01 s
speedup  1.01
cpu  time for grad    0.01 s
wall time for grad    0.01 s
 E :    -50.44802172  G :  0.044695    pred/act E change: -0.324D-02  0.408D-04
Maxdispl :   0.0909   ||displ|| :   0.2341   Lambda : -0.551D-02
Largest |displ|/coords:  0.0909 (  14)  0.0858 (  17)  0.0697 (  21)
................................................................................
.............................. CYCLE   10 ......................................
................................................................................
   1    -50.7186529 -0.507187E+02  0.225E-01    9.62       0.0  T
   2    -50.7187742 -0.121305E-03  0.168E-01    9.62       1.0  T
   3    -50.7188314 -0.572186E-04  0.602E-02    9.62       1.0  T
   4    -50.7188412 -0.976264E-05  0.181E-02    9.62       1.1  T
   5    -50.7188417 -0.559139E-06  0.595E-03    9.62       3.3  T
   6    -50.7188418 -0.288197E-07  0.304E-03    9.62       6.5  T
speedup  1.11
cpu  time for SCC    0.01 s
wall time for SCC    0.01 s
speedup  0.99
cpu  time for grad    0.01 s
wall time for grad    0.01 s
 E :    -50.45190355  G :  0.032836    pred/act E change: -0.130D-01 -0.388D-02
Maxdispl :   0.1768   ||displ|| :   0.5196   Lambda : -0.932D-02
Largest |displ|/coords:  0.1768 (  16)  0.1747 (  33)  0.1625 (  27)
................................................................................
.............................. CYCLE   11 ......................................
................................................................................
   1    -50.7497084 -0.507497E+02  0.498E-01    9.73       0.0  T
   2    -50.7502824 -0.574058E-03  0.373E-01    9.73       1.0  T
   3    -50.7506506 -0.368166E-03  0.164E-01    9.58       1.0  T
   4    -50.7506914 -0.408665E-04  0.470E-02    9.56       1.0  T
   5    -50.7506955 -0.404944E-05  0.175E-02    9.58       1.1  T
   6    -50.7506957 -0.210705E-06  0.772E-03    9.58       2.5  T
   7    -50.7506959 -0.158171E-06  0.279E-03    9.58       7.0  T
   8    -50.7506959 -0.106650E-07  0.717E-04    9.58      27.4  T
speedup  1.00
cpu  time for SCC    0.01 s
wall time for SCC    0.01 s
speedup  0.95
cpu  time for grad    0.01 s
wall time for grad    0.01 s
 E :    -50.44051521  G :  0.171784    pred/act E change: -0.290D-02  0.114D-01
Maxdispl :   0.2022   ||displ|| :   0.5497   Lambda : -0.805D-01
Largest |displ|/coords:  0.2022 (  29)  0.2012 (  32)  0.2008 (  33)
................................................................................
.............................. CYCLE   12 ......................................
................................................................................
   1    -50.7048834 -0.507049E+02  0.733E-01    9.50       0.0  T
   2    -50.7073531 -0.246961E-02  0.521E-01    9.52       1.0  T
   3    -50.7084532 -0.110018E-02  0.241E-01    9.52       1.0  T
   4    -50.7085568 -0.103590E-03  0.804E-02    9.51       1.0  T
   5    -50.7085676 -0.107266E-04  0.286E-02    9.51       1.0  T
   6    -50.7085712 -0.364123E-05  0.181E-02    9.51       1.1  T
   7    -50.7085717 -0.519047E-06  0.366E-03    9.51       5.4  T
   8    -50.7085717 -0.296091E-07  0.130E-03    9.51      15.1  T
speedup  0.99
cpu  time for SCC    0.01 s
wall time for SCC    0.01 s
speedup  0.96
cpu  time for grad    0.01 s
wall time for grad    0.02 s
 E :    -50.44536374  G :  0.062279    pred/act E change: -0.592D-02 -0.485D-02
Maxdispl :   0.2147   ||displ|| :   0.3310   Lambda : -0.998D-02
Largest |displ|/coords:  0.2147 (   7)  0.1005 (   8)  0.0709 (   2)
................................................................................
.............................. CYCLE   13 ......................................
................................................................................
   1    -50.7218000 -0.507218E+02  0.444E-01    9.58       0.0  T
   2    -50.7220835 -0.283470E-03  0.334E-01    9.57       1.0  T
   3    -50.7222259 -0.142427E-03  0.984E-02    9.57       1.0  T
   4    -50.7222580 -0.320426E-04  0.311E-02    9.58       1.0  T
   5    -50.7222597 -0.169995E-05  0.983E-03    9.57       2.0  T
   6    -50.7222597 -0.721847E-07  0.499E-03    9.57       3.9  T
   7    -50.7222598 -0.466076E-07  0.140E-03    9.57      14.0  T
speedup  1.01
cpu  time for SCC    0.01 s
wall time for SCC    0.01 s
speedup  1.01
cpu  time for grad    0.01 s
wall time for grad    0.01 s
 E :    -50.45105233  G :  0.053080    pred/act E change: -0.524D-01 -0.569D-02
Maxdispl :   0.2173   ||displ|| :   0.4007   Lambda : -0.780D-02
Largest |displ|/coords:  0.2173 (   8)  0.1819 (   7)  0.1152 (   5)
................................................................................
.............................. CYCLE   14 ......................................
................................................................................
   1    -50.7249756 -0.507250E+02  0.566E-01    9.59       0.0  T
   2    -50.7252379 -0.262308E-03  0.425E-01    9.59       1.0  T
   3    -50.7253954 -0.157533E-03  0.102E-01    9.59       1.0  T
   4    -50.7254299 -0.344966E-04  0.270E-02    9.59       1.0  T
   5    -50.7254310 -0.110606E-05  0.987E-03    9.59       2.0  T
   6    -50.7254311 -0.875847E-07  0.532E-03    9.59       3.7  T
   7    -50.7254311 -0.627850E-07  0.167E-03    9.59      11.7  T
speedup  1.13
cpu  time for SCC    0.01 s
wall time for SCC    0.01 s
speedup  1.00
cpu  time for grad    0.01 s
wall time for grad    0.01 s
 E :    -50.45409090  G :  0.033903    pred/act E change: -0.554D-02 -0.304D-02
Maxdispl :   0.1901   ||displ|| :   0.3852   Lambda : -0.379D-02
Largest |displ|/coords:  0.1901 (   6)  0.1413 (   8)  0.1353 (   5)
................................................................................
.............................. CYCLE   15 ......................................
................................................................................
   1    -50.7384200 -0.507384E+02  0.535E-01    9.60       0.0  T
   2    -50.7385482 -0.128227E-03  0.407E-01    9.60       1.0  T
   3    -50.7386436 -0.953999E-04  0.633E-02    9.60       1.0  T
   4    -50.7386623 -0.186492E-04  0.137E-02    9.60       1.4  T
   5    -50.7386626 -0.344164E-06  0.689E-03    9.60       2.8  T
   6    -50.7386626 -0.226868E-07  0.351E-03    9.60       5.6  T
   7    -50.7386627 -0.216188E-07  0.740E-04    9.60      26.5  T
speedup  1.15
cpu  time for SCC    0.01 s
wall time for SCC    0.01 s
speedup  1.01
cpu  time for grad    0.01 s
wall time for grad    0.01 s
 E :    -50.45326797  G :  0.048144    pred/act E change: -0.452D-02  0.823D-03
Maxdispl :   0.2192   ||displ|| :   0.3393   Lambda : -0.455D-02
Largest |displ|/coords:  0.2192 (   6)  0.1266 (   8)  0.0982 (  13)
................................................................................
.............................. CYCLE   16 ......................................
................................................................................
   1    -50.7340207 -0.507340E+02  0.495E-01    9.60       0.0  T
   2    -50.7340903 -0.696363E-04  0.375E-01    9.60       1.0  T
   3    -50.7341508 -0.604630E-04  0.544E-02    9.60       1.0  T
   4    -50.7341583 -0.753914E-05  0.139E-02    9.60       1.4  T
   5    -50.7341588 -0.419173E-06  0.443E-03    9.60       4.4  T
   6    -50.7341588 -0.151890E-07  0.250E-03    9.60       7.9  T
speedup  0.96
cpu  time for SCC    0.00 s
wall time for SCC    0.01 s
speedup  1.00
cpu  time for grad    0.01 s
wall time for grad    0.01 s
 E :    -50.45491283  G :  0.028661    pred/act E change: -0.218D-02 -0.164D-02
Maxdispl :   0.1151   ||displ|| :   0.2407   Lambda : -0.199D-02
Largest |displ|/coords:  0.1151 (   8)  0.0839 (  18)  0.0817 (   5)
................................................................................
.............................. CYCLE   17 ......................................
................................................................................
   1    -50.7327698 -0.507328E+02  0.280E-01    9.55       0.0  T
   2    -50.7327894 -0.195458E-04  0.212E-01    9.55       1.0  T
   3    -50.7328085 -0.190732E-04  0.245E-02    9.56       1.0  T
   4    -50.7328102 -0.179745E-05  0.841E-03    9.55       2.3  T
   5    -50.7328104 -0.104768E-06  0.278E-03    9.55       7.0  T
   6    -50.7328104 -0.657892E-08  0.142E-03    9.55      13.9  T
speedup  0.94
cpu  time for SCC    0.00 s
wall time for SCC    0.01 s
speedup  0.99
cpu  time for grad    0.01 s
wall time for grad    0.01 s
 E :    -50.45572143  G :  0.021597    pred/act E change: -0.253D-02 -0.809D-03
Maxdispl :   0.1039   ||displ|| :   0.1868   Lambda : -0.112D-02
Largest |displ|/coords:  0.1039 (   7)  0.0767 (   6)  0.0488 (  12)
................................................................................
.............................. CYCLE   18 ......................................
................................................................................
   1    -50.7323397 -0.507323E+02  0.194E-01    9.53       0.0  T
   2    -50.7323685 -0.288129E-04  0.145E-01    9.53       1.0  T
   3    -50.7323864 -0.179394E-04  0.343E-02    9.53       1.0  T
   4    -50.7323903 -0.382405E-05  0.989E-03    9.53       2.0  T
   5    -50.7323904 -0.149184E-06  0.361E-03    9.53       5.4  T
   6    -50.7323904 -0.159834E-07  0.208E-03    9.53       9.4  T
speedup  0.93
cpu  time for SCC    0.00 s
wall time for SCC    0.01 s
speedup  0.98
cpu  time for grad    0.01 s
wall time for grad    0.01 s
 E :    -50.45592292  G :  0.026611    pred/act E change: -0.105D-02 -0.201D-03
Maxdispl :   0.0738   ||displ|| :   0.1258   Lambda : -0.974D-03
Largest |displ|/coords:  0.0738 (   6)  0.0512 (   2)  0.0450 (   8)
................................................................................
.............................. CYCLE   19 ......................................
................................................................................
   1    -50.7347976 -0.507348E+02  0.152E-01    9.53       0.0  T
   2    -50.7348075 -0.986789E-05  0.114E-01    9.53       1.0  T
   3    -50.7348142 -0.671269E-05  0.186E-02    9.53       1.1  T
   4    -50.7348155 -0.132075E-05  0.324E-03    9.53       6.1  T
   5    -50.7348156 -0.188708E-07  0.153E-03    9.53      12.8  T
speedup  0.91
cpu  time for SCC    0.00 s
wall time for SCC    0.00 s
speedup  0.98
cpu  time for grad    0.01 s
wall time for grad    0.01 s
 E :    -50.45637832  G :  0.014046    pred/act E change: -0.581D-03 -0.455D-03
Maxdispl :   0.1560   ||displ|| :   0.2704   Lambda : -0.854D-03
Largest |displ|/coords:  0.1560 (   2)  0.1400 (   5)  0.0717 (   3)
................................................................................
.............................. CYCLE   20 ......................................
................................................................................
   1    -50.7320583 -0.507321E+02  0.261E-01    9.49       0.0  T
   2    -50.7320897 -0.313973E-04  0.196E-01    9.49       1.0  T
   3    -50.7321122 -0.225370E-04  0.338E-02    9.49       1.0  T
   4    -50.7321162 -0.398440E-05  0.782E-03    9.49       2.5  T
   5    -50.7321163 -0.117194E-06  0.354E-03    9.49       5.5  T
   6    -50.7321163 -0.101410E-07  0.185E-03    9.49      10.6  T
   7    -50.7321163 -0.669559E-08  0.466E-04    9.49      42.1  T
speedup  0.97
cpu  time for SCC    0.01 s
wall time for SCC    0.01 s
speedup  0.99
cpu  time for grad    0.01 s
wall time for grad    0.01 s
 E :    -50.45626182  G :  0.031337    pred/act E change: -0.495D-03  0.117D-03
Maxdispl :   0.1497   ||displ|| :   0.1932   Lambda : -0.130D-02
Largest |displ|/coords:  0.1497 (   5)  0.0566 (   9)  0.0433 (  16)
................................................................................
.............................. CYCLE   21 ......................................
................................................................................
   1    -50.7366008 -0.507366E+02  0.178E-01    9.49       0.0  T
   2    -50.7366149 -0.140965E-04  0.133E-01    9.49       1.0  T
   3    -50.7366255 -0.106818E-04  0.206E-02    9.49       1.0  T
   4    -50.7366273 -0.173524E-05  0.664E-03    9.49       3.0  T
   5    -50.7366273 -0.581540E-07  0.282E-03    9.49       7.0  T
   6    -50.7366273 -0.723553E-08  0.142E-03    9.49      13.8  T
speedup  0.94
cpu  time for SCC    0.00 s
wall time for SCC    0.01 s
speedup  0.99
cpu  time for grad    0.01 s
wall time for grad    0.01 s
 E :    -50.45674511  G :  0.017317    pred/act E change: -0.458D-03 -0.483D-03
Maxdispl :   0.1009   ||displ|| :   0.1765   Lambda : -0.785D-03
Largest |displ|/coords:  0.1009 (   7)  0.0695 (   5)  0.0535 (   6)
................................................................................
.............................. CYCLE   22 ......................................
................................................................................
   1    -50.7348510 -0.507349E+02  0.177E-01    9.49       0.0  T
   2    -50.7348644 -0.133392E-04  0.133E-01    9.49       1.0  T
   3    -50.7348741 -0.969890E-05  0.225E-02    9.49       1.0  T
   4    -50.7348758 -0.172181E-05  0.656E-03    9.49       3.0  T
   5    -50.7348758 -0.587767E-07  0.251E-03    9.49       7.8  T
   6    -50.7348759 -0.881406E-08  0.147E-03    9.49      13.4  T
speedup  1.13
cpu  time for SCC    0.01 s
wall time for SCC    0.01 s
speedup  1.07
cpu  time for grad    0.01 s
wall time for grad    0.01 s
 E :    -50.45691199  G :  0.015925    pred/act E change: -0.674D-03 -0.167D-03
Maxdispl :   0.0858   ||displ|| :   0.1350   Lambda : -0.490D-03
Largest |displ|/coords:  0.0858 (   2)  0.0442 (   9)  0.0400 (  12)
................................................................................
.............................. CYCLE   23 ......................................
................................................................................
   1    -50.7355093 -0.507355E+02  0.124E-01    9.47       0.0  T
   2    -50.7355163 -0.693606E-05  0.939E-02    9.47       1.0  T
   3    -50.7355208 -0.451518E-05  0.150E-02    9.47       1.3  T
   4    -50.7355218 -0.103964E-05  0.345E-03    9.47       5.7  T
   5    -50.7355219 -0.265133E-07  0.155E-03    9.47      12.7  T
   6    -50.7355219 -0.149139E-08  0.799E-04    9.47      24.5  T
speedup  0.96
cpu  time for SCC    0.00 s
wall time for SCC    0.01 s
speedup  1.00
cpu  time for grad    0.01 s
wall time for grad    0.01 s
 E :    -50.45720684  G :  0.008212    pred/act E change: -0.405D-03 -0.295D-03
Maxdispl :   0.0904   ||displ|| :   0.1574   Lambda : -0.272D-03
Largest |displ|/coords:  0.0904 (   9)  0.0483 (   2)  0.0474 (  16)
................................................................................
.............................. CYCLE   24 ......................................
................................................................................
   1    -50.7346599 -0.507347E+02  0.106E-01    9.46       0.0  T
   2    -50.7346665 -0.660303E-05  0.797E-02    9.46       1.0  T
   3    -50.7346699 -0.336667E-05  0.158E-02    9.46       1.2  T
   4    -50.7346709 -0.107507E-05  0.454E-03    9.46       4.3  T
   5    -50.7346710 -0.277550E-07  0.129E-03    9.46      15.2  T
   6    -50.7346710 -0.191734E-08  0.711E-04    9.46      27.6  T
speedup  1.15
cpu  time for SCC    0.01 s
wall time for SCC    0.01 s
speedup  0.92
cpu  time for grad    0.01 s
wall time for grad    0.01 s
 E :    -50.45736617  G :  0.011750    pred/act E change: -0.250D-03 -0.159D-03
Maxdispl :   0.1145   ||displ|| :   0.2138   Lambda : -0.321D-03
Largest |displ|/coords:  0.1145 (   9)  0.0664 (  17)  0.0631 (  12)
................................................................................
.............................. CYCLE   25 ......................................
................................................................................
   1    -50.7350557 -0.507351E+02  0.127E-01    9.45       0.0  T
   2    -50.7350756 -0.199420E-04  0.951E-02    9.45       1.0  T
   3    -50.7350825 -0.688089E-05  0.245E-02    9.45       1.0  T
   4    -50.7350855 -0.300464E-05  0.625E-03    9.45       3.1  T
   5    -50.7350856 -0.665712E-07  0.194E-03    9.45      10.1  T
   6    -50.7350856 -0.388499E-08  0.101E-03    9.45      19.4  T
speedup  1.13
cpu  time for SCC    0.01 s
wall time for SCC    0.01 s
speedup  0.99
cpu  time for grad    0.01 s
wall time for grad    0.01 s
 E :    -50.45759030  G :  0.014244    pred/act E change: -0.140D-03 -0.224D-03
Maxdispl :   0.2270   ||displ|| :   0.3944   Lambda : -0.696D-03
Largest |displ|/coords:  0.2270 (   9)  0.1205 (  17)  0.1147 (  10)

generating ANC from model Hessian ...
 Shifting diagonal of input Hessian by   4.954673559337072E-003
 Lowest  eigenvalues of input Hessian
   -0.000000   -0.000000   -0.000000   -0.000000    0.000000    0.000000
    0.005000    0.005252    0.005603    0.005889    0.006529    0.006748
    0.007306    0.007525    0.008444    0.008914    0.009635    0.010509
 Highest eigenvalues
    1.397320    1.412663    1.420302    2.746751    3.339759    3.648850
 
cpu  time for ANC gen    0.01 s
wall time for ANC gen    0.01 s
................................................................................
.............................. CYCLE   26 ......................................
................................................................................
   1    -50.7377436 -0.507377E+02  0.214E-01    9.43       0.0  T
   2    -50.7378456 -0.102010E-03  0.158E-01    9.43       1.0  T
   3    -50.7378806 -0.349973E-04  0.531E-02    9.41       1.0  T
   4    -50.7378904 -0.978326E-05  0.128E-02    9.42       1.5  T
   5    -50.7378907 -0.280439E-06  0.379E-03    9.42       5.2  T
   6    -50.7378907 -0.193083E-07  0.189E-03    9.42      10.4  T
   7    -50.7378907 -0.635201E-08  0.641E-04    9.42      30.6  T
   8    -50.7378907 -0.110825E-08  0.256E-04    9.42      76.7  T
speedup  0.99
cpu  time for SCC    0.01 s
wall time for SCC    0.01 s
speedup  0.97
cpu  time for grad    0.01 s
wall time for grad    0.02 s
 E :    -50.45809430  G :  0.013580    pred/act E change:  0.000D+00 -0.504D-03
Maxdispl :   0.0973   ||displ|| :   0.1846   Lambda : -0.614D-03
Largest |displ|/coords:  0.0973 (   7)  0.0615 (   4)  0.0534 (   6)
................................................................................
.............................. CYCLE   27 ......................................
................................................................................
   1    -50.7372407 -0.507372E+02  0.155E-01    9.40       0.0  T
   2    -50.7372456 -0.498981E-05  0.117E-01    9.40       1.0  T
   3    -50.7372486 -0.299802E-05  0.119E-02    9.41       1.6  T
   4    -50.7372495 -0.883280E-06  0.420E-03    9.41       4.7  T
   5    -50.7372496 -0.206781E-07  0.147E-03    9.41      13.4  T
   6    -50.7372496 -0.272928E-08  0.775E-04    9.41      25.3  T
speedup  0.89
cpu  time for SCC    0.00 s
wall time for SCC    0.01 s
speedup  1.04
cpu  time for grad    0.01 s
wall time for grad    0.01 s
 E :    -50.45849756  G :  0.010437    pred/act E change:  0.000D+00 -0.403D-03
Maxdispl :   0.1279   ||displ|| :   0.2592   Lambda : -0.675D-03
Largest |displ|/coords:  0.1279 (   1)  0.1073 (   2)  0.0839 (  12)
................................................................................
.............................. CYCLE   28 ......................................
................................................................................
   1    -50.7345794 -0.507346E+02  0.243E-01    9.39       0.0  T
   2    -50.7346086 -0.291817E-04  0.184E-01    9.40       1.0  T
   3    -50.7346221 -0.134815E-04  0.296E-02    9.41       1.0  T
   4    -50.7346277 -0.559278E-05  0.869E-03    9.41       2.3  T
   5    -50.7346278 -0.136084E-06  0.280E-03    9.41       7.0  T
   6    -50.7346278 -0.755873E-08  0.152E-03    9.41      12.9  T
speedup  1.13
cpu  time for SCC    0.01 s
wall time for SCC    0.01 s
speedup  1.07
cpu  time for grad    0.01 s
wall time for grad    0.01 s
 E :    -50.45884865  G :  0.016883    pred/act E change: -0.318D-03 -0.351D-03
Maxdispl :   0.0889   ||displ|| :   0.1541   Lambda : -0.465D-03
Largest |displ|/coords:  0.0889 (   1)  0.0599 (   6)  0.0479 (   5)
................................................................................
.............................. CYCLE   29 ......................................
................................................................................
   1    -50.7358087 -0.507358E+02  0.110E-01    9.41       0.0  T
   2    -50.7358244 -0.157834E-04  0.815E-02    9.41       1.0  T
   3    -50.7358294 -0.492633E-05  0.206E-02    9.41       1.0  T
   4    -50.7358315 -0.216515E-05  0.538E-03    9.41       3.6  T
   5    -50.7358316 -0.555406E-07  0.175E-03    9.41      11.2  T
   6    -50.7358316 -0.425988E-08  0.911E-04    9.41      21.5  T
speedup  0.94
cpu  time for SCC    0.00 s
wall time for SCC    0.01 s
speedup  0.99
cpu  time for grad    0.01 s
wall time for grad    0.01 s
 E :    -50.45920420  G :  0.013331    pred/act E change: -0.360D-03 -0.356D-03
Maxdispl :   0.1890   ||displ|| :   0.3306   Lambda : -0.985D-03
Largest |displ|/coords:  0.1890 (   1)  0.1239 (   5)  0.0945 (   2)
................................................................................
.............................. CYCLE   30 ......................................
................................................................................
   1    -50.7375913 -0.507376E+02  0.221E-01    9.43       0.0  T
   2    -50.7377343 -0.143031E-03  0.160E-01    9.42       1.0  T
   3    -50.7377824 -0.480657E-04  0.591E-02    9.42       1.0  T
   4    -50.7377918 -0.936866E-05  0.140E-02    9.42       1.4  T
   5    -50.7377922 -0.405117E-06  0.446E-03    9.42       4.4  T
   6    -50.7377922 -0.278894E-07  0.217E-03    9.42       9.0  T
   7    -50.7377922 -0.744613E-08  0.788E-04    9.42      24.9  T
speedup  1.13
cpu  time for SCC    0.01 s
wall time for SCC    0.01 s
speedup  1.00
cpu  time for grad    0.01 s
wall time for grad    0.01 s
 E :    -50.45986680  G :  0.015777    pred/act E change: -0.238D-03 -0.663D-03
Maxdispl :   0.2958   ||displ|| :   0.5586   Lambda : -0.125D-02
Largest |displ|/coords:  0.2958 (   1)  0.1910 (   2)  0.1687 (   5)
................................................................................
.............................. CYCLE   31 ......................................
................................................................................
   1    -50.7302069 -0.507302E+02  0.455E-01    9.43       0.0  T
   2    -50.7305544 -0.347558E-03  0.336E-01    9.42       1.0  T
   3    -50.7306643 -0.109823E-03  0.977E-02    9.40       1.0  T
   4    -50.7307047 -0.404097E-04  0.230E-02    9.40       1.0  T
   5    -50.7307059 -0.124430E-05  0.796E-03    9.40       2.5  T
   6    -50.7307060 -0.760675E-07  0.387E-03    9.40       5.1  T
   7    -50.7307060 -0.242838E-07  0.122E-03    9.40      16.1  T
   8    -50.7307060 -0.368319E-08  0.366E-04    9.40      53.6  T
speedup  1.00
cpu  time for SCC    0.01 s
wall time for SCC    0.01 s
speedup  1.01
cpu  time for grad    0.01 s
wall time for grad    0.01 s
 E :    -50.45990129  G :  0.037180    pred/act E change: -0.546D-03 -0.345D-04
Maxdispl :   0.1050   ||displ|| :   0.2074   Lambda : -0.225D-02
Largest |displ|/coords:  0.1050 (   7)  0.0797 (   1)  0.0622 (   8)
................................................................................
.............................. CYCLE   32 ......................................
................................................................................
   1    -50.7398694 -0.507399E+02  0.174E-01    9.42       0.0  T
   2    -50.7398956 -0.261893E-04  0.130E-01    9.42       1.0  T
   3    -50.7399120 -0.164722E-04  0.284E-02    9.41       1.0  T
   4    -50.7399152 -0.320817E-05  0.716E-03    9.42       2.7  T
   5    -50.7399153 -0.861225E-07  0.318E-03    9.42       6.2  T
   6    -50.7399153 -0.709061E-08  0.160E-03    9.42      12.2  T
speedup  0.94
cpu  time for SCC    0.01 s
wall time for SCC    0.01 s
speedup  0.99
cpu  time for grad    0.01 s
wall time for grad    0.01 s
 E :    -50.46088412  G :  0.023482    pred/act E change: -0.817D-03 -0.983D-03
Maxdispl :   0.0586   ||displ|| :   0.1386   Lambda : -0.853D-03
Largest |displ|/coords:  0.0586 (   6)  0.0535 (  13)  0.0425 (  29)
................................................................................
.............................. CYCLE   33 ......................................
................................................................................
   1    -50.7406852 -0.507407E+02  0.108E-01    9.40       0.0  T
   2    -50.7406899 -0.469429E-05  0.799E-02    9.41       1.0  T
   3    -50.7406930 -0.308676E-05  0.149E-02    9.41       1.3  T
   4    -50.7406935 -0.571551E-06  0.430E-03    9.41       4.6  T
   5    -50.7406936 -0.324421E-07  0.137E-03    9.41      14.3  T
speedup  0.89
cpu  time for SCC    0.00 s
wall time for SCC    0.00 s
speedup  0.98
cpu  time for grad    0.01 s
wall time for grad    0.01 s
 E :    -50.46142729  G :  0.015624    pred/act E change: -0.117D-02 -0.543D-03
Maxdispl :   0.1280   ||displ|| :   0.3602   Lambda : -0.117D-02
Largest |displ|/coords:  0.1280 (   1)  0.1259 (   2)  0.1128 (  13)
................................................................................
.............................. CYCLE   34 ......................................
................................................................................
   1    -50.7408615 -0.507409E+02  0.241E-01    9.41       0.0  T
   2    -50.7409432 -0.817010E-04  0.179E-01    9.40       1.0  T
   3    -50.7409728 -0.296256E-04  0.494E-02    9.40       1.0  T
   4    -50.7409832 -0.103817E-04  0.111E-02    9.40       1.8  T
   5    -50.7409835 -0.307386E-06  0.409E-03    9.40       4.8  T
   6    -50.7409835 -0.219452E-07  0.207E-03    9.40       9.5  T
   7    -50.7409835 -0.716801E-08  0.603E-04    9.40      32.5  T
speedup  0.97
cpu  time for SCC    0.01 s
wall time for SCC    0.01 s
speedup  1.00
cpu  time for grad    0.01 s
wall time for grad    0.01 s
 E :    -50.46214021  G :  0.012449    pred/act E change: -0.435D-03 -0.713D-03
Maxdispl :   0.1114   ||displ|| :   0.2260   Lambda : -0.633D-03
Largest |displ|/coords:  0.1114 (   1)  0.0978 (  12)  0.0685 (   9)
................................................................................
.............................. CYCLE   35 ......................................
................................................................................
   1    -50.7464549 -0.507465E+02  0.190E-01    9.40       0.0  T
   2    -50.7464904 -0.355700E-04  0.141E-01    9.39       1.0  T
   3    -50.7465107 -0.202728E-04  0.340E-02    9.38       1.0  T
   4    -50.7465148 -0.405784E-05  0.845E-03    9.38       2.3  T
   5    -50.7465150 -0.191808E-06  0.325E-03    9.38       6.0  T
   6    -50.7465150 -0.906135E-08  0.174E-03    9.38      11.3  T
   7    -50.7465150 -0.489712E-08  0.456E-04    9.38      43.0  T
speedup  0.98
cpu  time for SCC    0.01 s
wall time for SCC    0.01 s
speedup  0.94
cpu  time for grad    0.01 s
wall time for grad    0.01 s
 E :    -50.46164714  G :  0.036211    pred/act E change: -0.663D-03  0.493D-03
Maxdispl :   0.0625   ||displ|| :   0.1325   Lambda : -0.159D-02
Largest |displ|/coords:  0.0625 (  12)  0.0428 (  22)  0.0406 (   2)
................................................................................
.............................. CYCLE   36 ......................................
................................................................................
   1    -50.7445866 -0.507446E+02  0.180E-01    9.36       0.0  T
   2    -50.7446080 -0.213310E-04  0.135E-01    9.37       1.0  T
   3    -50.7446212 -0.132712E-04  0.261E-02    9.38       1.0  T
   4    -50.7446241 -0.283483E-05  0.649E-03    9.37       3.0  T
   5    -50.7446241 -0.731497E-07  0.255E-03    9.37       7.7  T
   6    -50.7446241 -0.566421E-08  0.137E-03    9.37      14.3  T
speedup  0.94
cpu  time for SCC    0.00 s
wall time for SCC    0.01 s
speedup  1.00
cpu  time for grad    0.01 s
wall time for grad    0.01 s
 E :    -50.46243062  G :  0.007299    pred/act E change: -0.333D-03 -0.783D-03
Maxdispl :   0.0415   ||displ|| :   0.0944   Lambda : -0.178D-03
Largest |displ|/coords:  0.0415 (   5)  0.0308 (   1)  0.0228 (  13)
................................................................................
.............................. CYCLE   37 ......................................
................................................................................
   1    -50.7446263 -0.507446E+02  0.737E-02    9.39       0.0  T
   2    -50.7446315 -0.515954E-05  0.549E-02    9.39       1.0  T
   3    -50.7446341 -0.258038E-05  0.127E-02    9.39       1.5  T
   4    -50.7446348 -0.691737E-06  0.422E-03    9.39       4.6  T
   5    -50.7446348 -0.370996E-07  0.126E-03    9.39      15.5  T
   6    -50.7446348 -0.226376E-08  0.686E-04    9.39      28.6  T
speedup  0.94
cpu  time for SCC    0.00 s
wall time for SCC    0.01 s
speedup  0.99
cpu  time for grad    0.01 s
wall time for grad    0.01 s
 E :    -50.46247162  G :  0.007404    pred/act E change: -0.807D-03 -0.410D-04
Maxdispl :   0.0263   ||displ|| :   0.0580   Lambda : -0.113D-03
Largest |displ|/coords:  0.0263 (  12)  0.0202 (   2)  0.0194 (   4)
................................................................................
.............................. CYCLE   38 ......................................
................................................................................
   1    -50.7447988 -0.507448E+02  0.566E-02    9.38       0.0  T
   2    -50.7448025 -0.371015E-05  0.420E-02    9.38       1.0  T
   3    -50.7448038 -0.137233E-05  0.105E-02    9.38       1.9  T
   4    -50.7448043 -0.486988E-06  0.259E-03    9.38       7.6  T
   5    -50.7448043 -0.170345E-07  0.813E-04    9.38      24.1  T
speedup  0.89
cpu  time for SCC    0.00 s
wall time for SCC    0.00 s
speedup  0.98
cpu  time for grad    0.01 s
wall time for grad    0.01 s
 E :    -50.46252021  G :  0.003765    pred/act E change: -0.896D-04 -0.486D-04
Maxdispl :   0.0361   ||displ|| :   0.0809   Lambda : -0.750D-04
Largest |displ|/coords:  0.0361 (  15)  0.0273 (   1)  0.0233 (   2)
................................................................................
.............................. CYCLE   39 ......................................
................................................................................
   1    -50.7451362 -0.507451E+02  0.451E-02    9.37       0.0  T
   2    -50.7451369 -0.616955E-06  0.340E-02    9.37       1.0  T
   3    -50.7451374 -0.581556E-06  0.569E-03    9.37       3.4  T
   4    -50.7451375 -0.692441E-07  0.135E-03    9.37      14.5  T
   5    -50.7451375 -0.370679E-08  0.589E-04    9.37      33.3  T
   6    -50.7451375 -0.475069E-09  0.329E-04    9.37      59.6  T
speedup  1.13
cpu  time for SCC    0.01 s
wall time for SCC    0.01 s
speedup  1.01
cpu  time for grad    0.01 s
wall time for grad    0.01 s
 E :    -50.46254880  G :  0.002301    pred/act E change: -0.565D-04 -0.286D-04
Maxdispl :   0.0340   ||displ|| :   0.0635   Lambda : -0.382D-04
Largest |displ|/coords:  0.0340 (   5)  0.0238 (  13)  0.0225 (   3)
................................................................................
.............................. CYCLE   40 ......................................
................................................................................
   1    -50.7455415 -0.507455E+02  0.311E-02    9.37       0.0  T
   2    -50.7455420 -0.436460E-06  0.236E-02    9.37       1.0  T
   3    -50.7455422 -0.272250E-06  0.384E-03    9.37       5.1  T
   4    -50.7455423 -0.729920E-07  0.121E-03    9.37      16.2  T
   5    -50.7455423 -0.237626E-08  0.348E-04    9.37      56.4  T
   6    -50.7455423 -0.162885E-09  0.196E-04    9.37     100.1  T
speedup  0.94
cpu  time for SCC    0.00 s
wall time for SCC    0.01 s
speedup  1.02
cpu  time for grad    0.01 s
wall time for grad    0.01 s
 E :    -50.46257576  G :  0.001844    pred/act E change: -0.377D-04 -0.270D-04
Maxdispl :   0.0461   ||displ|| :   0.1011   Lambda : -0.364D-04
Largest |displ|/coords:  0.0461 (   5)  0.0413 (  13)  0.0364 (   3)
................................................................................
.............................. CYCLE   41 ......................................
................................................................................
   1    -50.7455389 -0.507455E+02  0.455E-02    9.37       0.0  T
   2    -50.7455393 -0.433626E-06  0.342E-02    9.37       1.0  T
   3    -50.7455398 -0.464377E-06  0.418E-03    9.37       4.7  T
   4    -50.7455398 -0.396275E-07  0.174E-03    9.37      11.3  T
   5    -50.7455398 -0.333612E-08  0.419E-04    9.37      46.8  T
   6    -50.7455398 -0.195470E-09  0.276E-04    9.37      71.0  T
speedup  0.93
cpu  time for SCC    0.00 s
wall time for SCC    0.01 s
speedup  0.90
cpu  time for grad    0.01 s
wall time for grad    0.01 s
 E :    -50.46259949  G :  0.002226    pred/act E change: -0.192D-04 -0.237D-04
Maxdispl :   0.0413   ||displ|| :   0.0961   Lambda : -0.200D-04
Largest |displ|/coords:  0.0413 (   5)  0.0380 (  13)  0.0359 (   3)
................................................................................
.............................. CYCLE   42 ......................................
................................................................................
   1    -50.7456965 -0.507457E+02  0.368E-02    9.37       0.0  T
   2    -50.7456968 -0.288872E-06  0.279E-02    9.37       1.0  T
   3    -50.7456970 -0.260973E-06  0.301E-03    9.37       6.5  T
   4    -50.7456970 -0.361307E-07  0.133E-03    9.37      14.8  T
   5    -50.7456971 -0.204257E-08  0.316E-04    9.37      62.0  T
   6    -50.7456971 -0.109644E-09  0.196E-04    9.37     100.0  T
speedup  0.93
cpu  time for SCC    0.01 s
wall time for SCC    0.01 s
speedup  1.02
cpu  time for grad    0.01 s
wall time for grad    0.01 s
 E :    -50.46261386  G :  0.002559    pred/act E change: -0.184D-04 -0.144D-04
Maxdispl :   0.0471   ||displ|| :   0.1162   Lambda : -0.219D-04
Largest |displ|/coords:  0.0471 (   3)  0.0452 (   8)  0.0443 (   5)
................................................................................
.............................. CYCLE   43 ......................................
................................................................................
   1    -50.7453868 -0.507454E+02  0.442E-02    9.37       0.0  T
   2    -50.7453873 -0.522418E-06  0.333E-02    9.37       1.0  T
   3    -50.7453877 -0.447486E-06  0.413E-03    9.37       4.7  T
   4    -50.7453878 -0.690566E-07  0.173E-03    9.37      11.3  T
   5    -50.7453878 -0.408583E-08  0.484E-04    9.37      40.5  T
   6    -50.7453878 -0.305661E-09  0.284E-04    9.37      69.0  T
speedup  1.11
cpu  time for SCC    0.01 s
wall time for SCC    0.01 s
speedup  1.02
cpu  time for grad    0.01 s
wall time for grad    0.01 s
 E :    -50.46262770  G :  0.002278    pred/act E change: -0.101D-04 -0.138D-04
Maxdispl :   0.0361   ||displ|| :   0.0748   Lambda : -0.140D-04
Largest |displ|/coords:  0.0361 (   3)  0.0296 (   8)  0.0255 (   5)
................................................................................
.............................. CYCLE   44 ......................................
................................................................................
   1    -50.7454224 -0.507454E+02  0.310E-02    9.38       0.0  T
   2    -50.7454226 -0.249031E-06  0.233E-02    9.38       1.0  T
   3    -50.7454228 -0.188923E-06  0.329E-03    9.38       6.0  T
   4    -50.7454229 -0.331177E-07  0.168E-03    9.38      11.7  T
   5    -50.7454229 -0.239859E-08  0.323E-04    9.38      60.7  T
   6    -50.7454229 -0.921005E-10  0.213E-04    9.38      91.9  T
speedup  0.94
cpu  time for SCC    0.00 s
wall time for SCC    0.01 s
speedup  1.01
cpu  time for grad    0.01 s
wall time for grad    0.01 s
 E :    -50.46263681  G :  0.001771    pred/act E change: -0.111D-04 -0.911D-05
Maxdispl :   0.0330   ||displ|| :   0.0560   Lambda : -0.105D-04
Largest |displ|/coords:  0.0330 (   3)  0.0214 (   8)  0.0188 (   2)
................................................................................
.............................. CYCLE   45 ......................................
................................................................................
   1    -50.7453714 -0.507454E+02  0.263E-02    9.38       0.0  T
   2    -50.7453716 -0.186101E-06  0.194E-02    9.38       1.0  T
   3    -50.7453718 -0.150261E-06  0.319E-03    9.38       6.1  T
   4    -50.7453718 -0.188671E-07  0.149E-03    9.38      13.1  T
   5    -50.7453718 -0.201071E-08  0.270E-04    9.38      72.7  T
   6    -50.7453718 -0.742020E-10  0.175E-04    9.38     111.9  T
speedup  1.09
cpu  time for SCC    0.01 s
wall time for SCC    0.01 s
speedup  1.01
cpu  time for grad    0.01 s
wall time for grad    0.01 s
 E :    -50.46264463  G :  0.001297    pred/act E change: -0.703D-05 -0.782D-05
Maxdispl :   0.0522   ||displ|| :   0.0771   Lambda : -0.124D-04
Largest |displ|/coords:  0.0522 (   3)  0.0274 (   2)  0.0227 (   8)
................................................................................
.............................. CYCLE   46 ......................................
................................................................................
   1    -50.7452387 -0.507452E+02  0.370E-02    9.39       0.0  T
   2    -50.7452390 -0.345150E-06  0.275E-02    9.39       1.0  T
   3    -50.7452393 -0.265978E-06  0.420E-03    9.38       4.7  T
   4    -50.7452393 -0.402894E-07  0.220E-03    9.39       8.9  T
   5    -50.7452393 -0.328800E-08  0.346E-04    9.39      56.7  T
   6    -50.7452393 -0.114255E-09  0.228E-04    9.39      86.0  T
speedup  0.93
cpu  time for SCC    0.00 s
wall time for SCC    0.01 s
speedup  1.01
cpu  time for grad    0.01 s
wall time for grad    0.01 s
 E :    -50.46265342  G :  0.001504    pred/act E change: -0.527D-05 -0.879D-05
Maxdispl :   0.0595   ||displ|| :   0.0861   Lambda : -0.116D-04
Largest |displ|/coords:  0.0595 (   3)  0.0269 (   2)  0.0227 (   8)
................................................................................
.............................. CYCLE   47 ......................................
................................................................................
   1    -50.7452904 -0.507453E+02  0.407E-02    9.39       0.0  T
   2    -50.7452908 -0.383736E-06  0.304E-02    9.39       1.0  T
   3    -50.7452911 -0.319412E-06  0.427E-03    9.39       4.6  T
   4    -50.7452912 -0.460074E-07  0.222E-03    9.39       8.8  T
   5    -50.7452912 -0.319744E-08  0.368E-04    9.39      53.3  T
   6    -50.7452912 -0.140837E-09  0.245E-04    9.39      80.2  T
speedup  0.94
cpu  time for SCC    0.00 s
wall time for SCC    0.01 s
speedup  0.95
cpu  time for grad    0.01 s
wall time for grad    0.01 s
 E :    -50.46266184  G :  0.001950    pred/act E change: -0.621D-05 -0.841D-05
Maxdispl :   0.0937   ||displ|| :   0.1296   Lambda : -0.143D-04
Largest |displ|/coords:  0.0937 (   3)  0.0429 (   2)  0.0314 (   8)
................................................................................
.............................. CYCLE   48 ......................................
................................................................................
   1    -50.7449307 -0.507449E+02  0.612E-02    9.39       0.0  T
   2    -50.7449314 -0.732290E-06  0.460E-02    9.39       1.0  T
   3    -50.7449321 -0.676051E-06  0.583E-03    9.38       3.4  T
   4    -50.7449322 -0.805817E-07  0.277E-03    9.38       7.1  T
   5    -50.7449322 -0.517674E-08  0.519E-04    9.38      37.8  T
   6    -50.7449322 -0.263292E-09  0.342E-04    9.38      57.3  T
speedup  0.94
cpu  time for SCC    0.00 s
wall time for SCC    0.01 s
speedup  1.02
cpu  time for grad    0.01 s
wall time for grad    0.01 s
 E :    -50.46267170  G :  0.002599    pred/act E change: -0.583D-05 -0.986D-05
Maxdispl :   0.0859   ||displ|| :   0.1211   Lambda : -0.149D-04
Largest |displ|/coords:  0.0859 (   3)  0.0367 (   2)  0.0327 (   6)
................................................................................
.............................. CYCLE   49 ......................................
................................................................................
   1    -50.7450498 -0.507450E+02  0.561E-02    9.38       0.0  T
   2    -50.7450504 -0.579343E-06  0.421E-02    9.38       1.0  T
   3    -50.7450510 -0.557063E-06  0.539E-03    9.38       3.6  T
   4    -50.7450510 -0.601810E-07  0.220E-03    9.38       8.9  T
   5    -50.7450510 -0.396320E-08  0.485E-04    9.38      40.5  T
   6    -50.7450510 -0.240718E-09  0.313E-04    9.38      62.7  T
speedup  1.13
cpu  time for SCC    0.01 s
wall time for SCC    0.01 s
speedup  1.02
cpu  time for grad    0.01 s
wall time for grad    0.01 s
 E :    -50.46268185  G :  0.002377    pred/act E change: -0.729D-05 -0.101D-04
Maxdispl :   0.0846   ||displ|| :   0.1194   Lambda : -0.124D-04
Largest |displ|/coords:  0.0846 (   3)  0.0401 (   2)  0.0327 (   6)
................................................................................
.............................. CYCLE   50 ......................................
................................................................................
   1    -50.7447391 -0.507447E+02  0.574E-02    9.37       0.0  T
   2    -50.7447397 -0.525265E-06  0.431E-02    9.37       1.0  T
   3    -50.7447402 -0.582968E-06  0.534E-03    9.37       3.7  T
   4    -50.7447403 -0.373772E-07  0.153E-03    9.37      12.8  T
   5    -50.7447403 -0.318774E-08  0.479E-04    9.37      41.0  T
   6    -50.7447403 -0.219366E-09  0.285E-04    9.37      68.9  T
speedup  0.93
cpu  time for SCC    0.00 s
wall time for SCC    0.01 s
speedup  1.01
cpu  time for grad    0.01 s
wall time for grad    0.01 s
 E :    -50.46269021  G :  0.002078    pred/act E change: -0.758D-05 -0.836D-05
Maxdispl :   0.0511   ||displ|| :   0.0767   Lambda : -0.995D-05
Largest |displ|/coords:  0.0511 (   3)  0.0313 (   2)  0.0259 (   6)
................................................................................
.............................. CYCLE   51 ......................................
................................................................................
   1    -50.7450009 -0.507450E+02  0.348E-02    9.37       0.0  T
   2    -50.7450011 -0.213889E-06  0.259E-02    9.37       1.0  T
   3    -50.7450013 -0.204018E-06  0.361E-03    9.37       5.4  T
   4    -50.7450013 -0.195227E-07  0.121E-03    9.37      16.2  T
   5    -50.7450013 -0.156552E-08  0.281E-04    9.37      69.8  T
   6    -50.7450013 -0.757652E-10  0.182E-04    9.37     107.5  T
speedup  1.13
cpu  time for SCC    0.01 s
wall time for SCC    0.01 s
speedup  1.02
cpu  time for grad    0.01 s
wall time for grad    0.01 s
 E :    -50.46269609  G :  0.001272    pred/act E change: -0.627D-05 -0.588D-05
Maxdispl :   0.0472   ||displ|| :   0.0727   Lambda : -0.513D-05
Largest |displ|/coords:  0.0472 (   3)  0.0299 (   2)  0.0246 (   6)
................................................................................
.............................. CYCLE   52 ......................................
................................................................................
   1    -50.7448050 -0.507448E+02  0.338E-02    9.37       0.0  T
   2    -50.7448052 -0.214719E-06  0.253E-02    9.37       1.0  T
   3    -50.7448055 -0.207148E-06  0.378E-03    9.37       5.2  T
   4    -50.7448055 -0.207046E-07  0.105E-03    9.37      18.7  T
   5    -50.7448055 -0.148172E-08  0.289E-04    9.37      68.0  T
   6    -50.7448055 -0.714167E-10  0.176E-04    9.37     111.7  T
speedup  0.93
cpu  time for SCC    0.00 s
wall time for SCC    0.01 s
speedup  1.01
cpu  time for grad    0.01 s
wall time for grad    0.01 s
 E :    -50.46269957  G :  0.001131    pred/act E change: -0.500D-05 -0.349D-05
Maxdispl :   0.0292   ||displ|| :   0.0517   Lambda : -0.471D-05
Largest |displ|/coords:  0.0292 (   2)  0.0256 (   3)  0.0220 (   6)

generating ANC from model Hessian ...
 Shifting diagonal of input Hessian by   4.974168649497982E-003
 Lowest  eigenvalues of input Hessian
   -0.000000   -0.000000   -0.000000    0.000000    0.000000    0.000000
    0.005000    0.005246    0.005808    0.006118    0.006224    0.006779
    0.007016    0.007628    0.008453    0.009282    0.010941    0.012684
 Highest eigenvalues
    1.399280    1.404143    1.433720    2.765060    3.344714    3.605995
 
cpu  time for ANC gen    0.01 s
wall time for ANC gen    0.01 s
................................................................................
.............................. CYCLE   53 ......................................
................................................................................
   1    -50.7450088 -0.507450E+02  0.244E-02    9.38       0.0  T
   2    -50.7450089 -0.114725E-06  0.182E-02    9.38       1.1  T
   3    -50.7450090 -0.949261E-07  0.295E-03    9.38       6.6  T
   4    -50.7450091 -0.130836E-07  0.790E-04    9.38      24.8  T
   5    -50.7450091 -0.830923E-09  0.200E-04    9.38      98.0  T
speedup  1.11
cpu  time for SCC    0.00 s
wall time for SCC    0.00 s
speedup  1.01
cpu  time for grad    0.01 s
wall time for grad    0.01 s
 E :    -50.46270285  G :  0.001202    pred/act E change:  0.000D+00 -0.328D-05
Maxdispl :   0.0154   ||displ|| :   0.0205   Lambda : -0.534D-05
Largest |displ|/coords:  0.0154 (   2)  0.0067 (  13)  0.0047 (  14)
................................................................................
.............................. CYCLE   54 ......................................
................................................................................
   1    -50.7450729 -0.507451E+02  0.215E-02    9.38       0.0  T
   2    -50.7450730 -0.459556E-07  0.163E-02    9.38       1.2  T
   3    -50.7450731 -0.603560E-07  0.115E-03    9.38      17.1  T
   4    -50.7450731 -0.181614E-08  0.445E-04    9.38      44.0  T
   5    -50.7450731 -0.219856E-09  0.144E-04    9.38     135.9  T
speedup  1.11
cpu  time for SCC    0.00 s
wall time for SCC    0.00 s
speedup  1.01
cpu  time for grad    0.01 s
wall time for grad    0.01 s
 E :    -50.46270687  G :  0.000595    pred/act E change:  0.000D+00 -0.402D-05
Maxdispl :   0.0431   ||displ|| :   0.0532   Lambda : -0.829D-05
Largest |displ|/coords:  0.0431 (   2)  0.0154 (  14)  0.0147 (  13)
................................................................................
.............................. CYCLE   55 ......................................
................................................................................
   1    -50.7451225 -0.507451E+02  0.501E-02    9.38       0.0  T
   2    -50.7451227 -0.177401E-06  0.379E-02    9.38       1.0  T
   3    -50.7451230 -0.234043E-06  0.215E-03    9.38       9.1  T
   4    -50.7451230 -0.551457E-08  0.849E-04    9.38      23.1  T
   5    -50.7451230 -0.632141E-09  0.302E-04    9.38      65.0  T
speedup  0.89
cpu  time for SCC    0.00 s
wall time for SCC    0.00 s
speedup  1.01
cpu  time for grad    0.01 s
wall time for grad    0.01 s
 E :    -50.46271268  G :  0.000503    pred/act E change: -0.267D-05 -0.581D-05
Maxdispl :   0.0581   ||displ|| :   0.0687   Lambda : -0.646D-05
Largest |displ|/coords:  0.0581 (   2)  0.0192 (  14)  0.0165 (  13)
................................................................................
.............................. CYCLE   56 ......................................
................................................................................
   1    -50.7450494 -0.507450E+02  0.580E-02    9.38       0.0  T
   2    -50.7450496 -0.233437E-06  0.437E-02    9.38       1.0  T
   3    -50.7450499 -0.302128E-06  0.285E-03    9.38       6.9  T
   4    -50.7450499 -0.102942E-07  0.822E-04    9.38      23.8  T
   5    -50.7450499 -0.601631E-09  0.441E-04    9.38      44.5  T
speedup  1.11
cpu  time for SCC    0.00 s
wall time for SCC    0.00 s
speedup  1.01
cpu  time for grad    0.01 s
wall time for grad    0.01 s
 E :    -50.46271698  G :  0.001035    pred/act E change: -0.416D-05 -0.430D-05
Maxdispl :   0.0495   ||displ|| :   0.0570   Lambda : -0.453D-05
Largest |displ|/coords:  0.0495 (   2)  0.0135 (  14)  0.0107 (   1)
................................................................................
.............................. CYCLE   57 ......................................
................................................................................
   1    -50.7450308 -0.507450E+02  0.370E-02    9.38       0.0  T
   2    -50.7450309 -0.805347E-07  0.279E-02    9.38       1.0  T
   3    -50.7450310 -0.103682E-06  0.182E-03    9.38      10.8  T
   4    -50.7450310 -0.382845E-08  0.573E-04    9.38      34.2  T
   5    -50.7450310 -0.330921E-09  0.285E-04    9.38      68.9  T
speedup  0.87
cpu  time for SCC    0.00 s
wall time for SCC    0.00 s
speedup  1.01
cpu  time for grad    0.01 s
wall time for grad    0.01 s
 E :    -50.46272044  G :  0.000979    pred/act E change: -0.324D-05 -0.347D-05
Maxdispl :   0.0675   ||displ|| :   0.0772   Lambda : -0.578D-05
Largest |displ|/coords:  0.0675 (   2)  0.0169 (   1)  0.0120 (   7)
................................................................................
.............................. CYCLE   58 ......................................
................................................................................
   1    -50.7450356 -0.507450E+02  0.381E-02    9.38       0.0  T
   2    -50.7450357 -0.125007E-06  0.287E-02    9.38       1.0  T
   3    -50.7450359 -0.139658E-06  0.256E-03    9.38       7.7  T
   4    -50.7450359 -0.119729E-07  0.807E-04    9.38      24.3  T
   5    -50.7450359 -0.784020E-09  0.315E-04    9.38      62.3  T
speedup  0.83
cpu  time for SCC    0.00 s
wall time for SCC    0.00 s
speedup  0.98
cpu  time for grad    0.01 s
wall time for grad    0.01 s
 E :    -50.46272435  G :  0.000583    pred/act E change: -0.227D-05 -0.391D-05
Maxdispl :   0.0678   ||displ|| :   0.0768   Lambda : -0.325D-05
Largest |displ|/coords:  0.0678 (   2)  0.0196 (   1)  0.0114 (   7)
................................................................................
.............................. CYCLE   59 ......................................
................................................................................
   1    -50.7448903 -0.507449E+02  0.378E-02    9.38       0.0  T
   2    -50.7448904 -0.142705E-06  0.284E-02    9.38       1.0  T
   3    -50.7448906 -0.150889E-06  0.272E-03    9.38       7.2  T
   4    -50.7448906 -0.154861E-07  0.842E-04    9.38      23.3  T
   5    -50.7448906 -0.754135E-09  0.305E-04    9.38      64.3  T
speedup  0.67
cpu  time for SCC    0.00 s
wall time for SCC    0.00 s
speedup  0.86
cpu  time for grad    0.01 s
wall time for grad    0.01 s
 E :    -50.46272664  G :  0.000557    pred/act E change: -0.291D-05 -0.229D-05
Maxdispl :   0.0499   ||displ|| :   0.0619   Lambda : -0.315D-05
Largest |displ|/coords:  0.0499 (   2)  0.0207 (   1)  0.0143 (   7)
................................................................................
.............................. CYCLE   60 ......................................
................................................................................
   1    -50.7449507 -0.507450E+02  0.195E-02    9.38       0.0  T
   2    -50.7449508 -0.109241E-06  0.146E-02    9.38       1.3  T
   3    -50.7449509 -0.748729E-07  0.242E-03    9.38       8.1  T
   4    -50.7449509 -0.174180E-07  0.670E-04    9.38      29.3  T
   5    -50.7449509 -0.762711E-09  0.208E-04    9.38      94.5  T
speedup  0.89
cpu  time for SCC    0.00 s
wall time for SCC    0.00 s
speedup  1.01
cpu  time for grad    0.01 s
wall time for grad    0.01 s
 E :    -50.46272834  G :  0.000804    pred/act E change: -0.164D-05 -0.170D-05
Maxdispl :   0.0367   ||displ|| :   0.0444   Lambda : -0.156D-05
Largest |displ|/coords:  0.0367 (   2)  0.0173 (   1)  0.0090 (   7)
................................................................................
.............................. CYCLE   61 ......................................
................................................................................
   1    -50.7448524 -0.507449E+02  0.198E-02    9.38       0.0  T
   2    -50.7448524 -0.463449E-07  0.149E-02    9.38       1.3  T
   3    -50.7448524 -0.476449E-07  0.153E-03    9.38      12.9  T
   4    -50.7448525 -0.509537E-08  0.477E-04    9.38      41.1  T
   5    -50.7448525 -0.252648E-09  0.147E-04    9.38     133.0  T
speedup  1.11
cpu  time for SCC    0.00 s
wall time for SCC    0.00 s
speedup  1.01
cpu  time for grad    0.01 s
wall time for grad    0.01 s
 E :    -50.46272933  G :  0.000411    pred/act E change: -0.158D-05 -0.986D-06
Maxdispl :   0.0119   ||displ|| :   0.0201   Lambda : -0.127D-05
Largest |displ|/coords:  0.0119 (   1)  0.0061 (   2)  0.0057 (   6)
................................................................................
.............................. CYCLE   62 ......................................
................................................................................
   1    -50.7449208 -0.507449E+02  0.100E-02    9.38       0.0  T
   2    -50.7449208 -0.185357E-07  0.757E-03    9.38       2.6  T
   3    -50.7449208 -0.192004E-07  0.703E-04    9.38      27.9  T
   4    -50.7449208 -0.190764E-08  0.303E-04    9.38      64.7  T
speedup  1.11
cpu  time for SCC    0.00 s
wall time for SCC    0.00 s
speedup  1.00
cpu  time for grad    0.01 s
wall time for grad    0.01 s
 E :    -50.46273030  G :  0.000390    pred/act E change: -0.780D-06 -0.973D-06
Maxdispl :   0.0227   ||displ|| :   0.0366   Lambda : -0.167D-05
Largest |displ|/coords:  0.0227 (   1)  0.0132 (   6)  0.0105 (   2)
................................................................................
.............................. CYCLE   63 ......................................
................................................................................
   1    -50.7449757 -0.507450E+02  0.186E-02    9.38       0.0  T
   2    -50.7449757 -0.547892E-07  0.141E-02    9.38       1.4  T
   3    -50.7449758 -0.655158E-07  0.118E-03    9.38      16.6  T
   4    -50.7449758 -0.405553E-08  0.549E-04    9.38      35.7  T
   5    -50.7449758 -0.325983E-09  0.153E-04    9.38     127.9  T
speedup  0.87
cpu  time for SCC    0.00 s
wall time for SCC    0.00 s
speedup  1.00
cpu  time for grad    0.01 s
wall time for grad    0.01 s
 E :    -50.46273154  G :  0.000468    pred/act E change: -0.635D-06 -0.123D-05
Maxdispl :   0.0286   ||displ|| :   0.0476   Lambda : -0.154D-05
Largest |displ|/coords:  0.0286 (   1)  0.0181 (   2)  0.0173 (   6)
................................................................................
.............................. CYCLE   64 ......................................
................................................................................
   1    -50.7449755 -0.507450E+02  0.235E-02    9.39       0.0  T
   2    -50.7449756 -0.853463E-07  0.177E-02    9.39       1.1  T
   3    -50.7449757 -0.103011E-06  0.158E-03    9.39      12.4  T
   4    -50.7449757 -0.612931E-08  0.698E-04    9.39      28.1  T
   5    -50.7449757 -0.485187E-09  0.191E-04    9.39     102.8  T
speedup  1.09
cpu  time for SCC    0.00 s
wall time for SCC    0.00 s
speedup  1.00
cpu  time for grad    0.01 s
wall time for grad    0.01 s
 E :    -50.46273261  G :  0.000483    pred/act E change: -0.836D-06 -0.108D-05
Maxdispl :   0.0257   ||displ|| :   0.0432   Lambda : -0.113D-05
Largest |displ|/coords:  0.0257 (   1)  0.0193 (   2)  0.0170 (   6)
................................................................................
.............................. CYCLE   65 ......................................
................................................................................
   1    -50.7449471 -0.507449E+02  0.209E-02    9.39       0.0  T
   2    -50.7449471 -0.604083E-07  0.157E-02    9.39       1.2  T
   3    -50.7449472 -0.745204E-07  0.152E-03    9.39      12.9  T
   4    -50.7449472 -0.377926E-08  0.597E-04    9.39      32.8  T
[...]
................................................................................
.............................. CYCLE  102 ......................................
................................................................................
   1    -50.7443766 -0.507444E+02  0.305E-02    9.46       0.0  T
   2    -50.7443767 -0.108382E-06  0.230E-02    9.46       1.0  T
   3    -50.7443769 -0.123413E-06  0.233E-03    9.46       8.4  T
   4    -50.7443769 -0.869234E-08  0.821E-04    9.46      23.9  T
   5    -50.7443769 -0.813124E-09  0.297E-04    9.46      66.0  T
speedup  1.14
cpu  time for SCC    0.00 s
wall time for SCC    0.00 s
speedup  1.01
cpu  time for grad    0.01 s
wall time for grad    0.01 s
 E :    -50.46278031  G :  0.000430    pred/act E change: -0.424D-05 -0.233D-05
Maxdispl :   0.0149   ||displ|| :   0.0342   Lambda : -0.150D-05
Largest |displ|/coords:  0.0149 (   2)  0.0139 (  15)  0.0135 (   3)
................................................................................
.............................. CYCLE  103 ......................................
................................................................................
   1    -50.7443806 -0.507444E+02  0.177E-02    9.46       0.0  T
   2    -50.7443807 -0.358915E-07  0.132E-02    9.46       1.5  T
   3    -50.7443807 -0.456578E-07  0.161E-03    9.46      12.2  T
   4    -50.7443807 -0.218716E-08  0.391E-04    9.46      50.2  T
   5    -50.7443807 -0.237854E-09  0.162E-04    9.46     120.8  T
speedup  0.91
cpu  time for SCC    0.00 s
wall time for SCC    0.00 s
speedup  0.94
cpu  time for grad    0.01 s
wall time for grad    0.01 s
 E :    -50.46278159  G :  0.000402    pred/act E change: -0.280D-05 -0.128D-05
Maxdispl :   0.0402   ||displ|| :   0.0931   Lambda : -0.341D-05
Largest |displ|/coords:  0.0402 (   3)  0.0394 (  15)  0.0364 (   2)
................................................................................
.............................. CYCLE  104 ......................................
................................................................................
   1    -50.7443379 -0.507443E+02  0.499E-02    9.46       0.0  T
   2    -50.7443382 -0.272597E-06  0.374E-02    9.46       1.0  T
   3    -50.7443386 -0.347735E-06  0.410E-03    9.46       4.8  T
   4    -50.7443386 -0.161442E-07  0.108E-03    9.46      18.2  T
   5    -50.7443386 -0.153078E-08  0.506E-04    9.46      38.7  T
   6    -50.7443386 -0.262538E-09  0.234E-04    9.46      84.0  T
speedup  0.91
cpu  time for SCC    0.00 s
wall time for SCC    0.01 s
speedup  1.01
cpu  time for grad    0.01 s
wall time for grad    0.01 s
 E :    -50.46278339  G :  0.000445    pred/act E change: -0.751D-06 -0.180D-05
Maxdispl :   0.0045   ||displ|| :   0.0098   Lambda : -0.671D-06
Largest |displ|/coords:  0.0045 (   2)  0.0040 (   3)  0.0035 (  17)
................................................................................
.............................. CYCLE  105 ......................................
................................................................................
   1    -50.7444387 -0.507444E+02  0.579E-03    9.46       0.0  T
   2    -50.7444387 -0.818652E-08  0.437E-03    9.46       4.5  T
   3    -50.7444387 -0.579882E-08  0.539E-04    9.46      36.4  T
   4    -50.7444387 -0.126976E-08  0.224E-04    9.46      87.7  T
speedup  0.83
cpu  time for SCC    0.00 s
wall time for SCC    0.00 s
speedup  0.92
cpu  time for grad    0.01 s
wall time for grad    0.01 s
 E :    -50.46278382  G :  0.000245    pred/act E change: -0.172D-05 -0.434D-06
Maxdispl :   0.0075   ||displ|| :   0.0139   Lambda : -0.451D-06
Largest |displ|/coords:  0.0075 (   3)  0.0051 (  15)  0.0045 (  18)
................................................................................
.............................. CYCLE  106 ......................................
................................................................................
   1    -50.7444748 -0.507445E+02  0.781E-03    9.46       0.0  T
   2    -50.7444749 -0.114992E-07  0.588E-03    9.46       3.3  T
   3    -50.7444749 -0.102393E-07  0.579E-04    9.46      33.9  T
   4    -50.7444749 -0.139659E-08  0.257E-04    9.46      76.3  T
speedup  1.08
cpu  time for SCC    0.00 s
wall time for SCC    0.00 s
speedup  0.99
cpu  time for grad    0.01 s
wall time for grad    0.01 s
 E :    -50.46278415  G :  0.000289    pred/act E change: -0.336D-06 -0.323D-06
Maxdispl :   0.0050   ||displ|| :   0.0118   Lambda : -0.346D-06
Largest |displ|/coords:  0.0050 (   4)  0.0050 (   2)  0.0041 (   3)
................................................................................
.............................. CYCLE  107 ......................................
................................................................................
   1    -50.7444878 -0.507445E+02  0.580E-03    9.46       0.0  T
   2    -50.7444878 -0.794576E-08  0.436E-03    9.46       4.5  T
   3    -50.7444878 -0.515507E-08  0.553E-04    9.46      35.4  T
   4    -50.7444878 -0.128998E-08  0.196E-04    9.46     100.0  T
speedup  1.05
cpu  time for SCC    0.00 s
wall time for SCC    0.00 s
speedup  0.99
cpu  time for grad    0.01 s
wall time for grad    0.01 s
 E :    -50.46278439  G :  0.000259    pred/act E change: -0.225D-06 -0.240D-06
Maxdispl :   0.0046   ||displ|| :   0.0101   Lambda : -0.208D-06
Largest |displ|/coords:  0.0046 (   4)  0.0040 (   5)  0.0037 (   2)
................................................................................
.............................. CYCLE  108 ......................................
................................................................................
   1    -50.7444692 -0.507445E+02  0.530E-03    9.46       0.0  T
   2    -50.7444692 -0.458567E-08  0.397E-03    9.46       4.9  T
   3    -50.7444692 -0.360991E-08  0.453E-04    9.46      43.3  T
   4    -50.7444692 -0.638117E-09  0.187E-04    9.46     105.1  T
speedup  0.81
cpu  time for SCC    0.00 s
wall time for SCC    0.00 s
speedup  0.99
cpu  time for grad    0.01 s
wall time for grad    0.01 s
 E :    -50.46278454  G :  0.000223    pred/act E change: -0.173D-06 -0.152D-06
Maxdispl :   0.0065   ||displ|| :   0.0131   Lambda : -0.222D-06
Largest |displ|/coords:  0.0065 (   4)  0.0058 (   5)  0.0053 (   3)
................................................................................
.............................. CYCLE  109 ......................................
................................................................................
   1    -50.7444549 -0.507445E+02  0.677E-03    9.46       0.0  T
   2    -50.7444549 -0.719456E-08  0.508E-03    9.46       3.9  T
   3    -50.7444549 -0.554620E-08  0.571E-04    9.46      34.4  T
   4    -50.7444549 -0.104301E-08  0.231E-04    9.46      84.8  T
speedup  0.83
cpu  time for SCC    0.00 s
wall time for SCC    0.00 s
speedup  1.00
cpu  time for grad    0.01 s
wall time for grad    0.01 s
 E :    -50.46278470  G :  0.000145    pred/act E change: -0.104D-06 -0.163D-06
Maxdispl :   0.0068   ||displ|| :   0.0130   Lambda : -0.184D-06
Largest |displ|/coords:  0.0068 (   5)  0.0066 (   4)  0.0057 (   3)
................................................................................
.............................. CYCLE  110 ......................................
................................................................................
   1    -50.7444479 -0.507444E+02  0.695E-03    9.46       0.0  T
   2    -50.7444480 -0.587460E-08  0.520E-03    9.46       3.8  T
   3    -50.7444480 -0.546776E-08  0.559E-04    9.46      35.1  T
   4    -50.7444480 -0.605567E-09  0.209E-04    9.46      93.6  T
speedup  1.11
cpu  time for SCC    0.00 s
wall time for SCC    0.00 s
speedup  1.00
cpu  time for grad    0.01 s
wall time for grad    0.01 s
 E :    -50.46278483  G :  0.000112    pred/act E change: -0.111D-06 -0.132D-06
Maxdispl :   0.0061   ||displ|| :   0.0118   Lambda : -0.135D-06
Largest |displ|/coords:  0.0061 (   4)  0.0060 (   3)  0.0060 (   5)
................................................................................
.............................. CYCLE  111 ......................................
................................................................................
   1    -50.7444605 -0.507445E+02  0.586E-03    9.46       0.0  T
   2    -50.7444605 -0.436270E-08  0.439E-03    9.46       4.5  T
   3    -50.7444605 -0.451016E-08  0.442E-04    9.46      44.3  T
   4    -50.7444605 -0.383316E-09  0.146E-04    9.46     134.4  T
speedup  1.05
cpu  time for SCC    0.00 s
wall time for SCC    0.00 s
speedup  0.98
cpu  time for grad    0.01 s
wall time for grad    0.01 s
 E :    -50.46278493  G :  0.000137    pred/act E change: -0.923D-07 -0.972D-07
Maxdispl :   0.0062   ||displ|| :   0.0115   Lambda : -0.106D-06
Largest |displ|/coords:  0.0062 (   4)  0.0061 (   3)  0.0057 (   5)

   *** GEOMETRY OPTIMIZATION CONVERGED AFTER 111 ITERATIONS ***

------------------------------------------------------------------------
 total energy gain (kcal):     -0.0285
------------------------------------------------------------------------
================
 final structure:
================
$coord
       -1.39623857930681       -1.16672306943327        1.47881756530995      S 
        0.63683493179795       -2.22635684157471        2.97454981727161      O 
       -1.98032054448820       -2.67411111641531       -0.77295546213923      O 
       -3.84599721373107       -1.14604240434240        3.08885040125000      O 
       -0.88153116992537        1.44992557931187        0.73191954311602      O 
        3.09629541974185       -3.95375281109467       -0.99779753428702      O 
        1.58175348286704       -4.68487436378711       -1.68527298686907      H 
        2.55392579984987       -3.34551707945203        0.66245531296920      H 
        4.72134206880445       -0.09335206833959       -3.78675436129676      O 
        6.33207327099371        0.37416399546595       -3.10398422937995      H 
        4.16474987317255       -1.57388702180305       -2.79700654658292      H 
       -0.26253995632900        4.19555044669361        4.87694724292060      O 
       -1.45592739303786        5.55073621585718        4.73201675186148      H 
       -0.34494139372017        3.26122763915105        3.27710883407453      H 
        0.87437511753131        3.10633569695252       -3.60975201497812      O 
        0.35313557220299        2.85542632526086       -1.84444798742678      H 
        2.47607671590376        2.16270920182025       -3.76773381364179      H 
       -0.92509769787370        1.30450722359151       -4.63399186935683      H 
       -1.40356455357121       -0.20002643272018        7.16608910989223      O 
       -0.09125397573327       -1.20742055259227        6.37921463864524      H 
       -0.92433773011992        1.55456130306219        6.82249029212730      H 
       -3.22482035863414       -0.79682110318004        4.84450386837432      H 
       -2.23636450148385       -0.30204774700563       -5.00017271404467      N 
       -4.00819102551907        0.31215768396529       -5.39621078271905      H 
       -2.23602654182578       -1.33680402630192       -3.22803427627727      H 
       -1.57340965531632       -1.41956467304607       -6.41084876098659      H 
$end
 
 Bond Distances (Angstroems)
 ---------------------------
S1-O2=1.4486         S1-O3=1.4669         S1-O4=1.5513         S1-O5=1.4655         O2-S1=1.4486         O3-S1=1.4669         
O4-S1=1.5513         O4-H22=1.0027        O5-S1=1.4655         O6-H7=0.9614         O6-H8=0.9787         H7-O6=0.9614         
H8-O6=0.9787         O9-H10=0.9583        O9-H11=0.9874        H10-O9=0.9583        H11-O9=0.9874        O12-H13=0.9586       
O12-H14=0.9814       H13-O12=0.9586       H14-O12=0.9814       O15-H16=0.9830       O15-H17=0.9873       H16-O15=0.9830       
H17-O15=0.9873       H18-N23=1.1144       O19-H20=0.9694       O19-H21=0.9795       H20-O19=0.9694       H21-O19=0.9795       
H22-O4=1.0027        N23-H18=1.1144       N23-H24=1.0142       N23-H25=1.0859       N23-H26=1.0149       H24-N23=1.0142       
H25-N23=1.0859       H26-N23=1.0149       
 N  H  Rav=1.0574 sigma=0.0440  Rmin=1.0142  Rmax=1.1144     4
 O  H  Rav=0.9771 sigma=0.0132  Rmin=0.9583  Rmax=1.0027    11
 S  O  Rav=1.4831 sigma=0.0401  Rmin=1.4486  Rmax=1.5513     4
 
 selected bond angles (degree)
 --------------------
O3-S1-O2=112.95                O4-S1-O2=108.86                O4-S1-O3=105.90                O5-S1-O2=112.03                
O5-S1-O3=109.50                O5-S1-O4=107.26                H22-O4-S1=103.66               H8-O6-H7=103.15                
H11-O9-H10=105.68              
 
 selected dihedral angles (degree)
 ---------------------------------
H22-O4-S1-O2= 34.83           H22-O4-S1-O3=156.54           H22-O4-S1-O5=273.42           
 
 CMA Distance (Angstroems)
 ---------------------------
R(CMA):  1.7009

========================================================================
 FINAL SINGLEPOINT CALCULATION ON OPTIMIZED GEOMETRY
========================================================================

 Ncao       : 65
 Nao        : 64
 Nshell     : 38
 Nel        : 80
 T(el)      :   300.0
 intcut     :    25.0
 scfconv/Eh :  0.100E-05
   qconv/e  :  0.100E-03
 intneglect :  0.100E-07
 broydamp   :      0.250
 iter      E             dE          RMSdq      gap      omega  full diag
   1    -50.7444605 -0.507445E+02  0.585E-05    9.46       0.0  T
   2    -50.7444605 -0.230926E-11  0.368E-05    9.46     532.9  T
   3    -50.7444605 -0.100897E-11  0.652E-06    9.46    3005.9  T
speedup  1.11
cpu  time for SCC    0.00 s
wall time for SCC    0.00 s

   *** convergence criteria satisfied after 3 iterations ***

          eigenvalues
 #    :          28         29         30         31         32         33         34         35
 occ. :        2.000      2.000      2.000      2.000      2.000      2.000      2.000      2.000
 eps  :       -13.521    -13.044    -12.580    -12.383    -12.264    -12.203    -12.091    -11.970
 #    :          36         37         38         39         40         41         42         43
 occ. :        2.000      2.000      2.000      2.000      2.000      0.000      0.000      0.000
 eps  :       -11.944    -11.900    -11.864    -11.801    -11.708     -2.247     -1.100      0.090
 #    :          44         45         46         47         48         49         50         51
 occ. :        0.000      0.000      0.000      0.000      0.000      0.000      0.000      0.000
 eps  :         0.641      1.086      1.499      1.967      2.957      3.937      4.010      4.316


   #   Z            q   n(s)   n(p)   n(d)      C6AA      α(0)
   1  16 S      1.707  1.584  1.770  0.939    88.599    15.842
   2   8 O     -0.753  1.777  4.976  0.000    30.185     7.366
   3   8 O     -0.740  1.760  4.980  0.000    29.803     7.320
   4   8 O     -0.630  1.764  4.866  0.000    25.899     6.870
   5   8 O     -0.778  1.773  5.005  0.000    30.920     7.455
   6   8 O     -0.612  1.740  4.871  0.000    25.473     6.812
   7   1 H      0.295  0.705  0.000  0.000     0.736     1.347
   8   1 H      0.319  0.681  0.000  0.000     0.666     1.282
   9   8 O     -0.620  1.748  4.872  0.000    25.678     6.839
  10   1 H      0.286  0.714  0.000  0.000     0.765     1.374
  11   1 H      0.331  0.669  0.000  0.000     0.634     1.251
  12   8 O     -0.614  1.747  4.867  0.000    25.517     6.818
  13   1 H      0.284  0.716  0.000  0.000     0.770     1.378
  14   1 H      0.319  0.681  0.000  0.000     0.667     1.283
  15   8 O     -0.604  1.758  4.846  0.000    25.250     6.783
  16   1 H      0.336  0.664  0.000  0.000     0.623     1.240
  17   1 H      0.339  0.661  0.000  0.000     0.615     1.232
  18   1 H      0.311  0.689  0.000  0.000     0.678     1.289
  19   8 O     -0.611  1.754  4.857  0.000    25.447     6.808
  20   1 H      0.314  0.686  0.000  0.000     0.681     1.297
  21   1 H      0.329  0.671  0.000  0.000     0.639     1.256
  22   1 H      0.379  0.621  0.000  0.000     0.518     1.128
  23   7 N     -0.347  1.282  4.065  0.000    28.914     7.986
  24   1 H      0.226  0.774  0.000  0.000     0.982     1.552
  25   1 H      0.301  0.699  0.000  0.000     0.707     1.317
  26   1 H      0.230  0.770  0.000  0.000     0.964     1.538

 Mol. C6AA /au·bohr⁶  :       5458.652026
 Mol. C8AA /au·bohr⁸  :     118055.571241
 Mol. α(0) /au        :        106.664242

 
 Wiberg/Mayer (AO) data. WBOs > 0.1 written file <wbo>
 largest (>0.05) Wiberg bond orders for each atom
           total WBO             WBO to atom ...
     1  S   4.822    O    2 1.306    O    3 1.261    O    5 1.245    O    4 0.964
     2  O   1.717    S    1 1.306    O    5 0.106    O    3 0.099    O    4 0.084    H    8 0.055
     3  O   1.756    S    1 1.261    H   25 0.149    O    5 0.102    O    2 0.099    O    4 0.064    N   23 0.056
     4  O   1.957    S    1 0.964    H   22 0.716    O    2 0.084    O    5 0.077    O    3 0.064
     5  O   1.693    S    1 1.245    O    2 0.106    O    3 0.102    O    4 0.077    H   14 0.061    H   16 0.055
     6  O   1.879    H    7 0.901    H    8 0.837    H   11 0.073
     7  H   0.913    O    6 0.901
     8  H   0.898    O    6 0.837    O    2 0.055
     9  O   1.866    H   10 0.915    H   11 0.815    H   17 0.069
    10  H   0.918    O    9 0.915
    11  H   0.890    O    9 0.815    O    6 0.073
    12  O   1.857    H   13 0.916    H   14 0.834    H   21 0.051
    13  H   0.919    O   12 0.916
    14  H   0.898    O   12 0.834    O    5 0.061
    15  O   2.006    H   16 0.828    H   17 0.814    H   18 0.209    N   23 0.089
    16  H   0.887    O   15 0.828    O    5 0.055
    17  H   0.885    O   15 0.814    O    9 0.069
    18  H   0.903    N   23 0.690    O   15 0.209
    19  O   1.925    H   20 0.874    H   21 0.838    H   22 0.123
    20  H   0.902    O   19 0.874
    21  H   0.892    O   19 0.838    O   12 0.051
    22  H   0.856    O    4 0.716    O   19 0.123
    23  N   3.495    H   24 0.946    H   26 0.944    H   25 0.752    H   18 0.690    O   15 0.089    O    3 0.056
    24  H   0.949    N   23 0.946
    25  H   0.909    N   23 0.752    O    3 0.149
    26  H   0.947    N   23 0.944
 MOs/occ written to file <molden.input>
 
molecular dipole:
                 x           y           z       tot (Debye)
 q only:       -0.725       0.535      -2.788
   full:       -0.894       0.350      -2.456       6.702
molecular quadrupole (traceless):
                xx          xy          yy          xz          yz          zz
 q only:        0.974      -1.621      -6.568      10.437       5.538       5.594
  q+dip:        3.913      -1.666      -4.580      12.394       7.002       0.667
   full:        3.913      -1.808      -4.902      12.157       7.300       0.989

SCC energy    :     -50.7444605
rep           :       0.2814146
ES            :       0.2659414
AES           :      -0.0743694
AXC           :      -0.0093631
disp          :      -0.0189127
XB            :       0.0000000
fix           :       0.0000000
total E       :     -50.4627849
atomizationE  :       4.9930891     3133.21
(atE without considering molecular charge,
 total energy contains solvation terms)
H-L gap (eV)  :          9.4611
optimized geometry written to: xtbopt.xyz


------------------------------------------------------------------------
 * finished run on 2019/09/16 at 11:46:42.924     
------------------------------------------------------------------------
 total:
 * wall-time:     0 d,  0 h,  0 min,  2.448 sec
 *  cpu-time:     0 d,  0 h,  0 min,  2.422 sec
 * ratio c/w:     0.989 speedup
 SCF:
 * wall-time:     0 d,  0 h,  0 min,  0.130 sec
 *  cpu-time:     0 d,  0 h,  0 min,  0.127 sec
 * ratio c/w:     0.975 speedup
 ANC optimizer:
 * wall-time:     0 d,  0 h,  0 min,  2.294 sec
 *  cpu-time:     0 d,  0 h,  0 min,  2.275 sec
 * ratio c/w:     0.991 speedup

