      -----------------------------------------------------------      
     |                   =====================                   |     
     |                           x T B                           |     
     |                   =====================                   |     
     |                         S. Grimme                         |     
     |          Mulliken Center for Theoretical Chemistry        |     
     |                    University of Bonn                     |     
     |                 Version 6.0.1 (SAW181210)                 |     
      -----------------------------------------------------------      

   This program is distributed in the hope that it will be useful,
   but WITHOUT ANY WARRANTY; without even the implied warranty of
   MERCHANTABILITY or FITNESS FOR A PARTICULAR PURPOSE.
   
   FOR NON-COMMERCIAL, ACADEMIA USE ONLY.
   
   Cite this work as:
   S. Grimme, C. Bannwarth, P. Shushkov, J. Comput. Theory Chem., 2017,
   13, 1989-2009.
   C. Bannwarth, S. Ehlert and S. Grimme., ChemRxiv, 2018, preprint.
   http://doi.org/10.26434/chemrxiv.7246238.v1
   
   for sTDA-xTB:
   S. Grimme and C. Bannwarth, J. Chem. Phys., 2016, 145, 054103.
   
   in the mass-spec context:
   V. Asgeirsson, C. Bauer and S. Grimme, Chem. Sci., 2017, 8, 4879.
   
   if GBSA is used:
   P. Shushkov, F. März and S. Grimme, unpublished.
   
   for ANC optimizer:
   S. Grimme, unpublished.
   Rational Function algorithm used in ANCopt:
   F. Eckert, P. Pulay, H.-J. Werner, J. Comput. Chem., 1997, 18, 1473.
   
   with help from (in alphabetical order)
   C. Bannwarth, F. Bohle, G. Brandenburg, E. Caldeweyher, M. Checinski,
   S. Dohm, S. Ehlert, S. Ehrlich, F. März, H. Neugebauer, J. Pisarek,
   P. Pracht, P. Shushkov, and S. Spicher.
   
 * started run on 2019/09/16 at 11:52:16.107     
========================================================================
 # omp threads = 1
========================================================================
number of atoms            : 26
number of electrons        : 80
charge                     : 0
spin                       : .0
first test random number   : .7272

########################################################################
# WARNING! Please study the warnings concerning your input carefully
#  - XTBPATH is not set, using XTBHOME instead
#  - the use of '-opt' is discouraged, please use '--opt' next time
#  - the use of '-chrg' is discouraged, please use '--chrg' next time
#  - the use of '-uhf' is discouraged, please use '--uhf' next time
########################################################################

           ------------------------------------------------- 
          |                 G F N 2 - x T B                 |
          | Geometry, Frequencies, Noncovalent interactions |
          |            JCTC 2018 parametrisation            |
           ------------------------------------------------- 
      method parameters     
 k(s)        :  1.8500
 k(p)        :  2.2300
 k(d)        :  2.2300
 k(f)        :  2.0000
 kEN (H0ij)  : -2.0000
 D4 a1       :  0.5200
 D4 a2       :  5.0000
 D4 s6       :  1.0000
 D4 s8       :  2.7000
 D4 s9       :  5.0000
 alphaj      :  2.0000


            Z     q(EN)     CN     RAES       Cart. coordinates
     1  S   6.0    0.68    4.09    3.84    -1.53301    -2.41178     0.80914
     2  O   6.0   -0.30    1.20    1.80    -3.72453    -3.38437     2.28542
     3  O   6.0   -0.32    1.21    1.80    -2.46087    -0.73438    -1.25328
     4  O   6.0   -0.33    1.24    1.80     0.17137    -0.95270     2.51041
     5  O   6.0   -0.31    1.24    1.80    -0.11800    -4.57565    -0.30601
     6  O   6.0   -0.36    1.51    1.80     0.83629     6.02264    -0.50572
     7  H   1.0    0.18    0.94    1.42     0.79960     7.80117     0.05931
     8  O   6.0   -0.37    1.63    1.81     2.31901     0.19280    -3.98455
     9  H   1.0    0.17    1.02    1.43     0.65800    -0.47355    -3.45467
    10  O   6.0   -0.22    2.95    2.66    -1.01912     3.34841    -3.64094
    11  H   1.0    0.15    1.02    1.43    -2.25400     2.20383    -2.83173
    12  H   1.0    0.16    1.19    1.46    -0.47477     4.71683    -2.49153
    13  H   1.0    0.15    1.10    1.44     0.43430     2.41645    -4.35544
    14  O   6.0   -0.22    2.94    2.64     3.15091     2.17929     0.07224
    15  H   1.0    0.16    1.15    1.45     3.20532     1.38947    -1.61982
    16  H   1.0    0.17    1.20    1.47     2.42761     3.90091     0.01861
    17  H   1.0    0.15    1.06    1.44     2.28279     1.09525     1.32233
    18  O   6.0   -0.22    2.91    2.56     2.91558    -4.28840    -4.06347
    19  H   1.0    0.16    1.07    1.44     1.94918    -4.80659    -2.55106
    20  H   1.0    0.12    0.96    1.43     2.25689    -5.08175    -5.62128
    21  H   1.0    0.16    1.19    1.46     3.02695    -2.42968    -4.21917
    22  N   5.0   -0.14    3.93    2.70    -2.96990    -1.22564     6.76424
    23  H   1.0    0.12    1.07    1.44    -3.81465    -2.28221     5.36621
    24  H   1.0    0.10    1.01    1.43    -1.28561    -0.50802     6.10650
    25  H   1.0    0.08    0.99    1.43    -4.14567     0.23944     7.26978
    26  H   1.0    0.08    0.99    1.43    -2.63368    -2.35176     8.31448

  Z AO/shell   Hii/eV     exponent
  1     Wed Apr 25 08:07:45 CEST 2018   EN: 2.200 GM2: 0.406  GM3: 0.0800  RAES: 1.40
     1s    -10.707211    1.230000
  7     Wed Apr 25 08:07:45 CEST 2018   EN: 3.040 GM2: 0.461  GM3:-0.0640  RAES: 1.90
     2s    -16.686243    2.339881
     2p    -12.523956    2.014332
  8     Wed Apr 25 08:07:45 CEST 2018   EN: 3.440 GM2: 0.452  GM3:-0.0517  RAES: 1.80
     2s    -20.229985    2.439742
     2p    -15.503117    2.137023
 16     Tue Apr 24 11:44:34 CEST 2018   EN: 2.580 GM2: 0.340  GM3:-0.0502  RAES: 3.10
     3s    -20.029654    1.981333
     3p    -11.377694    2.025643
     3d     -0.420282    1.702555
 no old-style atom pair restraining (fixing) potential

molecular fragmentation (1/2 indicates fragments):
11111222222222222222222222
# atoms in fragment 1/2:     5    21
 fragment masses (1/2) :       96.06      109.12
CMA distance (Bohr)    :   4.487
constraining FC (au)   :  0.0500
           ------------------------------------------------- 
          |        Self-Consistent Charge Iterations        |
           ------------------------------------------------- 

 Ncao       : 65
 Nao        : 64
 Nshell     : 38
 Nel        : 80
 T(el)      :   300.0
 intcut     :    25.0
 scfconv/Eh :  0.100E-05
   qconv/e  :  0.100E-03
 intneglect :  0.100E-07
 broydamp   :      0.250
 iter      E             dE          RMSdq      gap      omega  full diag
   1    -50.4646164 -0.504646E+02  0.708E+00   10.25       0.0  T
   2    -50.5091693 -0.445529E-01  0.510E+00    9.64       1.0  T
   3    -50.5494462 -0.402769E-01  0.112E+00    5.25       1.0  T
   4    -50.5534062 -0.395997E-02  0.618E-01    5.75       1.0  T
   5    -50.5544595 -0.105327E-02  0.229E-01    5.82       1.0  T
   6    -50.5547009 -0.241436E-03  0.113E-01    5.86       1.0  T
   7    -50.5547813 -0.803593E-04  0.432E-02    5.92       1.0  T
   8    -50.5547893 -0.800184E-05  0.261E-02    5.92       1.0  T
   9    -50.5547933 -0.398368E-05  0.878E-03    5.94       2.2  T
  10    -50.5547936 -0.319820E-06  0.190E-03    5.94      10.3  T
  11    -50.5547936 -0.195013E-07  0.921E-04    5.94      21.3  T
  12    -50.5547936 -0.301177E-08  0.413E-04    5.94      47.5  T
speedup  0.96
cpu  time for SCC    0.01 s
wall time for SCC    0.01 s

   *** convergence criteria satisfied after 12 iterations ***

          eigenvalues
 #    :          28         29         30         31         32         33         34         35
 occ. :        2.000      2.000      2.000      2.000      2.000      2.000      2.000      2.000
 eps  :       -11.180    -10.739    -10.576    -10.268     -9.978     -9.948     -9.873     -9.830
 #    :          36         37         38         39         40         41         42         43
 occ. :        2.000      2.000      2.000      2.000      2.000      0.000      0.000      0.000
 eps  :        -9.672     -9.527     -9.423     -8.684     -8.250     -2.310     -0.956      0.302
 #    :          44         45         46         47         48         49         50         51
 occ. :        0.000      0.000      0.000      0.000      0.000      0.000      0.000      0.000
 eps  :         1.260      2.194      2.214      2.444      2.791      3.150      3.947      4.754


   #   Z            q   n(s)   n(p)   n(d)      C6AA      α(0)
   1  16 S      1.493  1.604  1.900  1.003    93.623    16.285
   2   8 O     -0.787  1.783  5.005  0.000    31.207     7.490
   3   8 O     -0.794  1.773  5.021  0.000    31.391     7.512
   4   8 O     -0.807  1.773  5.035  0.000    31.812     7.562
   5   8 O     -0.788  1.775  5.014  0.000    31.228     7.492
   6   8 O     -0.895  1.814  5.080  0.000    34.537     7.882
   7   1 H      0.171  0.829  0.000  0.000     1.283     1.780
   8   8 O     -0.888  1.860  5.028  0.000    34.359     7.860
   9   1 H      0.254  0.746  0.000  0.000     0.878     1.472
  10   8 O     -0.463  1.661  4.802  0.000    22.046     6.341
  11   1 H      0.387  0.613  0.000  0.000     0.510     1.122
  12   1 H      0.402  0.598  0.000  0.000     0.475     1.079
  13   1 H      0.397  0.603  0.000  0.000     0.489     1.099
  14   8 O     -0.485  1.669  4.815  0.000    22.506     6.407
  15   1 H      0.387  0.613  0.000  0.000     0.506     1.115
  16   1 H      0.398  0.602  0.000  0.000     0.482     1.087
  17   1 H      0.374  0.626  0.000  0.000     0.536     1.150
  18   8 O     -0.422  1.656  4.766  0.000    21.219     6.221
  19   1 H      0.411  0.589  0.000  0.000     0.465     1.072
  20   1 H      0.355  0.645  0.000  0.000     0.578     1.194
  21   1 H      0.406  0.594  0.000  0.000     0.468     1.072
  22   7 N     -0.252  1.236  4.015  0.000    26.526     7.649
  23   1 H      0.325  0.675  0.000  0.000     0.643     1.256
  24   1 H      0.305  0.695  0.000  0.000     0.698     1.309
  25   1 H      0.259  0.741  0.000  0.000     0.849     1.443
  26   1 H      0.256  0.744  0.000  0.000     0.860     1.453

 Mol. C6AA /au·bohr⁶  :       5565.861066
 Mol. C8AA /au·bohr⁸  :     121181.681810
 Mol. α(0) /au        :        107.405647

 
 Wiberg/Mayer (AO) data. WBOs > 0.1 written file <wbo>
 largest (>0.05) Wiberg bond orders for each atom
           total WBO             WBO to atom ...
     1  S   5.011    O    3 1.259    O    2 1.256    O    5 1.243    O    4 1.216
     2  O   1.679    S    1 1.256    H   23 0.096    O    4 0.092    O    3 0.091    O    5 0.084
     3  O   1.651    S    1 1.259    O    5 0.099    O    4 0.097    O    2 0.091    H   11 0.053
     4  O   1.658    S    1 1.216    O    3 0.097    O    2 0.092    O    5 0.092    H   17 0.082
     5  O   1.678    S    1 1.243    H   19 0.112    O    3 0.099    O    4 0.092    O    2 0.084
     6  O   1.449    H    7 0.946    H   12 0.191    H   16 0.184    O   10 0.058    O   14 0.056
     7  H   0.971    O    6 0.946
     8  O   1.612    H    9 0.900    H   21 0.208    H   15 0.172    H   13 0.121    O   18 0.067    O   14 0.060
     9  H   0.935    O    8 0.900
    10  O   2.279    H   11 0.785    H   13 0.705    H   12 0.640    O    6 0.058
    11  H   0.850    O   10 0.785    O    3 0.053
    12  H   0.838    O   10 0.640    O    6 0.191
    13  H   0.842    O   10 0.705    O    8 0.121
    14  O   2.258    H   17 0.768    H   15 0.674    H   16 0.650    O    8 0.060    O    6 0.056
    15  H   0.850    O   14 0.674    O    8 0.172
    16  H   0.841    O   14 0.650    O    6 0.184
    17  H   0.860    O   14 0.768    O    4 0.082
    18  O   2.303    H   20 0.864    H   19 0.705    H   21 0.615    O    8 0.067
    19  H   0.831    O   18 0.705    O    5 0.112
    20  H   0.874    O   18 0.864
    21  H   0.835    O   18 0.615    O    8 0.208
    22  N   3.586    H   26 0.930    H   25 0.928    H   24 0.872    H   23 0.789
    23  H   0.894    N   22 0.789    O    2 0.096
    24  H   0.907    N   22 0.872
    25  H   0.933    N   22 0.928
    26  H   0.934    N   22 0.930
 MOs/occ written to file <molden.input>
 
molecular dipole:
                 x           y           z       tot (Debye)
 q only:        0.128      -0.805       2.317
   full:       -0.356      -0.865       2.588       6.993
molecular quadrupole (traceless):
                xx          xy          yy          xz          yz          zz
 q only:      -15.376     -14.948     -32.518     -21.904       8.548      47.894
  q+dip:      -19.197     -13.698     -28.717     -21.212      11.044      47.914
   full:      -19.431     -13.627     -28.285     -21.285      11.239      47.715

SCC energy    :     -50.5547936
rep           :       0.2693965
ES            :       0.4328141
AES           :      -0.0803129
AXC           :      -0.0097759
disp          :      -0.0187802
XB            :       0.0000000
fix           :       0.0000000
total E       :     -50.2851883
atomizationE  :       4.8154924     3021.77
(atE without considering molecular charge,
 total energy contains solvation terms)
H-L gap (eV)  :          5.9405
           ------------------------------------------------- 
          |                 ===============                 |
          |                   A N C O P T                   |
          |                 ===============                 |
          |          Approximate Normal Coordinate          |
          |           Rational Function Optimizer           |
           ------------------------------------------------- 
dumping coords to <xtbopt.coord> and <xtbopt.log>
 optlevel               2
 Maxcycle             520
 Maxmicro              25
 Econv         1.000000000000000E-007
 Gconv         2.000000000000000E-004
 Maxdispl       1.00000000000000     
 Hlow          5.000000000000000E-003
 S6             20.0000000000000     
 Nvar               72

generating ANC from model Hessian ...
 Shifting diagonal of input Hessian by   4.889199681223133E-003
 Lowest  eigenvalues of input Hessian
   -0.000000   -0.000000   -0.000000    0.000000    0.000000    0.000000
    0.005000    0.005318    0.006025    0.006331    0.007164    0.007244
    0.007878    0.008303    0.008646    0.009244    0.009408    0.010766
 Highest eigenvalues
    1.581718    1.588496    1.595294    3.080486    3.084729    3.088679
 
cpu  time for ANC gen    0.01 s
wall time for ANC gen    0.01 s
................................................................................
.............................. CYCLE    1 ......................................
................................................................................
   1    -50.5547936 -0.505548E+02  0.109E-04    5.94       0.0  T
   2    -50.5547936 -0.262048E-10  0.868E-05    5.94     226.0  T
   3    -50.5547936 -0.274980E-10  0.396E-05    5.94     495.5  T
speedup  1.07
cpu  time for SCC    0.00 s
wall time for SCC    0.00 s
speedup  0.98
cpu  time for grad    0.01 s
wall time for grad    0.01 s
 E :    -50.28518824  G :  0.220006    pred/act E change:  0.000D+00  0.140D-07
Maxdispl :   0.1861   ||displ|| :   0.4198   Lambda : -0.572D-01
Largest |displ|/coords:  0.1861 (  19)  0.1306 (  27)  0.1221 (  55)
................................................................................
.............................. CYCLE    2 ......................................
................................................................................
   1    -50.5715928 -0.505716E+02  0.449E-01    6.19       0.0  T
   2    -50.5721769 -0.584078E-03  0.323E-01    6.34       1.0  T
   3    -50.5724210 -0.244082E-03  0.111E-01    6.59       1.0  T
   4    -50.5724510 -0.300764E-04  0.277E-02    6.59       1.0  T
   5    -50.5724528 -0.172529E-05  0.832E-03    6.58       2.4  T
   6    -50.5724529 -0.135861E-06  0.451E-03    6.58       4.3  T
   7    -50.5724530 -0.653051E-07  0.173E-03    6.58      11.3  T
speedup  0.95
cpu  time for SCC    0.01 s
wall time for SCC    0.01 s
speedup  0.99
cpu  time for grad    0.01 s
wall time for grad    0.01 s
 E :    -50.33229187  G :  0.137737    pred/act E change:  0.000D+00 -0.471D-01
Maxdispl :   0.2355   ||displ|| :   0.5004   Lambda : -0.353D-01
Largest |displ|/coords:  0.2355 (  19)  0.1527 (  13)  0.1371 (  26)
................................................................................
.............................. CYCLE    3 ......................................
................................................................................
   1    -50.5847194 -0.505847E+02  0.410E-01    6.89       0.0  T
   2    -50.5855496 -0.830170E-03  0.287E-01    7.07       1.0  T
   3    -50.5858862 -0.336607E-03  0.120E-01    7.33       1.0  T
   4    -50.5859088 -0.226352E-04  0.298E-02    7.35       1.0  T
   5    -50.5859106 -0.183225E-05  0.955E-03    7.34       2.1  T
   6    -50.5859108 -0.191511E-06  0.526E-03    7.34       3.7  T
   7    -50.5859109 -0.998457E-07  0.219E-03    7.34       8.9  T
speedup  1.11
cpu  time for SCC    0.01 s
wall time for SCC    0.01 s
speedup  1.06
cpu  time for grad    0.01 s
wall time for grad    0.01 s
 E :    -50.36225314  G :  0.097136    pred/act E change: -0.336D-01 -0.300D-01
Maxdispl :   0.2517   ||displ|| :   0.5521   Lambda : -0.236D-01
Largest |displ|/coords:  0.2517 (  13)  0.1987 (  19)  0.1708 (  15)
................................................................................
.............................. CYCLE    4 ......................................
................................................................................
   1    -50.5939549 -0.505940E+02  0.462E-01    7.54       0.0  T
   2    -50.5950875 -0.113260E-02  0.318E-01    7.73       1.0  T
   3    -50.5955415 -0.453959E-03  0.138E-01    8.00       1.0  T
   4    -50.5955709 -0.294644E-04  0.351E-02    8.02       1.0  T
   5    -50.5955740 -0.302195E-05  0.113E-02    8.01       1.7  T
   6    -50.5955742 -0.258582E-06  0.629E-03    8.01       3.1  T
   7    -50.5955743 -0.116906E-06  0.236E-03    8.01       8.3  T
   8    -50.5955744 -0.254425E-07  0.955E-04    8.01      20.5  T
speedup  0.99
cpu  time for SCC    0.01 s
wall time for SCC    0.01 s
speedup  1.01
cpu  time for grad    0.01 s
wall time for grad    0.01 s
 E :    -50.38205057  G :  0.081312    pred/act E change: -0.221D-01 -0.198D-01
Maxdispl :   0.2009   ||displ|| :   0.4874   Lambda : -0.153D-01
Largest |displ|/coords:  0.2009 (  15)  0.1722 (   8)  0.1667 (  13)
................................................................................
.............................. CYCLE    5 ......................................
................................................................................
   1    -50.6069421 -0.506069E+02  0.326E-01    8.24       0.0  T
   2    -50.6077357 -0.793601E-03  0.217E-01    8.40       1.0  T
   3    -50.6080531 -0.317412E-03  0.104E-01    8.59       1.0  T
   4    -50.6080692 -0.160551E-04  0.275E-02    8.63       1.0  T
   5    -50.6080712 -0.198382E-05  0.905E-03    8.63       2.2  T
   6    -50.6080713 -0.162633E-06  0.501E-03    8.63       3.9  T
   7    -50.6080714 -0.643788E-07  0.175E-03    8.63      11.2  T
speedup  1.11
cpu  time for SCC    0.01 s
wall time for SCC    0.01 s
speedup  1.06
cpu  time for grad    0.01 s
wall time for grad    0.01 s
 E :    -50.39498746  G :  0.071360    pred/act E change: -0.154D-01 -0.129D-01
Maxdispl :   0.1945   ||displ|| :   0.4204   Lambda : -0.108D-01
Largest |displ|/coords:  0.1945 (  13)  0.1447 (   4)  0.1417 (  15)
................................................................................
.............................. CYCLE    6 ......................................
................................................................................
   1    -50.6165893 -0.506166E+02  0.371E-01    8.85       0.0  T
   2    -50.6173451 -0.755752E-03  0.250E-01    9.01       1.0  T
   3    -50.6176583 -0.313218E-03  0.108E-01    9.05       1.0  T
   4    -50.6176780 -0.197328E-04  0.233E-02    9.06       1.0  T
   5    -50.6176799 -0.187525E-05  0.871E-03    9.06       2.3  T
   6    -50.6176800 -0.125603E-06  0.521E-03    9.06       3.8  T
   7    -50.6176801 -0.460955E-07  0.130E-03    9.06      15.0  T
speedup  0.98
cpu  time for SCC    0.01 s
wall time for SCC    0.01 s
speedup  1.00
cpu  time for grad    0.01 s
wall time for grad    0.01 s
 E :    -50.40408912  G :  0.076667    pred/act E change: -0.945D-02 -0.910D-02
Maxdispl :   0.1540   ||displ|| :   0.4087   Lambda : -0.134D-01
Largest |displ|/coords:  0.1540 (  12)  0.1463 (  10)  0.1316 (  15)
................................................................................
.............................. CYCLE    7 ......................................
................................................................................
   1    -50.6440689 -0.506441E+02  0.413E-01    9.20       0.0  T
   2    -50.6444231 -0.354225E-03  0.304E-01    9.21       1.0  T
   3    -50.6445842 -0.161050E-03  0.957E-02    9.20       1.0  T
   4    -50.6446176 -0.334093E-04  0.239E-02    9.20       1.0  T
   5    -50.6446189 -0.127259E-05  0.907E-03    9.20       2.2  T
   6    -50.6446189 -0.796172E-07  0.411E-03    9.20       4.8  T
   7    -50.6446190 -0.356582E-07  0.111E-03    9.20      17.6  T
speedup  0.97
cpu  time for SCC    0.01 s
wall time for SCC    0.01 s
speedup  0.98
cpu  time for grad    0.01 s
wall time for grad    0.01 s
 E :    -50.40843435  G :  0.100354    pred/act E change: -0.634D-02 -0.435D-02
Maxdispl :   0.1676   ||displ|| :   0.4061   Lambda : -0.187D-01
Largest |displ|/coords:  0.1676 (  10)  0.1389 (  13)  0.1351 (  16)
................................................................................
.............................. CYCLE    8 ......................................
................................................................................
   1    -50.6402501 -0.506403E+02  0.539E-01    9.25       0.0  T
   2    -50.6408608 -0.610678E-03  0.381E-01    9.23       1.0  T
   3    -50.6411555 -0.294710E-03  0.122E-01    9.20       1.0  T
   4    -50.6411945 -0.390320E-04  0.243E-02    9.21       1.0  T
   5    -50.6411957 -0.114745E-05  0.110E-02    9.21       1.8  T
   6    -50.6411962 -0.514143E-06  0.606E-03    9.21       3.2  T
   7    -50.6411962 -0.491542E-07  0.117E-03    9.21      16.7  T
   8    -50.6411962 -0.650196E-08  0.400E-04    9.21      49.0  T
speedup  1.00
cpu  time for SCC    0.01 s
wall time for SCC    0.01 s
speedup  1.01
cpu  time for grad    0.01 s
wall time for grad    0.01 s
 E :    -50.41726245  G :  0.081534    pred/act E change: -0.782D-02 -0.883D-02
Maxdispl :   0.1347   ||displ|| :   0.3577   Lambda : -0.120D-01
Largest |displ|/coords:  0.1347 (   3)  0.1331 (   1)  0.1322 (  15)
................................................................................
.............................. CYCLE    9 ......................................
................................................................................
   1    -50.6661948 -0.506662E+02  0.306E-01    9.33       0.0  T
   2    -50.6663759 -0.181078E-03  0.227E-01    9.33       1.0  T
   3    -50.6664670 -0.911558E-04  0.737E-02    9.33       1.0  T
   4    -50.6664853 -0.182481E-04  0.213E-02    9.33       1.0  T
   5    -50.6664861 -0.840690E-06  0.719E-03    9.33       2.7  T
   6    -50.6664862 -0.488858E-07  0.344E-03    9.33       5.7  T
   7    -50.6664862 -0.203650E-07  0.956E-04    9.33      20.5  T
speedup  0.98
cpu  time for SCC    0.01 s
wall time for SCC    0.01 s
speedup  1.00
cpu  time for grad    0.01 s
wall time for grad    0.01 s
 E :    -50.42434575  G :  0.058603    pred/act E change: -0.109D-01 -0.708D-02
Maxdispl :   0.1660   ||displ|| :   0.3220   Lambda : -0.762D-02
Largest |displ|/coords:  0.1660 (   4)  0.0908 (   8)  0.0809 (   2)
................................................................................
.............................. CYCLE   10 ......................................
................................................................................
   1    -50.6726823 -0.506727E+02  0.207E-01    9.36       0.0  T
   2    -50.6727729 -0.905395E-04  0.149E-01    9.36       1.0  T
   3    -50.6728214 -0.485413E-04  0.496E-02    9.34       1.0  T
   4    -50.6728276 -0.618090E-05  0.128E-02    9.35       1.5  T
   5    -50.6728280 -0.370882E-06  0.458E-03    9.35       4.3  T
   6    -50.6728280 -0.281337E-07  0.273E-03    9.35       7.2  T
speedup  0.94
cpu  time for SCC    0.00 s
wall time for SCC    0.01 s
speedup  0.98
cpu  time for grad    0.01 s
wall time for grad    0.01 s
 E :    -50.43039498  G :  0.051820    pred/act E change: -0.677D-02 -0.605D-02
Maxdispl :   0.1304   ||displ|| :   0.2827   Lambda : -0.565D-02
Largest |displ|/coords:  0.1304 (   4)  0.1173 (   3)  0.0830 (  29)
................................................................................
.............................. CYCLE   11 ......................................
................................................................................
   1    -50.6877523 -0.506878E+02  0.180E-01    9.42       0.0  T
   2    -50.6878553 -0.102979E-03  0.134E-01    9.42       1.0  T
   3    -50.6879033 -0.479438E-04  0.577E-02    9.42       1.0  T
   4    -50.6879111 -0.783771E-05  0.161E-02    9.42       1.2  T
   5    -50.6879115 -0.442984E-06  0.538E-03    9.42       3.6  T
   6    -50.6879116 -0.279193E-07  0.261E-03    9.43       7.5  T
speedup  0.94
cpu  time for SCC    0.00 s
wall time for SCC    0.01 s
speedup  0.98
cpu  time for grad    0.01 s
wall time for grad    0.01 s
 E :    -50.43513011  G :  0.044248    pred/act E change: -0.420D-02 -0.474D-02
Maxdispl :   0.2220   ||displ|| :   0.6101   Lambda : -0.125D-01
Largest |displ|/coords:  0.2220 (   4)  0.2012 (  26)  0.1753 (  14)
................................................................................
.............................. CYCLE   12 ......................................
................................................................................
   1    -50.7154571 -0.507155E+02  0.325E-01    9.51       0.0  T
   2    -50.7156659 -0.208825E-03  0.241E-01    9.51       1.0  T
   3    -50.7157844 -0.118509E-03  0.827E-02    9.52       1.0  T
   4    -50.7158039 -0.194799E-04  0.296E-02    9.53       1.0  T
   5    -50.7158053 -0.136520E-05  0.879E-03    9.53       2.2  T
   6    -50.7158054 -0.111558E-06  0.465E-03    9.53       4.2  T
   7    -50.7158054 -0.211259E-07  0.145E-03    9.53      13.6  T
speedup  0.94
cpu  time for SCC    0.01 s
wall time for SCC    0.01 s
speedup  0.99
cpu  time for grad    0.01 s
wall time for grad    0.01 s
 E :    -50.44271970  G :  0.042573    pred/act E change: -0.305D-02 -0.759D-02
Maxdispl :   0.1669   ||displ|| :   0.3761   Lambda : -0.492D-02
Largest |displ|/coords:  0.1669 (   4)  0.1093 (  26)  0.1062 (  30)
................................................................................
.............................. CYCLE   13 ......................................
................................................................................
   1    -50.7163701 -0.507164E+02  0.238E-01    9.47       0.0  T
   2    -50.7164535 -0.833812E-04  0.178E-01    9.47       1.0  T
   3    -50.7164963 -0.428119E-04  0.535E-02    9.43       1.0  T
   4    -50.7165060 -0.968186E-05  0.161E-02    9.44       1.2  T
   5    -50.7165064 -0.361228E-06  0.577E-03    9.44       3.4  T
   6    -50.7165064 -0.435843E-07  0.291E-03    9.44       6.7  T
speedup  1.11
cpu  time for SCC    0.01 s
wall time for SCC    0.01 s
speedup  1.06
cpu  time for grad    0.01 s
wall time for grad    0.01 s
 E :    -50.44500449  G :  0.034557    pred/act E change: -0.861D-02 -0.228D-02
Maxdispl :   0.1379   ||displ|| :   0.3430   Lambda : -0.458D-02
Largest |displ|/coords:  0.1379 (  18)  0.1220 (   4)  0.0947 (  19)
................................................................................
.............................. CYCLE   14 ......................................
................................................................................
   1    -50.7169378 -0.507169E+02  0.189E-01    9.40       0.0  T
   2    -50.7169749 -0.370259E-04  0.140E-01    9.41       1.0  T
   3    -50.7170047 -0.298811E-04  0.363E-02    9.42       1.0  T
   4    -50.7170084 -0.369276E-05  0.133E-02    9.42       1.5  T
   5    -50.7170087 -0.228202E-06  0.379E-03    9.42       5.2  T
   6    -50.7170087 -0.226910E-07  0.196E-03    9.41      10.0  T
speedup  1.09
cpu  time for SCC    0.01 s
wall time for SCC    0.01 s
speedup  1.04
cpu  time for grad    0.01 s
wall time for grad    0.01 s
 E :    -50.44643899  G :  0.036070    pred/act E change: -0.281D-02 -0.143D-02
Maxdispl :   0.0706   ||displ|| :   0.1642   Lambda : -0.221D-02
Largest |displ|/coords:  0.0706 (   7)  0.0633 (  15)  0.0590 (  23)
................................................................................
.............................. CYCLE   15 ......................................
................................................................................
   1    -50.7178142 -0.507178E+02  0.121E-01    9.38       0.0  T
   2    -50.7178296 -0.153957E-04  0.901E-02    9.38       1.0  T
   3    -50.7178402 -0.106642E-04  0.234E-02    9.36       1.0  T
   4    -50.7178417 -0.146788E-05  0.926E-03    9.36       2.1  T
   5    -50.7178418 -0.129387E-06  0.239E-03    9.36       8.2  T
   6    -50.7178418 -0.756087E-08  0.135E-03    9.36      14.6  T
speedup  0.93
cpu  time for SCC    0.01 s
wall time for SCC    0.01 s
speedup  0.98
cpu  time for grad    0.01 s
wall time for grad    0.01 s
 E :    -50.44751395  G :  0.022631    pred/act E change: -0.256D-02 -0.107D-02
Maxdispl :   0.0730   ||displ|| :   0.2001   Lambda : -0.177D-02
Largest |displ|/coords:  0.0730 (   4)  0.0687 (  22)  0.0606 (  23)
................................................................................
.............................. CYCLE   16 ......................................
................................................................................
   1    -50.7245279 -0.507245E+02  0.159E-01    9.33       0.0  T
   2    -50.7245532 -0.253117E-04  0.117E-01    9.31       1.0  T
   3    -50.7245695 -0.163037E-04  0.354E-02    9.26       1.0  T
   4    -50.7245721 -0.264515E-05  0.118E-02    9.26       1.7  T
   5    -50.7245723 -0.199540E-06  0.340E-03    9.26       5.8  T
   6    -50.7245724 -0.195515E-07  0.195E-03    9.26      10.1  T
speedup  0.94
cpu  time for SCC    0.00 s
wall time for SCC    0.01 s
speedup  0.98
cpu  time for grad    0.01 s
wall time for grad    0.01 s
 E :    -50.44806334  G :  0.020904    pred/act E change: -0.113D-02 -0.549D-03
Maxdispl :   0.0769   ||displ|| :   0.1420   Lambda : -0.978D-03
Largest |displ|/coords:  0.0769 (  18)  0.0445 (   8)  0.0436 (   1)
................................................................................
.............................. CYCLE   17 ......................................
................................................................................
   1    -50.7195444 -0.507195E+02  0.887E-02    9.27       0.0  T
   2    -50.7195490 -0.459541E-05  0.667E-02    9.27       1.0  T
   3    -50.7195525 -0.352662E-05  0.124E-02    9.27       1.6  T
   4    -50.7195531 -0.579083E-06  0.385E-03    9.27       5.1  T
   5    -50.7195531 -0.212570E-07  0.139E-03    9.27      14.1  T
speedup  1.11
cpu  time for SCC    0.01 s
wall time for SCC    0.00 s
speedup  1.06
cpu  time for grad    0.01 s
wall time for grad    0.01 s
 E :    -50.44862991  G :  0.011918    pred/act E change: -0.923D-03 -0.567D-03
Maxdispl :   0.0858   ||displ|| :   0.2033   Lambda : -0.750D-03
Largest |displ|/coords:  0.0858 (  18)  0.0592 (   3)  0.0583 (   1)
................................................................................
.............................. CYCLE   18 ......................................
................................................................................
   1    -50.7205359 -0.507205E+02  0.113E-01    9.25       0.0  T
   2    -50.7205441 -0.816747E-05  0.856E-02    9.24       1.0  T
   3    -50.7205531 -0.901662E-05  0.149E-02    9.21       1.3  T
   4    -50.7205538 -0.697089E-06  0.699E-03    9.22       2.8  T
   5    -50.7205539 -0.678393E-07  0.189E-03    9.22      10.4  T
   6    -50.7205539 -0.487249E-08  0.105E-03    9.22      18.8  T
speedup  1.09
cpu  time for SCC    0.01 s
wall time for SCC    0.01 s
speedup  1.05
cpu  time for grad    0.01 s
wall time for grad    0.01 s
 E :    -50.44890584  G :  0.018663    pred/act E change: -0.499D-03 -0.276D-03
Maxdispl :   0.0436   ||displ|| :   0.1287   Lambda : -0.534D-03
Largest |displ|/coords:  0.0436 (  18)  0.0429 (   8)  0.0403 (  20)
................................................................................
.............................. CYCLE   19 ......................................
................................................................................
   1    -50.7206772 -0.507207E+02  0.691E-02    9.21       0.0  T
   2    -50.7206807 -0.342551E-05  0.518E-02    9.21       1.0  T
   3    -50.7206838 -0.314666E-05  0.105E-02    9.20       1.9  T
   4    -50.7206841 -0.347466E-06  0.396E-03    9.20       5.0  T
   5    -50.7206842 -0.238432E-07  0.128E-03    9.20      15.3  T
   6    -50.7206842 -0.188653E-08  0.691E-04    9.20      28.4  T
speedup  0.93
cpu  time for SCC    0.00 s
wall time for SCC    0.01 s
speedup  0.98
cpu  time for grad    0.01 s
wall time for grad    0.01 s
 E :    -50.44921364  G :  0.010174    pred/act E change: -0.390D-03 -0.308D-03
Maxdispl :   0.0464   ||displ|| :   0.1396   Lambda : -0.373D-03
Largest |displ|/coords:  0.0464 (   6)  0.0401 (   4)  0.0363 (  26)
................................................................................
.............................. CYCLE   20 ......................................
................................................................................
   1    -50.7221948 -0.507222E+02  0.886E-02    9.21       0.0  T
   2    -50.7221982 -0.341699E-05  0.662E-02    9.20       1.0  T
   3    -50.7222011 -0.290211E-05  0.129E-02    9.18       1.5  T
   4    -50.7222015 -0.436764E-06  0.447E-03    9.18       4.4  T
   5    -50.7222016 -0.269379E-07  0.137E-03    9.18      14.3  T
   6    -50.7222016 -0.284910E-08  0.783E-04    9.18      25.0  T
speedup  0.93
cpu  time for SCC    0.00 s
wall time for SCC    0.01 s
speedup  0.98
cpu  time for grad    0.01 s
wall time for grad    0.01 s
 E :    -50.44944714  G :  0.008592    pred/act E change: -0.272D-03 -0.234D-03
Maxdispl :   0.0573   ||displ|| :   0.1467   Lambda : -0.323D-03
Largest |displ|/coords:  0.0573 (   3)  0.0446 (  15)  0.0417 (  13)
................................................................................
.............................. CYCLE   21 ......................................
................................................................................
   1    -50.7238735 -0.507239E+02  0.821E-02    9.19       0.0  T
   2    -50.7238757 -0.221666E-05  0.613E-02    9.19       1.0  T
   3    -50.7238771 -0.136982E-05  0.957E-03    9.17       2.0  T
   4    -50.7238774 -0.370255E-06  0.314E-03    9.17       6.2  T
   5    -50.7238775 -0.114721E-07  0.102E-03    9.17      19.1  T
   6    -50.7238775 -0.168945E-08  0.529E-04    9.17      37.1  T
speedup  0.94
cpu  time for SCC    0.00 s
wall time for SCC    0.01 s
speedup  0.98
cpu  time for grad    0.01 s
wall time for grad    0.01 s
 E :    -50.44967458  G :  0.008113    pred/act E change: -0.190D-03 -0.227D-03
Maxdispl :   0.0798   ||displ|| :   0.2174   Lambda : -0.399D-03
Largest |displ|/coords:  0.0798 (   3)  0.0684 (  20)  0.0653 (  13)
................................................................................
.............................. CYCLE   22 ......................................
................................................................................
   1    -50.7250834 -0.507251E+02  0.143E-01    9.16       0.0  T
   2    -50.7250892 -0.583310E-05  0.106E-01    9.15       1.0  T
   3    -50.7250929 -0.368116E-05  0.155E-02    9.12       1.3  T
   4    -50.7250939 -0.926073E-06  0.555E-03    9.13       3.5  T
   5    -50.7250939 -0.363223E-07  0.173E-03    9.13      11.3  T
   6    -50.7250939 -0.441414E-08  0.949E-04    9.13      20.7  T
speedup  0.94
cpu  time for SCC    0.01 s
wall time for SCC    0.01 s
speedup  0.99
cpu  time for grad    0.01 s
wall time for grad    0.01 s
 E :    -50.44991856  G :  0.008654    pred/act E change: -0.165D-03 -0.244D-03
Maxdispl :   0.0538   ||displ|| :   0.1839   Lambda : -0.314D-03
Largest |displ|/coords:  0.0538 (  13)  0.0536 (  20)  0.0520 (   9)
................................................................................
.............................. CYCLE   23 ......................................
................................................................................
   1    -50.7248092 -0.507248E+02  0.142E-01    9.09       0.0  T
   2    -50.7248138 -0.461280E-05  0.106E-01    9.08       1.0  T
   3    -50.7248172 -0.334000E-05  0.141E-02    9.06       1.4  T
   4    -50.7248178 -0.622408E-06  0.605E-03    9.07       3.2  T
   5    -50.7248178 -0.326162E-07  0.150E-03    9.07      13.1  T
   6    -50.7248178 -0.284579E-08  0.912E-04    9.07      21.5  T
speedup  0.94
cpu  time for SCC    0.00 s
wall time for SCC    0.01 s
speedup  0.99
cpu  time for grad    0.01 s
wall time for grad    0.01 s
 E :    -50.45008114  G :  0.009368    pred/act E change: -0.209D-03 -0.163D-03
Maxdispl :   0.0416   ||displ|| :   0.1273   Lambda : -0.239D-03
Largest |displ|/coords:  0.0416 (   5)  0.0406 (   2)  0.0357 (  14)
................................................................................
.............................. CYCLE   24 ......................................
................................................................................
   1    -50.7244530 -0.507245E+02  0.871E-02    9.05       0.0  T
   2    -50.7244561 -0.318906E-05  0.644E-02    9.05       1.0  T
   3    -50.7244583 -0.216182E-05  0.110E-02    9.05       1.8  T
   4    -50.7244587 -0.393737E-06  0.387E-03    9.05       5.1  T
   5    -50.7244587 -0.224097E-07  0.126E-03    9.05      15.5  T
   6    -50.7244587 -0.252994E-08  0.735E-04    9.05      26.7  T
speedup  1.11
cpu  time for SCC    0.01 s
wall time for SCC    0.01 s
speedup  0.98
cpu  time for grad    0.01 s
wall time for grad    0.01 s
 E :    -50.45021632  G :  0.008265    pred/act E change: -0.162D-03 -0.135D-03
Maxdispl :   0.0760   ||displ|| :   0.1624   Lambda : -0.193D-03
Largest |displ|/coords:  0.0760 (   2)  0.0739 (   4)  0.0393 (   6)
................................................................................
.............................. CYCLE   25 ......................................
................................................................................
   1    -50.7227956 -0.507228E+02  0.994E-02    9.04       0.0  T
   2    -50.7227982 -0.259013E-05  0.745E-02    9.03       1.0  T
   3    -50.7227998 -0.168083E-05  0.900E-03    9.02       2.2  T
   4    -50.7228002 -0.389789E-06  0.308E-03    9.03       6.4  T
   5    -50.7228002 -0.150242E-07  0.105E-03    9.03      18.6  T
   6    -50.7228002 -0.118101E-08  0.594E-04    9.03      33.0  T
speedup  0.94
cpu  time for SCC    0.01 s
wall time for SCC    0.01 s
speedup  0.99
cpu  time for grad    0.01 s
wall time for grad    0.01 s
 E :    -50.45032130  G :  0.008263    pred/act E change: -0.122D-03 -0.105D-03
Maxdispl :   0.0509   ||displ|| :   0.1124   Lambda : -0.159D-03
Largest |displ|/coords:  0.0509 (   4)  0.0414 (   2)  0.0359 (  11)

generating ANC from model Hessian ...
 Shifting diagonal of input Hessian by   5.141804904637642E-003
 Lowest  eigenvalues of input Hessian
    0.005000   -0.000000   -0.000000    0.000000    0.000000    0.000000
    0.000000    0.005232    0.005404    0.005866    0.006253    0.006417
    0.006792    0.007132    0.008504    0.008953    0.009950    0.012039
 Highest eigenvalues
    1.386882    1.394755    1.420536    2.829111    3.323879    3.525552
 
cpu  time for ANC gen    0.01 s
wall time for ANC gen    0.01 s
................................................................................
.............................. CYCLE   26 ......................................
................................................................................
   1    -50.7241885 -0.507242E+02  0.466E-02    9.04       0.0  T
   2    -50.7241901 -0.160416E-05  0.345E-02    9.04       1.0  T
   3    -50.7241910 -0.907326E-06  0.766E-03    9.04       2.6  T
   4    -50.7241912 -0.200655E-06  0.238E-03    9.04       8.2  T
   5    -50.7241912 -0.781329E-08  0.692E-04    9.04      28.3  T
   6    -50.7241912 -0.679513E-09  0.365E-04    9.04      53.8  T
speedup  0.93
cpu  time for SCC    0.00 s
wall time for SCC    0.01 s
speedup  0.95
cpu  time for grad    0.01 s
wall time for grad    0.01 s
 E :    -50.45040922  G :  0.004980    pred/act E change:  0.000D+00 -0.879D-04
Maxdispl :   0.0813   ||displ|| :   0.1590   Lambda : -0.296D-03
Largest |displ|/coords:  0.0813 (   4)  0.0745 (   3)  0.0482 (   6)
................................................................................
.............................. CYCLE   27 ......................................
................................................................................
   1    -50.7242647 -0.507243E+02  0.114E-01    9.06       0.0  T
   2    -50.7242670 -0.225879E-05  0.866E-02    9.06       1.0  T
   3    -50.7242698 -0.285436E-05  0.746E-03    9.07       2.6  T
   4    -50.7242700 -0.168657E-06  0.339E-03    9.07       5.8  T
   5    -50.7242700 -0.148183E-07  0.104E-03    9.07      18.9  T
   6    -50.7242700 -0.193867E-08  0.479E-04    9.07      40.9  T
speedup  1.11
cpu  time for SCC    0.01 s
wall time for SCC    0.01 s
speedup  0.98
cpu  time for grad    0.01 s
wall time for grad    0.01 s
 E :    -50.45061061  G :  0.004038    pred/act E change:  0.000D+00 -0.201D-03
Maxdispl :   0.1149   ||displ|| :   0.2403   Lambda : -0.266D-03
Largest |displ|/coords:  0.1149 (   3)  0.1130 (   4)  0.1000 (   2)
................................................................................
.............................. CYCLE   28 ......................................
................................................................................
   1    -50.7234963 -0.507235E+02  0.166E-01    9.08       0.0  T
   2    -50.7235001 -0.387626E-05  0.126E-01    9.09       1.0  T
   3    -50.7235045 -0.433702E-05  0.103E-02    9.11       1.9  T
   4    -50.7235048 -0.345515E-06  0.417E-03    9.10       4.7  T
   5    -50.7235048 -0.194202E-07  0.158E-03    9.10      12.4  T
   6    -50.7235048 -0.422253E-08  0.694E-04    9.10      28.3  T
speedup  0.94
cpu  time for SCC    0.00 s
wall time for SCC    0.01 s
speedup  0.98
cpu  time for grad    0.01 s
wall time for grad    0.01 s
 E :    -50.45077893  G :  0.008183    pred/act E change: -0.152D-03 -0.168D-03
Maxdispl :   0.1077   ||displ|| :   0.2091   Lambda : -0.172D-03
Largest |displ|/coords:  0.1077 (   3)  0.0951 (   6)  0.0875 (   2)
................................................................................
.............................. CYCLE   29 ......................................
................................................................................
   1    -50.7234049 -0.507234E+02  0.117E-01    9.12       0.0  T
   2    -50.7234062 -0.126325E-05  0.879E-02    9.13       1.0  T
   3    -50.7234074 -0.121237E-05  0.653E-03    9.14       3.0  T
   4    -50.7234075 -0.148398E-06  0.263E-03    9.14       7.4  T
   5    -50.7234075 -0.801308E-08  0.951E-04    9.14      20.6  T
speedup  0.87
cpu  time for SCC    0.00 s
wall time for SCC    0.00 s
speedup  0.97
cpu  time for grad    0.01 s
wall time for grad    0.01 s
 E :    -50.45091741  G :  0.008009    pred/act E change: -0.141D-03 -0.138D-03
Maxdispl :   0.2301   ||displ|| :   0.3901   Lambda : -0.323D-03
Largest |displ|/coords:  0.2301 (   3)  0.1621 (   2)  0.1531 (   6)
................................................................................
.............................. CYCLE   30 ......................................
................................................................................
   1    -50.7233242 -0.507233E+02  0.197E-01    9.17       0.0  T
   2    -50.7233282 -0.407165E-05  0.147E-01    9.18       1.0  T
   3    -50.7233319 -0.365485E-05  0.112E-02    9.20       1.7  T
   4    -50.7233324 -0.504086E-06  0.462E-03    9.19       4.2  T
   5    -50.7233324 -0.261954E-07  0.175E-03    9.19      11.2  T
   6    -50.7233324 -0.492734E-08  0.778E-04    9.19      25.2  T
speedup  1.11
cpu  time for SCC    0.01 s
wall time for SCC    0.01 s
speedup  1.06
cpu  time for grad    0.01 s
wall time for grad    0.01 s
 E :    -50.45111458  G :  0.005850    pred/act E change: -0.895D-04 -0.197D-03
Maxdispl :   0.1601   ||displ|| :   0.3102   Lambda : -0.173D-03
Largest |displ|/coords:  0.1601 (   3)  0.1574 (   6)  0.1222 (   2)
................................................................................
.............................. CYCLE   31 ......................................
................................................................................
   1    -50.7218796 -0.507219E+02  0.163E-01    9.20       0.0  T
   2    -50.7218829 -0.324698E-05  0.123E-01    9.21       1.0  T
   3    -50.7218864 -0.350262E-05  0.949E-03    9.22       2.1  T
   4    -50.7218867 -0.332182E-06  0.375E-03    9.21       5.2  T
   5    -50.7218867 -0.163645E-07  0.159E-03    9.21      12.3  T
   6    -50.7218867 -0.469916E-08  0.664E-04    9.21      29.5  T
speedup  0.94
cpu  time for SCC    0.00 s
wall time for SCC    0.01 s
speedup  0.99
cpu  time for grad    0.01 s
wall time for grad    0.01 s
 E :    -50.45120959  G :  0.007746    pred/act E change: -0.186D-03 -0.950D-04
Maxdispl :   0.1198   ||displ|| :   0.2135   Lambda : -0.172D-03
Largest |displ|/coords:  0.1198 (   3)  0.1065 (   6)  0.0833 (   2)
................................................................................
.............................. CYCLE   32 ......................................
................................................................................
   1    -50.7239224 -0.507239E+02  0.970E-02    9.22       0.0  T
   2    -50.7239240 -0.159113E-05  0.731E-02    9.22       1.0  T
   3    -50.7239256 -0.163343E-05  0.686E-03    9.22       2.9  T
   4    -50.7239258 -0.167703E-06  0.265E-03    9.22       7.4  T
   5    -50.7239258 -0.845049E-08  0.995E-04    9.22      19.7  T
speedup  0.87
cpu  time for SCC    0.00 s
wall time for SCC    0.00 s
speedup  0.97
cpu  time for grad    0.01 s
wall time for grad    0.01 s
 E :    -50.45123731  G :  0.007513    pred/act E change: -0.946D-04 -0.277D-04
Maxdispl :   0.1351   ||displ|| :   0.2332   Lambda : -0.229D-03
Largest |displ|/coords:  0.1351 (   3)  0.1167 (   4)  0.1018 (   2)
................................................................................
.............................. CYCLE   33 ......................................
................................................................................
   1    -50.7221076 -0.507221E+02  0.139E-01    9.22       0.0  T
   2    -50.7221100 -0.246079E-05  0.105E-01    9.22       1.0  T
   3    -50.7221128 -0.275141E-05  0.790E-03    9.22       2.5  T
   4    -50.7221130 -0.239502E-06  0.286E-03    9.22       6.9  T
   5    -50.7221130 -0.862578E-08  0.143E-03    9.22      13.7  T
speedup  1.11
cpu  time for SCC    0.01 s
wall time for SCC    0.00 s
speedup  0.94
cpu  time for grad    0.01 s
wall time for grad    0.01 s
 E :    -50.45137388  G :  0.007836    pred/act E change: -0.899D-04 -0.137D-03
Maxdispl :   0.0712   ||displ|| :   0.1115   Lambda : -0.161D-03
Largest |displ|/coords:  0.0712 (   4)  0.0372 (  10)  0.0365 (   5)
................................................................................
.............................. CYCLE   34 ......................................
................................................................................
   1    -50.7242997 -0.507243E+02  0.761E-02    9.21       0.0  T
   2    -50.7243029 -0.310669E-05  0.567E-02    9.21       1.0  T
   3    -50.7243051 -0.223409E-05  0.968E-03    9.20       2.0  T
   4    -50.7243055 -0.391395E-06  0.313E-03    9.20       6.3  T
   5    -50.7243055 -0.149910E-07  0.123E-03    9.20      15.9  T
   6    -50.7243055 -0.170615E-08  0.585E-04    9.20      33.5  T
speedup  0.94
cpu  time for SCC    0.00 s
wall time for SCC    0.01 s
speedup  0.99
cpu  time for grad    0.01 s
wall time for grad    0.01 s
 E :    -50.45127167  G :  0.014021    pred/act E change: -0.121D-03  0.102D-03
Maxdispl :   0.0737   ||displ|| :   0.1450   Lambda : -0.365D-03
Largest |displ|/coords:  0.0737 (   6)  0.0631 (   3)  0.0546 (   2)
................................................................................
.............................. CYCLE   35 ......................................
................................................................................
   1    -50.7222498 -0.507222E+02  0.103E-01    9.19       0.0  T
   2    -50.7222518 -0.203913E-05  0.772E-02    9.19       1.0  T
   3    -50.7222534 -0.158636E-05  0.796E-03    9.19       2.5  T
   4    -50.7222537 -0.258197E-06  0.241E-03    9.19       8.2  T
   5    -50.7222537 -0.742602E-08  0.102E-03    9.19      19.2  T
speedup  0.89
cpu  time for SCC    0.00 s
wall time for SCC    0.00 s
speedup  0.97
cpu  time for grad    0.01 s
wall time for grad    0.01 s
 E :    -50.45147466  G :  0.006048    pred/act E change: -0.817D-04 -0.203D-03
Maxdispl :   0.0603   ||displ|| :   0.1025   Lambda : -0.746D-04
Largest |displ|/coords:  0.0603 (   3)  0.0457 (   6)  0.0338 (   2)
................................................................................
.............................. CYCLE   36 ......................................
................................................................................
   1    -50.7224836 -0.507225E+02  0.628E-02    9.19       0.0  T
   2    -50.7224844 -0.744734E-06  0.474E-02    9.19       1.0  T
   3    -50.7224851 -0.747297E-06  0.456E-03    9.19       4.3  T
   4    -50.7224852 -0.766433E-07  0.178E-03    9.19      11.0  T
   5    -50.7224852 -0.384757E-08  0.612E-04    9.19      32.0  T
speedup  1.09
cpu  time for SCC    0.00 s
wall time for SCC    0.00 s
speedup  1.04
cpu  time for grad    0.01 s
wall time for grad    0.01 s
 E :    -50.45152338  G :  0.006416    pred/act E change: -0.186D-03 -0.487D-04
Maxdispl :   0.1282   ||displ|| :   0.2575   Lambda : -0.122D-03
Largest |displ|/coords:  0.1282 (   6)  0.1218 (   3)  0.0884 (   4)
................................................................................
.............................. CYCLE   37 ......................................
................................................................................
   1    -50.7226196 -0.507226E+02  0.144E-01    9.18       0.0  T
   2    -50.7226228 -0.328969E-05  0.108E-01    9.17       1.0  T
   3    -50.7226263 -0.342061E-05  0.982E-03    9.15       2.0  T
   4    -50.7226266 -0.346781E-06  0.434E-03    9.16       4.5  T
   5    -50.7226266 -0.218770E-07  0.134E-03    9.16      14.6  T
   6    -50.7226266 -0.293303E-08  0.685E-04    9.16      28.6  T
speedup  1.11
cpu  time for SCC    0.01 s
wall time for SCC    0.01 s
speedup  1.06
cpu  time for grad    0.01 s
wall time for grad    0.01 s
 E :    -50.45160338  G :  0.009450    pred/act E change: -0.377D-04 -0.800D-04
Maxdispl :   0.1027   ||displ|| :   0.1998   Lambda : -0.177D-03
Largest |displ|/coords:  0.1027 (   6)  0.0776 (   4)  0.0699 (   3)
................................................................................
.............................. CYCLE   38 ......................................
................................................................................
   1    -50.7253028 -0.507253E+02  0.120E-01    9.16       0.0  T
   2    -50.7253086 -0.576498E-05  0.899E-02    9.15       1.0  T
   3    -50.7253127 -0.412817E-05  0.134E-02    9.12       1.5  T
   4    -50.7253135 -0.801141E-06  0.493E-03    9.12       4.0  T
   5    -50.7253136 -0.397619E-07  0.176E-03    9.13      11.1  T
   6    -50.7253136 -0.390629E-08  0.908E-04    9.13      21.6  T
speedup  0.94
cpu  time for SCC    0.01 s
wall time for SCC    0.01 s
speedup  0.98
cpu  time for grad    0.01 s
wall time for grad    0.01 s
 E :    -50.45169882  G :  0.006090    pred/act E change: -0.649D-04 -0.954D-04
Maxdispl :   0.3114   ||displ|| :   0.6134   Lambda : -0.261D-03
Largest |displ|/coords:  0.3114 (   3)  0.2996 (   6)  0.2505 (   4)
................................................................................
.............................. CYCLE   39 ......................................
................................................................................
   1    -50.7185901 -0.507186E+02  0.326E-01    9.09       0.0  T
   2    -50.7186080 -0.178870E-04  0.245E-01    9.08       1.0  T
   3    -50.7186248 -0.167951E-04  0.231E-02    9.05       1.0  T
   4    -50.7186269 -0.211483E-05  0.923E-03    9.06       2.1  T
   5    -50.7186270 -0.122251E-06  0.365E-03    9.06       5.4  T
   6    -50.7186270 -0.152493E-07  0.179E-03    9.06      11.0  T
   7    -50.7186270 -0.869343E-08  0.338E-04    9.06      58.0  T
speedup  0.95
cpu  time for SCC    0.01 s
wall time for SCC    0.01 s
speedup  0.99
cpu  time for grad    0.01 s
wall time for grad    0.01 s
 E :    -50.45158296  G :  0.019415    pred/act E change: -0.923D-04  0.116D-03
Maxdispl :   0.1495   ||displ|| :   0.2586   Lambda : -0.606D-03
Largest |displ|/coords:  0.1495 (   3)  0.1109 (   6)  0.0959 (   2)
................................................................................
.............................. CYCLE   40 ......................................
................................................................................
   1    -50.7251643 -0.507252E+02  0.158E-01    9.09       0.0  T
   2    -50.7251703 -0.600780E-05  0.119E-01    9.10       1.0  T
   3    -50.7251746 -0.431720E-05  0.139E-02    9.11       1.4  T
   4    -50.7251754 -0.797337E-06  0.428E-03    9.11       4.6  T
   5    -50.7251754 -0.253524E-07  0.178E-03    9.11      11.0  T
   6    -50.7251754 -0.252010E-08  0.906E-04    9.11      21.6  T
speedup  0.88
cpu  time for SCC    0.00 s
wall time for SCC    0.01 s
speedup  0.96
cpu  time for grad    0.01 s
wall time for grad    0.01 s
 E :    -50.45181597  G :  0.007566    pred/act E change: -0.179D-03 -0.233D-03
Maxdispl :   0.0566   ||displ|| :   0.0826   Lambda : -0.137D-03
Largest |displ|/coords:  0.0566 (   3)  0.0217 (   1)  0.0201 (  13)
................................................................................
.............................. CYCLE   41 ......................................
................................................................................
   1    -50.7249986 -0.507250E+02  0.728E-02    9.12       0.0  T
   2    -50.7250011 -0.241633E-05  0.546E-02    9.12       1.0  T
   3    -50.7250028 -0.175020E-05  0.886E-03    9.12       2.2  T
   4    -50.7250031 -0.318653E-06  0.232E-03    9.12       8.5  T
   5    -50.7250031 -0.673160E-08  0.105E-03    9.12      18.7  T
speedup  0.87
cpu  time for SCC    0.00 s
wall time for SCC    0.00 s
speedup  0.96
cpu  time for grad    0.01 s
wall time for grad    0.01 s
 E :    -50.45182134  G :  0.009103    pred/act E change: -0.323D-03 -0.536D-05
Maxdispl :   0.0859   ||displ|| :   0.1681   Lambda : -0.148D-03
Largest |displ|/coords:  0.0859 (   6)  0.0833 (   4)  0.0551 (   5)
................................................................................
.............................. CYCLE   42 ......................................
................................................................................
   1    -50.7246970 -0.507247E+02  0.929E-02    9.12       0.0  T
   2    -50.7246990 -0.196932E-05  0.700E-02    9.11       1.0  T
   3    -50.7247008 -0.187859E-05  0.774E-03    9.11       2.5  T
   4    -50.7247011 -0.231297E-06  0.309E-03    9.11       6.3  T
   5    -50.7247011 -0.143501E-07  0.102E-03    9.11      19.2  T
   6    -50.7247011 -0.134435E-08  0.553E-04    9.11      35.5  T
speedup  0.93
cpu  time for SCC    0.01 s
wall time for SCC    0.01 s
speedup  0.98
cpu  time for grad    0.01 s
wall time for grad    0.01 s
 E :    -50.45192682  G :  0.005705    pred/act E change: -0.688D-04 -0.105D-03
Maxdispl :   0.1528   ||displ|| :   0.3100   Lambda : -0.153D-03
Largest |displ|/coords:  0.1528 (   6)  0.1491 (   4)  0.1212 (   3)
................................................................................
.............................. CYCLE   43 ......................................
................................................................................
   1    -50.7231594 -0.507232E+02  0.154E-01    9.12       0.0  T
   2    -50.7231641 -0.467352E-05  0.116E-01    9.11       1.0  T
   3    -50.7231687 -0.454442E-05  0.121E-02    9.11       1.6  T
   4    -50.7231692 -0.558370E-06  0.490E-03    9.11       4.0  T
   5    -50.7231692 -0.355306E-07  0.162E-03    9.11      12.1  T
   6    -50.7231692 -0.341655E-08  0.864E-04    9.11      22.7  T
speedup  1.09
cpu  time for SCC    0.01 s
wall time for SCC    0.01 s
speedup  1.05
cpu  time for grad    0.01 s
wall time for grad    0.01 s
 E :    -50.45201184  G :  0.010263    pred/act E change: -0.762D-04 -0.850D-04
Maxdispl :   0.0964   ||displ|| :   0.2046   Lambda : -0.125D-03
Largest |displ|/coords:  0.0964 (   6)  0.0937 (   5)  0.0744 (   3)
................................................................................
.............................. CYCLE   44 ......................................
................................................................................
   1    -50.7232214 -0.507232E+02  0.927E-02    9.12       0.0  T
   2    -50.7232232 -0.181683E-05  0.697E-02    9.12       1.0  T
   3    -50.7232248 -0.153630E-05  0.844E-03    9.13       2.3  T
   4    -50.7232250 -0.246543E-06  0.314E-03    9.12       6.2  T
   5    -50.7232250 -0.126874E-07  0.917E-04    9.12      21.4  T
   6    -50.7232250 -0.136841E-08  0.506E-04    9.12      38.8  T
speedup  1.09
cpu  time for SCC    0.01 s
wall time for SCC    0.01 s
speedup  1.03
cpu  time for grad    0.01 s
wall time for grad    0.01 s
 E :    -50.45211612  G :  0.010645    pred/act E change: -0.837D-04 -0.104D-03
Maxdispl :   0.2416   ||displ|| :   0.5021   Lambda : -0.511D-03
Largest |displ|/coords:  0.2416 (   5)  0.2034 (   2)  0.1686 (   6)
................................................................................
.............................. CYCLE   45 ......................................
................................................................................
   1    -50.7250356 -0.507250E+02  0.231E-01    9.18       0.0  T
   2    -50.7250530 -0.174019E-04  0.173E-01    9.19       1.0  T
   3    -50.7250644 -0.113729E-04  0.262E-02    9.23       1.0  T
   4    -50.7250668 -0.238989E-05  0.858E-03    9.22       2.3  T
   5    -50.7250669 -0.112957E-06  0.291E-03    9.22       6.7  T
   6    -50.7250669 -0.984002E-08  0.157E-03    9.22      12.5  T
speedup  1.11
cpu  time for SCC    0.01 s
wall time for SCC    0.01 s
speedup  1.05
cpu  time for grad    0.01 s
wall time for grad    0.01 s
 E :    -50.45239016  G :  0.008908    pred/act E change: -0.649D-04 -0.274D-03
Maxdispl :   0.3096   ||displ|| :   0.7117   Lambda : -0.522D-03
Largest |displ|/coords:  0.3096 (   5)  0.3069 (   6)  0.2815 (   4)
................................................................................
.............................. CYCLE   46 ......................................
................................................................................
   1    -50.7153435 -0.507153E+02  0.348E-01    9.17       0.0  T
   2    -50.7153725 -0.289976E-04  0.262E-01    9.17       1.0  T
   3    -50.7153936 -0.211674E-04  0.332E-02    9.18       1.0  T
   4    -50.7153977 -0.405077E-05  0.105E-02    9.18       1.9  T
   5    -50.7153979 -0.207902E-06  0.377E-03    9.18       5.2  T
   6    -50.7153979 -0.948511E-08  0.207E-03    9.18       9.5  T
   7    -50.7153979 -0.103182E-07  0.414E-04    9.18      47.4  T
speedup  0.94
cpu  time for SCC    0.01 s
wall time for SCC    0.01 s
speedup  0.92
cpu  time for grad    0.01 s
wall time for grad    0.01 s
 E :    -50.45213840  G :  0.032543    pred/act E change: -0.320D-03  0.252D-03
Maxdispl :   0.0800   ||displ|| :   0.1569   Lambda : -0.133D-02
Largest |displ|/coords:  0.0800 (   6)  0.0683 (   5)  0.0578 (   3)
................................................................................
.............................. CYCLE   47 ......................................
................................................................................
   1    -50.7207057 -0.507207E+02  0.129E-01    9.20       0.0  T
   2    -50.7207193 -0.136085E-04  0.959E-02    9.19       1.0  T
   3    -50.7207286 -0.927526E-05  0.213E-02    9.19       1.0  T
   4    -50.7207300 -0.148034E-05  0.642E-03    9.19       3.1  T
   5    -50.7207301 -0.718133E-07  0.236E-03    9.19       8.3  T
   6    -50.7207301 -0.418853E-08  0.117E-03    9.19      16.8  T
speedup  1.11
cpu  time for SCC    0.01 s
wall time for SCC    0.01 s
speedup  1.05
cpu  time for grad    0.01 s
wall time for grad    0.01 s
 E :    -50.45261263  G :  0.014506    pred/act E change: -0.394D-03 -0.474D-03
Maxdispl :   0.0927   ||displ|| :   0.1579   Lambda : -0.506D-03
Largest |displ|/coords:  0.0927 (   4)  0.0713 (   1)  0.0407 (  13)
................................................................................
.............................. CYCLE   48 ......................................
................................................................................
   1    -50.7274164 -0.507274E+02  0.107E-01    9.27       0.0  T
   2    -50.7274237 -0.725634E-05  0.816E-02    9.27       1.0  T
   3    -50.7274324 -0.868871E-05  0.145E-02    9.26       1.4  T
   4    -50.7274330 -0.591721E-06  0.500E-03    9.27       3.9  T
   5    -50.7274330 -0.338841E-07  0.172E-03    9.27      11.4  T
   6    -50.7274330 -0.396727E-08  0.718E-04    9.27      27.3  T
speedup  1.11
cpu  time for SCC    0.01 s
wall time for SCC    0.01 s
speedup  0.98
cpu  time for grad    0.01 s
wall time for grad    0.01 s
 E :    -50.45262098  G :  0.013423    pred/act E change: -0.683D-03 -0.835D-05
Maxdispl :   0.1258   ||displ|| :   0.2553   Lambda : -0.423D-03
Largest |displ|/coords:  0.1258 (   4)  0.0911 (   5)  0.0897 (   2)
................................................................................
.............................. CYCLE   49 ......................................
................................................................................
   1    -50.7239061 -0.507239E+02  0.131E-01    9.23       0.0  T
   2    -50.7239109 -0.479872E-05  0.987E-02    9.23       1.0  T
   3    -50.7239164 -0.553300E-05  0.133E-02    9.23       1.5  T
   4    -50.7239168 -0.428529E-06  0.542E-03    9.23       3.6  T
   5    -50.7239169 -0.382321E-07  0.151E-03    9.23      13.0  T
   6    -50.7239169 -0.359596E-08  0.834E-04    9.23      23.5  T
speedup  0.93
cpu  time for SCC    0.00 s
wall time for SCC    0.01 s
speedup  0.98
cpu  time for grad    0.01 s
wall time for grad    0.01 s
 E :    -50.45290973  G :  0.006554    pred/act E change: -0.259D-03 -0.289D-03
Maxdispl :   0.1999   ||displ|| :   0.4840   Lambda : -0.280D-03
Largest |displ|/coords:  0.1999 (   5)  0.1915 (   4)  0.1717 (   6)
................................................................................
.............................. CYCLE   50 ......................................
................................................................................
   1    -50.7191951 -0.507192E+02  0.212E-01    9.18       0.0  T
   2    -50.7192028 -0.770573E-05  0.159E-01    9.19       1.0  T
   3    -50.7192101 -0.730331E-05  0.175E-02    9.19       1.1  T
   4    -50.7192109 -0.845468E-06  0.621E-03    9.19       3.2  T
   5    -50.7192110 -0.490832E-07  0.201E-03    9.19       9.8  T
   6    -50.7192110 -0.467141E-08  0.934E-04    9.19      21.0  T
speedup  0.93
cpu  time for SCC    0.00 s
wall time for SCC    0.01 s
speedup  0.98
cpu  time for grad    0.01 s
wall time for grad    0.01 s
 E :    -50.45305114  G :  0.014713    pred/act E change: -0.225D-03 -0.141D-03
Maxdispl :   0.1007   ||displ|| :   0.1823   Lambda : -0.290D-03
Largest |displ|/coords:  0.1007 (   2)  0.0584 (   1)  0.0566 (   3)
................................................................................
.............................. CYCLE   51 ......................................
................................................................................
   1    -50.7223079 -0.507223E+02  0.773E-02    9.22       0.0  T
   2    -50.7223109 -0.296827E-05  0.579E-02    9.21       1.0  T
   3    -50.7223128 -0.191767E-05  0.109E-02    9.19       1.8  T
   4    -50.7223133 -0.463513E-06  0.332E-03    9.20       5.9  T
   5    -50.7223133 -0.157652E-07  0.125E-03    9.20      15.6  T
   6    -50.7223133 -0.257705E-08  0.588E-04    9.20      33.4  T
speedup  1.13
cpu  time for SCC    0.01 s
wall time for SCC    0.01 s
speedup  1.06
cpu  time for grad    0.01 s
wall time for grad    0.01 s
 E :    -50.45326218  G :  0.011183    pred/act E change: -0.173D-03 -0.211D-03
Maxdispl :   0.2701   ||displ|| :   0.4225   Lambda : -0.557D-03
Largest |displ|/coords:  0.2701 (   2)  0.1677 (   1)  0.1245 (   3)
................................................................................
.............................. CYCLE   52 ......................................
................................................................................
   1    -50.7270557 -0.507271E+02  0.177E-01    9.25       0.0  T
   2    -50.7270650 -0.933796E-05  0.132E-01    9.24       1.0  T
   3    -50.7270723 -0.728477E-05  0.190E-02    9.22       1.0  T
   4    -50.7270734 -0.111490E-05  0.663E-03    9.22       3.0  T
   5    -50.7270735 -0.639197E-07  0.230E-03    9.22       8.5  T
   6    -50.7270735 -0.632455E-08  0.121E-03    9.22      16.1  T
speedup  0.94
cpu  time for SCC    0.00 s
wall time for SCC    0.01 s
speedup  0.98
cpu  time for grad    0.01 s
wall time for grad    0.01 s
 E :    -50.45362333  G :  0.007510    pred/act E change: -0.150D-03 -0.361D-03
Maxdispl :   0.2923   ||displ|| :   0.6789   Lambda : -0.560D-03
Largest |displ|/coords:  0.2923 (   2)  0.2526 (   1)  0.2319 (   5)

generating ANC from model Hessian ...
 Shifting diagonal of input Hessian by   5.099337597967467E-003
 Lowest  eigenvalues of input Hessian
    0.005000   -0.000000   -0.000000   -0.000000    0.000000    0.000000
    0.000000    0.005239    0.005371    0.005858    0.006442    0.006738
    0.007203    0.007972    0.008257    0.009222    0.009860    0.011160
 Highest eigenvalues
    1.381820    1.402678    1.409262    2.847538    3.367782    3.539316
 
cpu  time for ANC gen    0.01 s
wall time for ANC gen    0.01 s
................................................................................
.............................. CYCLE   53 ......................................
................................................................................
   1    -50.7261610 -0.507262E+02  0.295E-01    9.24       0.0  T
   2    -50.7261784 -0.174515E-04  0.221E-01    9.23       1.0  T
   3    -50.7261921 -0.136922E-04  0.274E-02    9.20       1.0  T
   4    -50.7261945 -0.235832E-05  0.900E-03    9.21       2.2  T
   5    -50.7261946 -0.109635E-06  0.295E-03    9.21       6.7  T
   6    -50.7261946 -0.792861E-08  0.156E-03    9.21      12.5  T
   7    -50.7261946 -0.565844E-08  0.394E-04    9.21      49.8  T
   8    -50.7261946 -0.539529E-09  0.128E-04    9.21     152.7  T
speedup  1.14
cpu  time for SCC    0.01 s
wall time for SCC    0.01 s
speedup  1.04
cpu  time for grad    0.02 s
wall time for grad    0.02 s
 E :    -50.45388778  G :  0.017071    pred/act E change:  0.000D+00 -0.264D-03
Maxdispl :   0.0668   ||displ|| :   0.1345   Lambda : -0.455D-03
Largest |displ|/coords:  0.0668 (   1)  0.0666 (   4)  0.0476 (   2)
................................................................................
.............................. CYCLE   54 ......................................
................................................................................
   1    -50.7279929 -0.507280E+02  0.114E-01    9.20       0.0  T
   2    -50.7279966 -0.379001E-05  0.861E-02    9.20       1.0  T
   3    -50.7279999 -0.321359E-05  0.106E-02    9.21       1.8  T
   4    -50.7280003 -0.473649E-06  0.475E-03    9.21       4.1  T
   5    -50.7280004 -0.345897E-07  0.127E-03    9.21      15.4  T
   6    -50.7280004 -0.135626E-08  0.738E-04    9.21      26.6  T
speedup  1.13
cpu  time for SCC    0.01 s
wall time for SCC    0.01 s
speedup  1.06
cpu  time for grad    0.01 s
wall time for grad    0.01 s
 E :    -50.45419866  G :  0.005940    pred/act E change:  0.000D+00 -0.311D-03
Maxdispl :   0.1155   ||displ|| :   0.2002   Lambda : -0.269D-03
Largest |displ|/coords:  0.1155 (   1)  0.0912 (   4)  0.0874 (   2)
................................................................................
.............................. CYCLE   55 ......................................
................................................................................
   1    -50.7286633 -0.507287E+02  0.142E-01    9.19       0.0  T
   2    -50.7286668 -0.354179E-05  0.107E-01    9.19       1.0  T
   3    -50.7286699 -0.313679E-05  0.111E-02    9.19       1.8  T
   4    -50.7286703 -0.366559E-06  0.453E-03    9.19       4.3  T
   5    -50.7286703 -0.186608E-07  0.134E-03    9.19      14.6  T
   6    -50.7286703 -0.194206E-08  0.745E-04    9.19      26.3  T
speedup  0.94
cpu  time for SCC    0.00 s
wall time for SCC    0.01 s
speedup  0.98
cpu  time for grad    0.01 s
wall time for grad    0.01 s
 E :    -50.45437837  G :  0.004783    pred/act E change: -0.232D-03 -0.180D-03
Maxdispl :   0.2203   ||displ|| :   0.3447   Lambda : -0.273D-03
Largest |displ|/coords:  0.2203 (   1)  0.1619 (   4)  0.1307 (   2)
................................................................................
.............................. CYCLE   56 ......................................
................................................................................
   1    -50.7264789 -0.507265E+02  0.252E-01    9.18       0.0  T
   2    -50.7264858 -0.686455E-05  0.189E-01    9.18       1.0  T
   3    -50.7264937 -0.791560E-05  0.151E-02    9.18       1.3  T
   4    -50.7264941 -0.393157E-06  0.453E-03    9.18       4.3  T
   5    -50.7264941 -0.141518E-07  0.219E-03    9.18       9.0  T
   6    -50.7264941 -0.942991E-08  0.842E-04    9.18      23.3  T
speedup  0.94
cpu  time for SCC    0.00 s
wall time for SCC    0.01 s
speedup  0.98
cpu  time for grad    0.01 s
wall time for grad    0.01 s
 E :    -50.45456005  G :  0.009912    pred/act E change: -0.140D-03 -0.182D-03
Maxdispl :   0.2046   ||displ|| :   0.3433   Lambda : -0.261D-03
Largest |displ|/coords:  0.2046 (   1)  0.1940 (   4)  0.1348 (   2)
................................................................................
.............................. CYCLE   57 ......................................
................................................................................
   1    -50.7243945 -0.507244E+02  0.232E-01    9.18       0.0  T
   2    -50.7243994 -0.487170E-05  0.174E-01    9.17       1.0  T
   3    -50.7244052 -0.580304E-05  0.133E-02    9.17       1.5  T
   4    -50.7244054 -0.179590E-06  0.419E-03    9.17       4.7  T
   5    -50.7244054 -0.139613E-07  0.178E-03    9.17      11.0  T
   6    -50.7244054 -0.351078E-08  0.699E-04    9.17      28.1  T
speedup  1.11
cpu  time for SCC    0.01 s
wall time for SCC    0.01 s
speedup  1.05
cpu  time for grad    0.01 s
wall time for grad    0.01 s
 E :    -50.45467447  G :  0.015672    pred/act E change: -0.152D-03 -0.114D-03
Maxdispl :   0.1032   ||displ|| :   0.1874   Lambda : -0.387D-03
Largest |displ|/coords:  0.1032 (   4)  0.0981 (   2)  0.0887 (   1)
................................................................................
.............................. CYCLE   58 ......................................
................................................................................
   1    -50.7277264 -0.507277E+02  0.959E-02    9.19       0.0  T
   2    -50.7277302 -0.375875E-05  0.710E-02    9.18       1.0  T
   3    -50.7277329 -0.275458E-05  0.121E-02    9.17       1.6  T
   4    -50.7277333 -0.408685E-06  0.406E-03    9.17       4.8  T
   5    -50.7277334 -0.257628E-07  0.127E-03    9.17      15.5  T
   6    -50.7277334 -0.184428E-08  0.669E-04    9.17      29.3  T
speedup  1.11
cpu  time for SCC    0.01 s
wall time for SCC    0.01 s
speedup  1.05
cpu  time for grad    0.01 s
wall time for grad    0.01 s
 E :    -50.45489989  G :  0.005926    pred/act E change: -0.146D-03 -0.225D-03
Maxdispl :   0.2541   ||displ|| :   0.3953   Lambda : -0.263D-03
Largest |displ|/coords:  0.2541 (   1)  0.2254 (   4)  0.1593 (   2)
................................................................................
.............................. CYCLE   59 ......................................
................................................................................
   1    -50.7259747 -0.507260E+02  0.224E-01    9.17       0.0  T
   2    -50.7259829 -0.823389E-05  0.168E-01    9.17       1.0  T
   3    -50.7259926 -0.969369E-05  0.164E-02    9.16       1.2  T
   4    -50.7259932 -0.561528E-06  0.577E-03    9.16       3.4  T
   5    -50.7259932 -0.333227E-07  0.240E-03    9.16       8.2  T
   6    -50.7259932 -0.961116E-08  0.987E-04    9.16      19.9  T
speedup  1.07
cpu  time for SCC    0.01 s
wall time for SCC    0.01 s
speedup  1.04
cpu  time for grad    0.01 s
wall time for grad    0.01 s
 E :    -50.45504156  G :  0.012249    pred/act E change: -0.200D-03 -0.142D-03
Maxdispl :   0.2227   ||displ|| :   0.3648   Lambda : -0.373D-03
Largest |displ|/coords:  0.2227 (   4)  0.2029 (   1)  0.1681 (   2)
................................................................................
.............................. CYCLE   60 ......................................
................................................................................
   1    -50.7271673 -0.507272E+02  0.176E-01    9.16       0.0  T
   2    -50.7271733 -0.604975E-05  0.132E-01    9.16       1.0  T
   3    -50.7271788 -0.545060E-05  0.142E-02    9.15       1.4  T
   4    -50.7271794 -0.627427E-06  0.475E-03    9.16       4.1  T
   5    -50.7271794 -0.230527E-07  0.182E-03    9.16      10.8  T
   6    -50.7271794 -0.388971E-08  0.843E-04    9.16      23.3  T
speedup  1.09
cpu  time for SCC    0.01 s
wall time for SCC    0.01 s
speedup  1.04
cpu  time for grad    0.01 s
wall time for grad    0.01 s
 E :    -50.45529619  G :  0.008611    pred/act E change: -0.152D-03 -0.255D-03
Maxdispl :   0.2568   ||displ|| :   0.4590   Lambda : -0.351D-03
Largest |displ|/coords:  0.2568 (   2)  0.2514 (   4)  0.2446 (   1)
................................................................................
.............................. CYCLE   61 ......................................
................................................................................
   1    -50.7277290 -0.507277E+02  0.192E-01    9.13       0.0  T
   2    -50.7277355 -0.646711E-05  0.143E-01    9.13       1.0  T
   3    -50.7277421 -0.660016E-05  0.140E-02    9.14       1.4  T
   4    -50.7277426 -0.476908E-06  0.506E-03    9.13       3.9  T
   5    -50.7277426 -0.260034E-07  0.198E-03    9.13       9.9  T
   6    -50.7277426 -0.693885E-08  0.816E-04    9.13      24.0  T
speedup  1.11
cpu  time for SCC    0.01 s
wall time for SCC    0.01 s
speedup  1.04
cpu  time for grad    0.01 s
wall time for grad    0.01 s
 E :    -50.45550707  G :  0.010707    pred/act E change: -0.211D-03 -0.211D-03
Maxdispl :   0.2219   ||displ|| :   0.3860   Lambda : -0.458D-03
Largest |displ|/coords:  0.2219 (   1)  0.2012 (   4)  0.1496 (   2)
................................................................................
.............................. CYCLE   62 ......................................
................................................................................
   1    -50.7352985 -0.507353E+02  0.145E-01    9.18       0.0  T
   2    -50.7353092 -0.106341E-04  0.107E-01    9.17       1.0  T
   3    -50.7353143 -0.517820E-05  0.212E-02    9.15       1.0  T
   4    -50.7353159 -0.159531E-05  0.570E-03    9.16       3.4  T
   5    -50.7353160 -0.450775E-07  0.190E-03    9.16      10.3  T
   6    -50.7353160 -0.433727E-08  0.103E-03    9.16      19.0  T
speedup  1.09
cpu  time for SCC    0.01 s
wall time for SCC    0.01 s
speedup  1.04
cpu  time for grad    0.01 s
wall time for grad    0.01 s
 E :    -50.45556331  G :  0.014669    pred/act E change: -0.212D-03 -0.562D-04
Maxdispl :   0.2788   ||displ|| :   0.4691   Lambda : -0.597D-03
Largest |displ|/coords:  0.2788 (   4)  0.2712 (   1)  0.2148 (   2)
................................................................................
.............................. CYCLE   63 ......................................
................................................................................
   1    -50.7257198 -0.507257E+02  0.256E-01    9.09       0.0  T
   2    -50.7257327 -0.129274E-04  0.191E-01    9.10       1.0  T
   3    -50.7257437 -0.109998E-04  0.206E-02    9.10       1.0  T
   4    -50.7257451 -0.142883E-05  0.670E-03    9.09       2.9  T
   5    -50.7257452 -0.527590E-07  0.297E-03    9.09       6.6  T
   6    -50.7257452 -0.130711E-07  0.132E-03    9.09      14.8  T
speedup  1.09
cpu  time for SCC    0.01 s
wall time for SCC    0.01 s
speedup  1.04
cpu  time for grad    0.01 s
wall time for grad    0.01 s
 E :    -50.45570687  G :  0.017910    pred/act E change: -0.263D-03 -0.144D-03
Maxdispl :   0.1454   ||displ|| :   0.1981   Lambda : -0.542D-03
Largest |displ|/coords:  0.1454 (   1)  0.0967 (   4)  0.0512 (   3)
................................................................................
.............................. CYCLE   64 ......................................
................................................................................
   1    -50.7288905 -0.507289E+02  0.134E-01    9.10       0.0  T
   2    -50.7289006 -0.101198E-04  0.100E-01    9.11       1.0  T
   3    -50.7289077 -0.704382E-05  0.191E-02    9.12       1.0  T
   4    -50.7289090 -0.128132E-05  0.492E-03    9.11       4.0  T
   5    -50.7289090 -0.473880E-07  0.208E-03    9.11       9.4  T
   6    -50.7289090 -0.336453E-08  0.103E-03    9.11      19.0  T
speedup  1.11
cpu  time for SCC    0.01 s
wall time for SCC    0.01 s
speedup  1.05
cpu  time for grad    0.01 s
wall time for grad    0.01 s
 E :    -50.45574827  G :  0.014396    pred/act E change: -0.364D-03 -0.414D-04
Maxdispl :   0.1084   ||displ|| :   0.1953   Lambda : -0.429D-03
Largest |displ|/coords:  0.1084 (   1)  0.0853 (   2)  0.0696 (   4)
................................................................................
.............................. CYCLE   65 ......................................
................................................................................
   1    -50.7327256 -0.507327E+02  0.121E-01    9.14       0.0  T
   2    -50.7327318 -0.622991E-05  0.911E-02    9.14       1.0  T
[...]
................................................................................
   1    -50.7369124 -0.507369E+02  0.166E-02    9.05       0.0  T
   2    -50.7369125 -0.839402E-07  0.124E-02    9.05       1.6  T
   3    -50.7369125 -0.687367E-07  0.169E-03    9.05      11.6  T
   4    -50.7369125 -0.997090E-08  0.659E-04    9.05      29.8  T
   5    -50.7369125 -0.603514E-09  0.195E-04    9.05     100.4  T
speedup  1.11
cpu  time for SCC    0.00 s
wall time for SCC    0.00 s
speedup  0.99
cpu  time for grad    0.01 s
wall time for grad    0.01 s
 E :    -50.45999038  G :  0.000920    pred/act E change: -0.626D-05 -0.408D-05
Maxdispl :   0.0193   ||displ|| :   0.0339   Lambda : -0.361D-05
Largest |displ|/coords:  0.0193 (   1)  0.0180 (   5)  0.0119 (  10)
................................................................................
.............................. CYCLE  120 ......................................
................................................................................
   1    -50.7368860 -0.507369E+02  0.165E-02    9.05       0.0  T
   2    -50.7368861 -0.632862E-07  0.124E-02    9.05       1.6  T
   3    -50.7368861 -0.626241E-07  0.142E-03    9.05      13.8  T
   4    -50.7368861 -0.662207E-08  0.614E-04    9.05      32.0  T
   5    -50.7368861 -0.427583E-09  0.189E-04    9.05     103.6  T
speedup  1.11
cpu  time for SCC    0.01 s
wall time for SCC    0.00 s
speedup  1.00
cpu  time for grad    0.01 s
wall time for grad    0.01 s
 E :    -50.45999316  G :  0.000981    pred/act E change: -0.347D-05 -0.278D-05
Maxdispl :   0.0256   ||displ|| :   0.0503   Lambda : -0.521D-05
Largest |displ|/coords:  0.0256 (   1)  0.0201 (  10)  0.0180 (   5)
................................................................................
.............................. CYCLE  121 ......................................
................................................................................
   1    -50.7368934 -0.507369E+02  0.268E-02    9.05       0.0  T
   2    -50.7368935 -0.149195E-06  0.201E-02    9.05       1.0  T
   3    -50.7368937 -0.148716E-06  0.221E-03    9.06       8.9  T
   4    -50.7368937 -0.134027E-07  0.977E-04    9.06      20.1  T
   5    -50.7368937 -0.104656E-08  0.294E-04    9.06      66.8  T
speedup  1.09
cpu  time for SCC    0.00 s
wall time for SCC    0.00 s
speedup  0.99
cpu  time for grad    0.01 s
wall time for grad    0.01 s
 E :    -50.45999650  G :  0.000868    pred/act E change: -0.181D-05 -0.334D-05
Maxdispl :   0.0162   ||displ|| :   0.0320   Lambda : -0.224D-05
Largest |displ|/coords:  0.0162 (  10)  0.0159 (   1)  0.0103 (   7)
................................................................................
.............................. CYCLE  122 ......................................
................................................................................
   1    -50.7367865 -0.507368E+02  0.184E-02    9.06       0.0  T
   2    -50.7367866 -0.589491E-07  0.138E-02    9.06       1.4  T
   3    -50.7367867 -0.676779E-07  0.130E-03    9.05      15.1  T
   4    -50.7367867 -0.424176E-08  0.655E-04    9.05      30.0  T
   5    -50.7367867 -0.433857E-09  0.159E-04    9.05     123.2  T
speedup  1.09
cpu  time for SCC    0.00 s
wall time for SCC    0.00 s
speedup  0.99
cpu  time for grad    0.01 s
wall time for grad    0.01 s
 E :    -50.45999811  G :  0.000818    pred/act E change: -0.261D-05 -0.161D-05
Maxdispl :   0.0151   ||displ|| :   0.0331   Lambda : -0.230D-05
Largest |displ|/coords:  0.0151 (  10)  0.0151 (   1)  0.0132 (   7)
................................................................................
.............................. CYCLE  123 ......................................
................................................................................
   1    -50.7367818 -0.507368E+02  0.188E-02    9.06       0.0  T
   2    -50.7367818 -0.667055E-07  0.141E-02    9.06       1.4  T
   3    -50.7367819 -0.580773E-07  0.143E-03    9.05      13.7  T
   4    -50.7367819 -0.763476E-08  0.653E-04    9.05      30.0  T
   5    -50.7367819 -0.388503E-09  0.133E-04    9.05     147.3  T
speedup  0.89
cpu  time for SCC    0.00 s
wall time for SCC    0.00 s
speedup  0.99
cpu  time for grad    0.01 s
wall time for grad    0.01 s
 E :    -50.45999956  G :  0.000651    pred/act E change: -0.112D-05 -0.144D-05
Maxdispl :   0.0150   ||displ|| :   0.0236   Lambda : -0.119D-05
Largest |displ|/coords:  0.0150 (   1)  0.0106 (  10)  0.0061 (  16)
................................................................................
.............................. CYCLE  124 ......................................
................................................................................
   1    -50.7367455 -0.507367E+02  0.145E-02    9.06       0.0  T
   2    -50.7367455 -0.336098E-07  0.109E-02    9.05       1.8  T
   3    -50.7367456 -0.286290E-07  0.107E-03    9.05      18.3  T
   4    -50.7367456 -0.412830E-08  0.486E-04    9.05      40.4  T
   5    -50.7367456 -0.219778E-09  0.103E-04    9.05     189.8  T
speedup  1.04
cpu  time for SCC    0.00 s
wall time for SCC    0.00 s
speedup  0.98
cpu  time for grad    0.01 s
wall time for grad    0.01 s
 E :    -50.46000036  G :  0.000575    pred/act E change: -0.115D-05 -0.799D-06
Maxdispl :   0.0097   ||displ|| :   0.0152   Lambda : -0.817D-06
Largest |displ|/coords:  0.0097 (   1)  0.0048 (  10)  0.0043 (  16)
................................................................................
.............................. CYCLE  125 ......................................
................................................................................
   1    -50.7368307 -0.507368E+02  0.962E-03    9.06       0.0  T
   2    -50.7368307 -0.185435E-07  0.720E-03    9.06       2.7  T
   3    -50.7368307 -0.115610E-07  0.965E-04    9.06      20.3  T
   4    -50.7368307 -0.276116E-08  0.373E-04    9.06      52.6  T
speedup  1.08
cpu  time for SCC    0.00 s
wall time for SCC    0.00 s
speedup  0.98
cpu  time for grad    0.01 s
wall time for grad    0.01 s
 E :    -50.46000088  G :  0.000374    pred/act E change: -0.594D-06 -0.527D-06
Maxdispl :   0.0081   ||displ|| :   0.0110   Lambda : -0.321D-06
Largest |displ|/coords:  0.0081 (   1)  0.0038 (   3)  0.0027 (  10)
................................................................................
.............................. CYCLE  126 ......................................
................................................................................
   1    -50.7368547 -0.507369E+02  0.687E-03    9.06       0.0  T
   2    -50.7368548 -0.570957E-08  0.513E-03    9.06       3.8  T
   3    -50.7368548 -0.450355E-08  0.597E-04    9.06      32.9  T
   4    -50.7368548 -0.654161E-09  0.188E-04    9.06     104.4  T
speedup  1.11
cpu  time for SCC    0.00 s
wall time for SCC    0.00 s
speedup  0.98
cpu  time for grad    0.01 s
wall time for grad    0.01 s
 E :    -50.46000112  G :  0.000224    pred/act E change: -0.408D-06 -0.234D-06
Maxdispl :   0.0070   ||displ|| :   0.0103   Lambda : -0.223D-06
Largest |displ|/coords:  0.0070 (   1)  0.0033 (   3)  0.0030 (   7)
................................................................................
.............................. CYCLE  127 ......................................
................................................................................
   1    -50.7368776 -0.507369E+02  0.610E-03    9.06       0.0  T
   2    -50.7368776 -0.528219E-08  0.455E-03    9.06       4.3  T
   3    -50.7368776 -0.399241E-08  0.534E-04    9.06      36.7  T
   4    -50.7368776 -0.628482E-09  0.171E-04    9.06     114.7  T
speedup  1.08
cpu  time for SCC    0.00 s
wall time for SCC    0.00 s
speedup  0.98
cpu  time for grad    0.01 s
wall time for grad    0.01 s
 E :    -50.46000127  G :  0.000171    pred/act E change: -0.160D-06 -0.150D-06
Maxdispl :   0.0033   ||displ|| :   0.0057   Lambda : -0.925D-07
Largest |displ|/coords:  0.0033 (   1)  0.0025 (   8)  0.0022 (   7)
................................................................................
.............................. CYCLE  128 ......................................
................................................................................
   1    -50.7368656 -0.507369E+02  0.342E-03    9.06       0.0  T
   2    -50.7368656 -0.173969E-08  0.255E-03    9.06       7.7  T
   3    -50.7368656 -0.126731E-08  0.290E-04    9.06      67.7  T
   4    -50.7368656 -0.211628E-09  0.113E-04    9.06     172.9  T
speedup  1.08
cpu  time for SCC    0.00 s
wall time for SCC    0.00 s
speedup  0.98
cpu  time for grad    0.01 s
wall time for grad    0.01 s
 E :    -50.46000134  G :  0.000116    pred/act E change: -0.111D-06 -0.691D-07
Maxdispl :   0.0027   ||displ|| :   0.0045   Lambda : -0.605D-07
Largest |displ|/coords:  0.0027 (   8)  0.0021 (   7)  0.0014 (   1)

   *** GEOMETRY OPTIMIZATION CONVERGED AFTER 128 ITERATIONS ***

------------------------------------------------------------------------
 total energy gain (kcal):     -0.1043
------------------------------------------------------------------------
================
 final structure:
================
$coord
       -1.51465340695025       -1.25176224639711        0.37913574070132      S 
       -4.21941216315778       -0.50089207157443        1.29979666310218      O 
       -1.38154996717864       -0.50556759156810       -2.26959822822691      O 
        0.24880149706455        0.24761450733578        1.90966530246119      O 
       -1.15039603918412       -3.93444601573855        0.75945189751326      O 
        1.40600176520949        6.18989234998297       -1.94974115262201      O 
        1.61565680921731        6.47073632445010       -3.72854720309780      H 
        3.32494265259297       -0.67089175959962       -3.91165226755787      O 
        1.47465312229718       -0.60390200059081       -3.79021761632837      H 
       -3.11071489744720        4.11978648619096       -1.64541030376561      O 
       -2.63204818108014        2.38927017104795       -2.09861116115638      H 
       -0.36033163674954        5.61113621701702       -1.72442008924331      H 
       -4.11565271536824        3.94847056846483       -0.14647310959439      H 
        3.81779165412618        2.34376394705519       -0.32214489464208      O 
        3.87967718330174        1.12511827832620       -1.92384177956931      H 
        3.01059596131466        4.00403104014385       -0.91928588619484      H 
        2.42438657459999        1.49203461814468        0.78873199120205      H 
        3.27201650003455       -4.99975873616697       -1.36801180042022      O 
        1.68089049359656       -4.67781870507898       -0.46865306927085      H 
        3.04725510404649       -6.58631736862717       -2.21486169451634      H 
        3.73603060838360       -2.32929433161749       -3.17542627234099      H 
       -2.93174153405241       -2.45334545923997        5.61023934915088      N 
       -4.20741203143587       -1.11825973938155        3.08236552192563      H 
       -1.52783659792144       -1.24486312124229        6.09113259714878      H 
       -3.64916358691765       -3.23412974512039        7.20262598180063      H 
       -2.13778716822317       -3.83060559728440        4.53375146464153      H 
$end
 
 Bond Distances (Angstroems)
 ---------------------------
S1-O2=1.5633         S1-O3=1.4579         S1-O4=1.4684         S1-O5=1.4467         O2-S1=1.5633         O2-H23=0.9983        
O3-S1=1.4579         O4-S1=1.4684         O5-S1=1.4467         O6-H7=0.9594         O6-H12=0.9908        H7-O6=0.9594         
O8-H9=0.9819         O8-H21=0.9845        H9-O8=0.9819         O10-H11=0.9799       O10-H13=0.9593       H11-O10=0.9799       
H12-O6=0.9908        H13-O10=0.9593       O14-H15=1.0655       O14-H16=1.0267       O14-H17=1.0452       H15-O14=1.0655       
H16-O14=1.0267       H17-O14=1.0452       O18-H19=0.9821       O18-H20=0.9591       H19-O18=0.9821       H20-O18=0.9591       
H21-O8=0.9845        N22-H24=1.0127       N22-H25=1.0124       N22-H26=1.0160       H23-O2=0.9983        H24-N22=1.0127       
H25-N22=1.0124       H26-N22=1.0160       
 N  H  Rav=1.0137 sigma=0.0016  Rmin=1.0124  Rmax=1.0160     3
 O  H  Rav=0.9944 sigma=0.0330  Rmin=0.9591  Rmax=1.0655    12
 S  O  Rav=1.4841 sigma=0.0464  Rmin=1.4467  Rmax=1.5633     4
 
 selected bond angles (degree)
 --------------------
O3-S1-O2=105.96                O4-S1-O2=105.82                O4-S1-O3=110.68                O5-S1-O2=109.15                
O5-S1-O3=113.15                O5-S1-O4=111.64                H23-O2-S1=101.86               H12-O6-H7=105.96               
H21-O8-H9=103.10               H13-O10-H11=104.91             
 
 selected dihedral angles (degree)
 ---------------------------------
H23-O2-S1-O3=177.86           H23-O2-S1-O4=295.43           H23-O2-S1-O5= 55.71           
 
 CMA Distance (Angstroems)
 ---------------------------
R(CMA):  1.7583

========================================================================
 FINAL SINGLEPOINT CALCULATION ON OPTIMIZED GEOMETRY
========================================================================

 Ncao       : 65
 Nao        : 64
 Nshell     : 38
 Nel        : 80
 T(el)      :   300.0
 intcut     :    25.0
 scfconv/Eh :  0.100E-05
   qconv/e  :  0.100E-03
 intneglect :  0.100E-07
 broydamp   :      0.250
 iter      E             dE          RMSdq      gap      omega  full diag
   1    -50.7368656 -0.507369E+02  0.471E-05    9.06       0.0  T
   2    -50.7368656 -0.112976E-11  0.295E-05    9.06     664.0  T
   3    -50.7368656 -0.632383E-12  0.407E-06    9.06    4816.4  T
speedup  1.11
cpu  time for SCC    0.00 s
wall time for SCC    0.00 s

   *** convergence criteria satisfied after 3 iterations ***

          eigenvalues
 #    :          28         29         30         31         32         33         34         35
 occ. :        2.000      2.000      2.000      2.000      2.000      2.000      2.000      2.000
 eps  :       -13.714    -13.259    -12.622    -12.571    -12.420    -12.364    -12.263    -12.122
 #    :          36         37         38         39         40         41         42         43
 occ. :        2.000      2.000      2.000      2.000      2.000      0.000      0.000      0.000
 eps  :       -12.101    -12.025    -11.956    -11.823    -11.336     -2.279     -0.255     -0.104
 #    :          44         45         46         47         48         49         50         51
 occ. :        0.000      0.000      0.000      0.000      0.000      0.000      0.000      0.000
 eps  :         0.714      0.934      1.267      1.679      2.632      3.740      4.980      5.055


   #   Z            q   n(s)   n(p)   n(d)      C6AA      α(0)
   1  16 S      1.708  1.588  1.764  0.940    88.585    15.841
   2   8 O     -0.624  1.756  4.868  0.000    25.740     6.849
   3   8 O     -0.749  1.765  4.983  0.000    30.066     7.352
   4   8 O     -0.763  1.773  4.990  0.000    30.460     7.401
   5   8 O     -0.747  1.773  4.974  0.000    30.033     7.348
   6   8 O     -0.600  1.746  4.854  0.000    25.193     6.775
   7   1 H      0.298  0.702  0.000  0.000     0.728     1.340
   8   8 O     -0.606  1.755  4.851  0.000    25.303     6.791
   9   1 H      0.331  0.669  0.000  0.000     0.636     1.253
  10   8 O     -0.612  1.737  4.875  0.000    25.474     6.812
  11   1 H      0.320  0.680  0.000  0.000     0.663     1.279
  12   1 H      0.345  0.655  0.000  0.000     0.600     1.217
  13   1 H      0.295  0.705  0.000  0.000     0.735     1.347
  14   8 O     -0.511  1.730  4.781  0.000    23.061     6.486
  15   1 H      0.384  0.616  0.000  0.000     0.513     1.124
  16   1 H      0.383  0.617  0.000  0.000     0.518     1.130
  17   1 H      0.387  0.613  0.000  0.000     0.507     1.116
  18   8 O     -0.614  1.743  4.870  0.000    25.515     6.817
  19   1 H      0.320  0.680  0.000  0.000     0.664     1.280
  20   1 H      0.290  0.710  0.000  0.000     0.752     1.362
  21   1 H      0.337  0.663  0.000  0.000     0.619     1.236
  22   7 N     -0.457  1.364  4.093  0.000    32.035     8.406
  23   1 H      0.359  0.641  0.000  0.000     0.559     1.170
  24   1 H      0.173  0.827  0.000  0.000     1.253     1.753
  25   1 H      0.169  0.831  0.000  0.000     1.278     1.771
  26   1 H      0.184  0.816  0.000  0.000     1.194     1.712

 Mol. C6AA /au·bohr⁶  :       5481.860938
 Mol. C8AA /au·bohr⁸  :     118435.950107
 Mol. α(0) /au        :        106.965685

 
 Wiberg/Mayer (AO) data. WBOs > 0.1 written file <wbo>
 largest (>0.05) Wiberg bond orders for each atom
           total WBO             WBO to atom ...
     1  S   4.812    O    5 1.311    O    3 1.289    O    4 1.231    O    2 0.941
     2  O   1.960    S    1 0.941    H   23 0.738    O    5 0.081    O    4 0.074    O    3 0.064
     3  O   1.732    S    1 1.289    O    5 0.106    O    4 0.105    O    2 0.064    H   11 0.061    H    9 0.052
     4  O   1.722    S    1 1.231    H   17 0.153    O    3 0.105    O    5 0.105    O    2 0.074
     5  O   1.719    S    1 1.311    O    3 0.106    O    4 0.105    O    2 0.081    H   19 0.061
     6  O   1.936    H    7 0.908    H   12 0.802    H   16 0.136    O   14 0.050
     7  H   0.911    O    6 0.908
     8  O   1.989    H    9 0.834    H   21 0.823    H   15 0.201    O   14 0.070
     9  H   0.891    O    8 0.834    O    3 0.052
    10  O   1.879    H   13 0.904    H   11 0.833    H   12 0.077
    11  H   0.897    O   10 0.833    O    3 0.061
    12  H   0.881    O    6 0.802    O   10 0.077
    13  H   0.913    O   10 0.904
    14  O   2.238    H   16 0.714    H   17 0.688    H   15 0.649    O    8 0.070    O    6 0.050
    15  H   0.853    O   14 0.649    O    8 0.201
    16  H   0.853    O   14 0.714    O    6 0.136
    17  H   0.850    O   14 0.688    O    4 0.153
    18  O   1.865    H   20 0.912    H   19 0.833    H   21 0.061
    19  H   0.897    O   18 0.833    O    5 0.061
    20  H   0.916    O   18 0.912
    21  H   0.886    O    8 0.823    O   18 0.061
    22  N   3.055    H   24 0.967    H   25 0.965    H   26 0.950    H   23 0.116
    23  H   0.871    O    2 0.738    N   22 0.116
    24  H   0.970    N   22 0.967
    25  H   0.971    N   22 0.965
    26  H   0.966    N   22 0.950
 MOs/occ written to file <molden.input>
 
molecular dipole:
                 x           y           z       tot (Debye)
 q only:        0.438       0.544       0.386
   full:       -0.269      -0.230       0.740       2.086
molecular quadrupole (traceless):
                xx          xy          yy          xz          yz          zz
 q only:       -4.982       2.032      -0.350      -8.536      -4.027       5.332
  q+dip:      -10.447       1.254       1.304      -7.690      -5.577       9.143
   full:      -10.356       1.252       1.143      -8.470      -5.572       9.213

SCC energy    :     -50.7368656
rep           :       0.2766490
ES            :       0.2437144
AES           :      -0.0703176
AXC           :      -0.0078528
disp          :      -0.0194220
XB            :       0.0000000
fix           :       0.0000000
total E       :     -50.4600013
atomizationE  :       4.9903055     3131.46
(atE without considering molecular charge,
 total energy contains solvation terms)
H-L gap (eV)  :          9.0572
optimized geometry written to: xtbopt.xyz


------------------------------------------------------------------------
 * finished run on 2019/09/16 at 11:52:18.952     
------------------------------------------------------------------------
 total:
 * wall-time:     0 d,  0 h,  0 min,  2.843 sec
 *  cpu-time:     0 d,  0 h,  0 min,  2.747 sec
 * ratio c/w:     0.966 speedup
 SCF:
 * wall-time:     0 d,  0 h,  0 min,  0.136 sec
 *  cpu-time:     0 d,  0 h,  0 min,  0.133 sec
 * ratio c/w:     0.975 speedup
 ANC optimizer:
 * wall-time:     0 d,  0 h,  0 min,  2.624 sec
 *  cpu-time:     0 d,  0 h,  0 min,  2.592 sec
 * ratio c/w:     0.988 speedup

