      -----------------------------------------------------------      
     |                   =====================                   |     
     |                           x T B                           |     
     |                   =====================                   |     
     |                         S. Grimme                         |     
     |          Mulliken Center for Theoretical Chemistry        |     
     |                    University of Bonn                     |     
     |                 Version 6.0.1 (SAW181210)                 |     
      -----------------------------------------------------------      

   This program is distributed in the hope that it will be useful,
   but WITHOUT ANY WARRANTY; without even the implied warranty of
   MERCHANTABILITY or FITNESS FOR A PARTICULAR PURPOSE.
   
   FOR NON-COMMERCIAL, ACADEMIA USE ONLY.
   
   Cite this work as:
   S. Grimme, C. Bannwarth, P. Shushkov, J. Comput. Theory Chem., 2017,
   13, 1989-2009.
   C. Bannwarth, S. Ehlert and S. Grimme., ChemRxiv, 2018, preprint.
   http://doi.org/10.26434/chemrxiv.7246238.v1
   
   for sTDA-xTB:
   S. Grimme and C. Bannwarth, J. Chem. Phys., 2016, 145, 054103.
   
   in the mass-spec context:
   V. Asgeirsson, C. Bauer and S. Grimme, Chem. Sci., 2017, 8, 4879.
   
   if GBSA is used:
   P. Shushkov, F. März and S. Grimme, unpublished.
   
   for ANC optimizer:
   S. Grimme, unpublished.
   Rational Function algorithm used in ANCopt:
   F. Eckert, P. Pulay, H.-J. Werner, J. Comput. Chem., 1997, 18, 1473.
   
   with help from (in alphabetical order)
   C. Bannwarth, F. Bohle, G. Brandenburg, E. Caldeweyher, M. Checinski,
   S. Dohm, S. Ehlert, S. Ehrlich, F. März, H. Neugebauer, J. Pisarek,
   P. Pracht, P. Shushkov, and S. Spicher.
   
 * started run on 2019/09/16 at 11:37:10.027     
========================================================================
 # omp threads = 1
========================================================================
number of atoms            : 23
number of electrons        : 72
charge                     : 0
spin                       : .0
first test random number   : .5641

########################################################################
# WARNING! Please study the warnings concerning your input carefully
#  - XTBPATH is not set, using XTBHOME instead
#  - the use of '-opt' is discouraged, please use '--opt' next time
#  - the use of '-chrg' is discouraged, please use '--chrg' next time
#  - the use of '-uhf' is discouraged, please use '--uhf' next time
########################################################################

           ------------------------------------------------- 
          |                 G F N 2 - x T B                 |
          | Geometry, Frequencies, Noncovalent interactions |
          |            JCTC 2018 parametrisation            |
           ------------------------------------------------- 
      method parameters     
 k(s)        :  1.8500
 k(p)        :  2.2300
 k(d)        :  2.2300
 k(f)        :  2.0000
 kEN (H0ij)  : -2.0000
 D4 a1       :  0.5200
 D4 a2       :  5.0000
 D4 s6       :  1.0000
 D4 s8       :  2.7000
 D4 s9       :  5.0000
 alphaj      :  2.0000


            Z     q(EN)     CN     RAES       Cart. coordinates
     1  S   6.0    0.67    4.12    3.90    -1.49812     1.49373    -0.05844
     2  O   6.0   -0.29    1.17    1.80    -3.65748     3.21680    -0.60279
     3  O   6.0   -0.32    1.26    1.80     0.40360     1.69021    -2.12556
     4  O   6.0   -0.32    1.20    1.80    -0.30669     2.22523     2.38564
     5  O   6.0   -0.31    1.21    1.80    -2.43191    -1.15734     0.10895
     6  O   6.0   -0.28    2.05    1.83     4.37972     0.23450     1.31023
     7  H   1.0    0.15    0.98    1.43     4.35713     0.94532    -0.36573
     8  H   1.0    0.17    1.06    1.44     2.79952     0.73176     2.06543
     9  O   6.0   -0.28    1.96    1.82     6.09734    -3.50467    -1.46196
    10  H   1.0    0.16    1.06    1.44     5.52849    -2.22001    -0.30409
    11  H   1.0    0.15    0.97    1.43     6.67652    -4.87564    -0.41335
    12  O   6.0   -0.29    2.06    1.83    -2.08214    -5.34688    -2.42733
    13  H   1.0    0.18    1.05    1.44    -2.43571    -4.09585    -1.15277
    14  H   1.0    0.15    0.97    1.43    -2.66659    -6.92362    -1.72953
    15  O   6.0   -0.22    2.89    2.52     1.27118    -2.37807    -4.43964
    16  H   1.0    0.14    1.06    1.44    -0.06036    -3.55489    -3.86351
    17  H   1.0    0.15    1.09    1.44     0.82622    -0.59597    -4.09884
    18  H   1.0    0.13    0.98    1.43     2.94745    -2.82482    -3.74535
    19  N   5.0   -0.14    3.92    2.67    -4.02963     5.38804     4.18373
    20  H   1.0    0.11    1.06    1.44    -4.29390     4.91346     2.31574
    21  H   1.0    0.10    1.00    1.43    -2.41486     4.53064     4.84843
    22  H   1.0    0.08    0.99    1.43    -3.85145     7.31864     4.34335
    23  H   1.0    0.08    0.99    1.43    -5.55831     4.78942     5.22739

  Z AO/shell   Hii/eV     exponent
  1     Wed Apr 25 08:07:45 CEST 2018   EN: 2.200 GM2: 0.406  GM3: 0.0800  RAES: 1.40
     1s    -10.707211    1.230000
  7     Wed Apr 25 08:07:45 CEST 2018   EN: 3.040 GM2: 0.461  GM3:-0.0640  RAES: 1.90
     2s    -16.686243    2.339881
     2p    -12.523956    2.014332
  8     Wed Apr 25 08:07:45 CEST 2018   EN: 3.440 GM2: 0.452  GM3:-0.0517  RAES: 1.80
     2s    -20.229985    2.439742
     2p    -15.503117    2.137023
 16     Tue Apr 24 11:44:34 CEST 2018   EN: 2.580 GM2: 0.340  GM3:-0.0502  RAES: 3.10
     3s    -20.029654    1.981333
     3p    -11.377694    2.025643
     3d     -0.420282    1.702555
 no old-style atom pair restraining (fixing) potential

molecular fragmentation (1/2 indicates fragments):
11111222222222222222222
# atoms in fragment 1/2:     5    18
 fragment masses (1/2) :       96.06       91.11
CMA distance (Bohr)    :   3.720
constraining FC (au)   :  0.0500
           ------------------------------------------------- 
          |        Self-Consistent Charge Iterations        |
           ------------------------------------------------- 

 Ncao       : 59
 Nao        : 58
 Nshell     : 34
 Nel        : 72
 T(el)      :   300.0
 intcut     :    25.0
 scfconv/Eh :  0.100E-05
   qconv/e  :  0.100E-03
 intneglect :  0.100E-07
 broydamp   :      0.250
 iter      E             dE          RMSdq      gap      omega  full diag
   1    -45.4682244 -0.454682E+02  0.714E+00   10.44       0.0  T
   2    -45.5046409 -0.364165E-01  0.514E+00    9.99       1.0  T
   3    -45.5361245 -0.314836E-01  0.110E+00    6.75       1.0  T
   4    -45.5394854 -0.336091E-02  0.546E-01    6.76       1.0  T
   5    -45.5402784 -0.792985E-03  0.220E-01    6.63       1.0  T
   6    -45.5404664 -0.188012E-03  0.117E-01    6.66       1.0  T
   7    -45.5405389 -0.724926E-04  0.427E-02    6.73       1.0  T
   8    -45.5405453 -0.635352E-05  0.245E-02    6.73       1.0  T
   9    -45.5405483 -0.307003E-05  0.870E-03    6.73       2.4  T
  10    -45.5405486 -0.288582E-06  0.171E-03    6.72      12.2  T
  11    -45.5405486 -0.125377E-07  0.821E-04    6.72      25.4  T
  12    -45.5405486 -0.312710E-08  0.317E-04    6.72      65.9  T
speedup  0.96
cpu  time for SCC    0.01 s
wall time for SCC    0.01 s

   *** convergence criteria satisfied after 12 iterations ***

          eigenvalues
 #    :          24         25         26         27         28         29         30         31
 occ. :        2.000      2.000      2.000      2.000      2.000      2.000      2.000      2.000
 eps  :       -11.816    -11.768    -11.697    -11.654    -11.042    -10.354    -10.157     -9.706
 #    :          32         33         34         35         36         37         38         39
 occ. :        2.000      2.000      2.000      2.000      2.000      0.000      0.000      0.000
 eps  :        -9.443     -9.415     -9.325     -9.158     -9.013     -2.290     -0.979      0.787
 #    :          40         41         42         43         44         45         46         47
 occ. :        0.000      0.000      0.000      0.000      0.000      0.000      0.000      0.000
 eps  :         2.143      2.234      2.693      2.739      3.131      3.310      3.989      4.754


   #   Z            q   n(s)   n(p)   n(d)      C6AA      α(0)
   1  16 S      1.455  1.608  1.924  1.012    94.546    16.365
   2   8 O     -0.786  1.781  5.005  0.000    31.156     7.484
   3   8 O     -0.787  1.772  5.015  0.000    31.178     7.486
   4   8 O     -0.808  1.780  5.028  0.000    31.823     7.563
   5   8 O     -0.796  1.778  5.018  0.000    31.449     7.519
   6   8 O     -0.619  1.739  4.880  0.000    25.653     6.836
   7   1 H      0.298  0.702  0.000  0.000     0.728     1.340
   8   1 H      0.325  0.675  0.000  0.000     0.650     1.266
   9   8 O     -0.633  1.743  4.890  0.000    25.988     6.880
  10   1 H      0.331  0.669  0.000  0.000     0.634     1.251
  11   1 H      0.274  0.726  0.000  0.000     0.804     1.409
  12   8 O     -0.621  1.728  4.893  0.000    25.702     6.842
  13   1 H      0.346  0.654  0.000  0.000     0.598     1.215
  14   1 H      0.286  0.714  0.000  0.000     0.763     1.372
  15   8 O     -0.409  1.641  4.769  0.000    20.973     6.185
  16   1 H      0.421  0.579  0.000  0.000     0.448     1.051
  17   1 H      0.416  0.584  0.000  0.000     0.456     1.060
  18   1 H      0.399  0.601  0.000  0.000     0.487     1.096
  19   7 N     -0.244  1.233  4.010  0.000    26.339     7.622
  20   1 H      0.325  0.675  0.000  0.000     0.643     1.256
  21   1 H      0.306  0.694  0.000  0.000     0.695     1.306
  22   1 H      0.259  0.741  0.000  0.000     0.851     1.445
  23   1 H      0.260  0.740  0.000  0.000     0.847     1.442

 Mol. C6AA /au·bohr⁶  :       4526.848646
 Mol. C8AA /au·bohr⁸  :     100334.278249
 Mol. α(0) /au        :         97.292674

 
 Wiberg/Mayer (AO) data. WBOs > 0.1 written file <wbo>
 largest (>0.05) Wiberg bond orders for each atom
           total WBO             WBO to atom ...
     1  S   5.041    O    5 1.270    O    2 1.261    O    4 1.249    O    3 1.228
     2  O   1.673    S    1 1.261    O    4 0.100    O    5 0.095    O    3 0.088    H   20 0.084
     3  O   1.687    S    1 1.228    H   17 0.122    O    5 0.100    O    2 0.088    O    4 0.087
     4  O   1.643    S    1 1.249    O    2 0.100    O    5 0.094    O    3 0.087
     5  O   1.646    S    1 1.270    O    3 0.100    O    2 0.095    O    4 0.094    H   13 0.061
     6  O   1.856    H    7 0.899    H    8 0.840    H   10 0.061
     7  H   0.911    O    6 0.899
     8  H   0.894    O    6 0.840
     9  O   1.815    H   11 0.922    H   10 0.824
    10  H   0.890    O    9 0.824    O    6 0.061
    11  H   0.925    O    9 0.922
    12  O   1.858    H   14 0.903    H   13 0.814    H   16 0.081
    13  H   0.880    O   12 0.814    O    5 0.061
    14  H   0.918    O   12 0.903
    15  O   2.333    H   18 0.810    H   16 0.732    H   17 0.696
    16  H   0.823    O   15 0.732    O   12 0.081
    17  H   0.827    O   15 0.696    O    3 0.122
    18  H   0.841    O   15 0.810
    19  N   3.592    H   22 0.928    H   23 0.928    H   21 0.875    H   20 0.801
    20  H   0.894    N   19 0.801    O    2 0.084
    21  H   0.906    N   19 0.875
    22  H   0.933    N   19 0.928
    23  H   0.933    N   19 0.928
 MOs/occ written to file <molden.input>
 
molecular dipole:
                 x           y           z       tot (Debye)
 q only:       -1.077       0.793       1.812
   full:       -1.357       0.895       2.367       7.298
molecular quadrupole (traceless):
                xx          xy          yy          xz          yz          zz
 q only:      -16.523     -20.915      14.112     -25.174      31.686       2.411
  q+dip:      -16.725     -19.942      17.769     -24.502      28.722      -1.044
   full:      -16.970     -20.139      18.050     -24.706      28.659      -1.080

SCC energy    :     -45.5405486
rep           :       0.2625534
ES            :       0.3646235
AES           :      -0.0743173
AXC           :      -0.0094806
disp          :      -0.0150302
XB            :       0.0000000
fix           :       0.0000000
total E       :     -45.2779339
atomizationE  :       4.3609964     2736.57
(atE without considering molecular charge,
 total energy contains solvation terms)
H-L gap (eV)  :          6.7227
           ------------------------------------------------- 
          |                 ===============                 |
          |                   A N C O P T                   |
          |                 ===============                 |
          |          Approximate Normal Coordinate          |
          |           Rational Function Optimizer           |
           ------------------------------------------------- 
dumping coords to <xtbopt.coord> and <xtbopt.log>
 optlevel               2
 Maxcycle             460
 Maxmicro              25
 Econv         1.000000000000000E-007
 Gconv         2.000000000000000E-004
 Maxdispl       1.00000000000000     
 Hlow          5.000000000000000E-003
 S6             20.0000000000000     
 Nvar               63

generating ANC from model Hessian ...
 Shifting diagonal of input Hessian by   4.965172743852457E-003
 Lowest  eigenvalues of input Hessian
   -0.000000   -0.000000   -0.000000   -0.000000   -0.000000   -0.000000
    0.005000    0.005097    0.005396    0.005653    0.005854    0.005925
    0.006192    0.006639    0.006751    0.007156    0.007459    0.007810
 Highest eigenvalues
    1.431168    1.548009    1.562026    3.072118    3.079616    3.085113
 
cpu  time for ANC gen    0.01 s
wall time for ANC gen    0.01 s
................................................................................
.............................. CYCLE    1 ......................................
................................................................................
   1    -45.5405486 -0.455405E+02  0.559E-05    6.72       0.0  T
   2    -45.5405486 -0.621014E-11  0.439E-05    6.72     474.8  T
   3    -45.5405486 -0.554934E-11  0.196E-05    6.72    1061.2  T
speedup  0.83
cpu  time for SCC    0.00 s
wall time for SCC    0.00 s
speedup  0.99
cpu  time for grad    0.01 s
wall time for grad    0.01 s
 E :    -45.27793394  G :  0.120877    pred/act E change:  0.000D+00  0.389D-08
Maxdispl :   0.2855   ||displ|| :   0.6216   Lambda : -0.337D-01
Largest |displ|/coords:  0.2855 (  14)  0.2048 (  20)  0.1843 (  25)
................................................................................
.............................. CYCLE    2 ......................................
................................................................................
   1    -45.5507848 -0.455508E+02  0.469E-01    7.13       0.0  T
   2    -45.5511511 -0.366350E-03  0.346E-01    7.27       1.0  T
   3    -45.5512973 -0.146118E-03  0.105E-01    7.54       1.0  T
   4    -45.5513331 -0.357992E-04  0.314E-02    7.54       1.0  T
   5    -45.5513343 -0.125320E-05  0.995E-03    7.54       2.1  T
   6    -45.5513345 -0.172476E-06  0.494E-03    7.53       4.2  T
   7    -45.5513345 -0.672497E-07  0.223E-03    7.53       9.4  T
speedup  0.94
cpu  time for SCC    0.00 s
wall time for SCC    0.01 s
speedup  0.96
cpu  time for grad    0.01 s
wall time for grad    0.01 s
 E :    -45.30814838  G :  0.082687    pred/act E change:  0.000D+00 -0.302D-01
Maxdispl :   0.2102   ||displ|| :   0.6542   Lambda : -0.270D-01
Largest |displ|/coords:  0.2102 (  16)  0.2053 (  20)  0.2000 (  25)
................................................................................
.............................. CYCLE    3 ......................................
................................................................................
   1    -45.5626394 -0.455626E+02  0.421E-01    8.03       0.0  T
   2    -45.5634985 -0.859053E-03  0.293E-01    8.18       1.0  T
   3    -45.5638254 -0.326877E-03  0.134E-01    8.38       1.0  T
   4    -45.5638515 -0.261543E-04  0.373E-02    8.44       1.0  T
   5    -45.5638532 -0.167606E-05  0.136E-02    8.44       1.5  T
   6    -45.5638535 -0.335917E-06  0.637E-03    8.44       3.3  T
   7    -45.5638537 -0.128933E-06  0.295E-03    8.44       7.1  T
   8    -45.5638537 -0.420330E-07  0.997E-04    8.44      20.9  T
speedup  1.00
cpu  time for SCC    0.01 s
wall time for SCC    0.01 s
speedup  0.98
cpu  time for grad    0.01 s
wall time for grad    0.01 s
 E :    -45.33043753  G :  0.062935    pred/act E change: -0.233D-01 -0.223D-01
Maxdispl :   0.2251   ||displ|| :   0.6052   Lambda : -0.155D-01
Largest |displ|/coords:  0.2251 (  14)  0.1750 (  20)  0.1653 (   9)
................................................................................
.............................. CYCLE    4 ......................................
................................................................................
   1    -45.5708539 -0.455709E+02  0.362E-01    8.69       0.0  T
   2    -45.5716940 -0.840061E-03  0.247E-01    8.75       1.0  T
   3    -45.5720065 -0.312573E-03  0.124E-01    8.83       1.0  T
   4    -45.5720263 -0.198105E-04  0.352E-02    8.87       1.0  T
   5    -45.5720281 -0.176899E-05  0.122E-02    8.87       1.7  T
   6    -45.5720284 -0.268310E-06  0.572E-03    8.86       3.6  T
   7    -45.5720285 -0.970330E-07  0.250E-03    8.86       8.3  T
speedup  0.96
cpu  time for SCC    0.00 s
wall time for SCC    0.01 s
speedup  1.03
cpu  time for grad    0.01 s
wall time for grad    0.01 s
 E :    -45.34187750  G :  0.050815    pred/act E change: -0.193D-01 -0.114D-01
Maxdispl :   0.2098   ||displ|| :   0.4854   Lambda : -0.683D-02
Largest |displ|/coords:  0.2098 (   9)  0.1831 (   5)  0.1370 (  11)
................................................................................
.............................. CYCLE    5 ......................................
................................................................................
   1    -45.5797015 -0.455797E+02  0.289E-01    9.01       0.0  T
   2    -45.5799070 -0.205450E-03  0.210E-01    9.03       1.0  T
   3    -45.5799879 -0.809565E-04  0.734E-02    9.08       1.0  T
   4    -45.5800021 -0.141491E-04  0.152E-02    9.09       1.4  T
   5    -45.5800030 -0.912254E-06  0.581E-03    9.09       3.6  T
   6    -45.5800031 -0.786302E-07  0.303E-03    9.08       6.9  T
speedup  1.09
cpu  time for SCC    0.01 s
wall time for SCC    0.00 s
speedup  1.00
cpu  time for grad    0.01 s
wall time for grad    0.01 s
 E :    -45.34643787  G :  0.034126    pred/act E change: -0.106D-01 -0.456D-02
Maxdispl :   0.1725   ||displ|| :   0.5554   Lambda : -0.561D-02
Largest |displ|/coords:  0.1725 (  16)  0.1705 (   6)  0.1683 (  23)
................................................................................
.............................. CYCLE    6 ......................................
................................................................................
   1    -45.5769333 -0.455769E+02  0.482E-01    9.23       0.0  T
   2    -45.5775238 -0.590501E-03  0.350E-01    9.27       1.0  T
   3    -45.5777303 -0.206547E-03  0.129E-01    9.34       1.0  T
   4    -45.5777729 -0.426002E-04  0.219E-02    9.35       1.0  T
   5    -45.5777744 -0.146446E-05  0.945E-03    9.34       2.2  T
   6    -45.5777746 -0.226276E-06  0.462E-03    9.34       4.5  T
   7    -45.5777746 -0.377216E-07  0.152E-03    9.34      13.7  T
speedup  0.96
cpu  time for SCC    0.00 s
wall time for SCC    0.01 s
speedup  1.02
cpu  time for grad    0.01 s
wall time for grad    0.01 s
 E :    -45.34758422  G :  0.043318    pred/act E change: -0.422D-02 -0.115D-02
Maxdispl :   0.2503   ||displ|| :   0.4221   Lambda : -0.692D-02
Largest |displ|/coords:  0.2503 (  15)  0.1393 (  16)  0.1378 (   5)
................................................................................
.............................. CYCLE    7 ......................................
................................................................................
   1    -45.5876530 -0.455877E+02  0.504E-01    9.44       0.0  T
   2    -45.5879131 -0.260099E-03  0.378E-01    9.45       1.0  T
   3    -45.5880093 -0.961896E-04  0.949E-02    9.48       1.0  T
   4    -45.5880498 -0.405207E-04  0.210E-02    9.49       1.0  T
   5    -45.5880508 -0.998056E-06  0.756E-03    9.48       2.8  T
   6    -45.5880509 -0.698112E-07  0.388E-03    9.48       5.4  T
   7    -45.5880509 -0.175989E-07  0.118E-03    9.48      17.7  T
speedup  1.11
cpu  time for SCC    0.01 s
wall time for SCC    0.01 s
speedup  1.02
cpu  time for grad    0.01 s
wall time for grad    0.01 s
 E :    -45.34952931  G :  0.032426    pred/act E change: -0.367D-02 -0.195D-02
Maxdispl :   0.1939   ||displ|| :   0.4104   Lambda : -0.498D-02
Largest |displ|/coords:  0.1939 (  16)  0.1210 (   3)  0.1140 (  26)
................................................................................
.............................. CYCLE    8 ......................................
................................................................................
   1    -45.5951278 -0.455951E+02  0.319E-01    9.50       0.0  T
   2    -45.5953312 -0.203447E-03  0.229E-01    9.49       1.0  T
   3    -45.5953984 -0.672351E-04  0.779E-02    9.47       1.0  T
   4    -45.5954142 -0.157973E-04  0.173E-02    9.47       1.2  T
   5    -45.5954146 -0.395781E-06  0.582E-03    9.47       3.6  T
   6    -45.5954147 -0.648522E-07  0.287E-03    9.47       7.3  T
speedup  1.06
cpu  time for SCC    0.01 s
wall time for SCC    0.00 s
speedup  0.99
cpu  time for grad    0.01 s
wall time for grad    0.01 s
 E :    -45.35036235  G :  0.034357    pred/act E change: -0.408D-02 -0.833D-03
Maxdispl :   0.1233   ||displ|| :   0.3138   Lambda : -0.351D-02
Largest |displ|/coords:  0.1233 (   2)  0.0988 (   9)  0.0853 (   7)
................................................................................
.............................. CYCLE    9 ......................................
................................................................................
   1    -45.5927807 -0.455928E+02  0.361E-01    9.48       0.0  T
   2    -45.5928919 -0.111196E-03  0.271E-01    9.48       1.0  T
   3    -45.5929386 -0.467283E-04  0.619E-02    9.49       1.0  T
   4    -45.5929549 -0.163194E-04  0.193E-02    9.50       1.1  T
   5    -45.5929556 -0.722565E-06  0.550E-03    9.50       3.8  T
   6    -45.5929557 -0.343406E-07  0.298E-03    9.50       7.0  T
speedup  1.09
cpu  time for SCC    0.00 s
wall time for SCC    0.00 s
speedup  1.00
cpu  time for grad    0.01 s
wall time for grad    0.01 s
 E :    -45.35210906  G :  0.031813    pred/act E change: -0.291D-02 -0.175D-02
Maxdispl :   0.1856   ||displ|| :   0.4341   Lambda : -0.391D-02
Largest |displ|/coords:  0.1856 (   5)  0.1570 (   7)  0.1335 (   2)
................................................................................
.............................. CYCLE   10 ......................................
................................................................................
   1    -45.5969158 -0.455969E+02  0.348E-01    9.43       0.0  T
   2    -45.5972365 -0.320695E-03  0.256E-01    9.43       1.0  T
   3    -45.5973739 -0.137415E-03  0.101E-01    9.43       1.0  T
   4    -45.5973967 -0.228402E-04  0.256E-02    9.44       1.0  T
   5    -45.5973977 -0.951990E-06  0.103E-02    9.44       2.0  T
   6    -45.5973978 -0.991527E-07  0.444E-03    9.44       4.7  T
   7    -45.5973978 -0.357671E-07  0.131E-03    9.44      15.9  T
speedup  0.96
cpu  time for SCC    0.00 s
wall time for SCC    0.01 s
speedup  1.03
cpu  time for grad    0.01 s
wall time for grad    0.01 s
 E :    -45.35242896  G :  0.035667    pred/act E change: -0.193D-02 -0.320D-03
Maxdispl :   0.1370   ||displ|| :   0.2768   Lambda : -0.386D-02
Largest |displ|/coords:  0.1370 (   3)  0.1056 (  15)  0.0780 (  26)
................................................................................
.............................. CYCLE   11 ......................................
................................................................................
   1    -45.5963690 -0.455964E+02  0.215E-01    9.47       0.0  T
   2    -45.5964023 -0.332800E-04  0.159E-01    9.47       1.0  T
   3    -45.5964180 -0.156912E-04  0.382E-02    9.48       1.0  T
   4    -45.5964223 -0.431695E-05  0.935E-03    9.48       2.2  T
   5    -45.5964224 -0.146751E-06  0.279E-03    9.48       7.5  T
   6    -45.5964224 -0.122479E-07  0.159E-03    9.48      13.1  T
speedup  0.87
cpu  time for SCC    0.00 s
wall time for SCC    0.00 s
speedup  0.91
cpu  time for grad    0.01 s
wall time for grad    0.01 s
 E :    -45.35466577  G :  0.022847    pred/act E change: -0.232D-02 -0.224D-02
Maxdispl :   0.2075   ||displ|| :   0.4677   Lambda : -0.321D-02
Largest |displ|/coords:  0.2075 (   2)  0.2050 (   3)  0.1471 (  18)
................................................................................
.............................. CYCLE   12 ......................................
................................................................................
   1    -45.6081357 -0.456081E+02  0.349E-01    9.50       0.0  T
   2    -45.6082528 -0.117166E-03  0.262E-01    9.49       1.0  T
   3    -45.6083064 -0.535365E-04  0.631E-02    9.47       1.0  T
   4    -45.6083219 -0.155441E-04  0.224E-02    9.48       1.0  T
   5    -45.6083229 -0.952949E-06  0.652E-03    9.48       3.2  T
   6    -45.6083229 -0.491303E-07  0.344E-03    9.48       6.1  T
   7    -45.6083229 -0.150664E-07  0.978E-04    9.48      21.3  T
speedup  0.93
cpu  time for SCC    0.00 s
wall time for SCC    0.01 s
speedup  1.02
cpu  time for grad    0.01 s
wall time for grad    0.01 s
 E :    -45.35544483  G :  0.046494    pred/act E change: -0.208D-02 -0.779D-03
Maxdispl :   0.1631   ||displ|| :   0.4464   Lambda : -0.375D-02
Largest |displ|/coords:  0.1631 (   3)  0.1524 (  17)  0.1348 (   5)
................................................................................
.............................. CYCLE   13 ......................................
................................................................................
   1    -45.6089815 -0.456090E+02  0.407E-01    9.43       0.0  T
   2    -45.6091054 -0.123929E-03  0.306E-01    9.38       1.0  T
   3    -45.6091760 -0.705961E-04  0.643E-02    9.23       1.0  T
   4    -45.6091941 -0.181353E-04  0.187E-02    9.25       1.1  T
   5    -45.6091947 -0.537227E-06  0.794E-03    9.25       2.6  T
   6    -45.6091947 -0.578896E-07  0.392E-03    9.25       5.3  T
   7    -45.6091948 -0.212763E-07  0.100E-03    9.25      20.8  T
speedup  1.13
cpu  time for SCC    0.01 s
wall time for SCC    0.01 s
speedup  1.03
cpu  time for grad    0.01 s
wall time for grad    0.01 s
 E :    -45.35725011  G :  0.026247    pred/act E change: -0.196D-02 -0.181D-02
Maxdispl :   0.1462   ||displ|| :   0.3833   Lambda : -0.307D-02
Largest |displ|/coords:  0.1462 (   3)  0.1273 (   4)  0.1192 (  18)
................................................................................
.............................. CYCLE   14 ......................................
................................................................................
   1    -45.6114594 -0.456115E+02  0.252E-01    9.15       0.0  T
   2    -45.6114959 -0.364981E-04  0.187E-01    9.16       1.0  T
   3    -45.6115157 -0.197730E-04  0.367E-02    9.18       1.0  T
   4    -45.6115206 -0.492347E-05  0.162E-02    9.17       1.3  T
   5    -45.6115209 -0.285536E-06  0.374E-03    9.17       5.6  T
   6    -45.6115209 -0.197893E-07  0.235E-03    9.17       8.9  T
speedup  0.85
cpu  time for SCC    0.00 s
wall time for SCC    0.00 s
speedup  0.99
cpu  time for grad    0.01 s
wall time for grad    0.01 s
 E :    -45.35815739  G :  0.023987    pred/act E change: -0.225D-02 -0.907D-03
Maxdispl :   0.1746   ||displ|| :   0.3369   Lambda : -0.169D-02
Largest |displ|/coords:  0.1746 (   5)  0.1575 (   3)  0.1299 (   2)
................................................................................
.............................. CYCLE   15 ......................................
................................................................................
   1    -45.6098106 -0.456098E+02  0.250E-01    9.05       0.0  T
   2    -45.6098540 -0.434329E-04  0.186E-01    9.01       1.0  T
   3    -45.6098811 -0.271054E-04  0.423E-02    8.93       1.0  T
   4    -45.6098865 -0.543141E-05  0.132E-02    8.94       1.6  T
   5    -45.6098868 -0.242281E-06  0.473E-03    8.94       4.4  T
   6    -45.6098868 -0.320743E-07  0.258E-03    8.94       8.1  T
speedup  1.11
cpu  time for SCC    0.00 s
wall time for SCC    0.00 s
speedup  1.01
cpu  time for grad    0.01 s
wall time for grad    0.01 s
 E :    -45.35843415  G :  0.027150    pred/act E change: -0.176D-02 -0.277D-03
Maxdispl :   0.1445   ||displ|| :   0.2738   Lambda : -0.169D-02
Largest |displ|/coords:  0.1445 (   4)  0.1184 (   5)  0.0982 (   7)
................................................................................
.............................. CYCLE   16 ......................................
................................................................................
   1    -45.6164081 -0.456164E+02  0.235E-01    8.91       0.0  T
   2    -45.6164317 -0.235415E-04  0.174E-01    8.90       1.0  T
   3    -45.6164493 -0.176410E-04  0.347E-02    8.87       1.0  T
   4    -45.6164520 -0.265308E-05  0.127E-02    8.87       1.6  T
   5    -45.6164522 -0.217250E-06  0.392E-03    8.87       5.3  T
   6    -45.6164522 -0.161129E-07  0.227E-03    8.87       9.2  T
speedup  0.89
cpu  time for SCC    0.00 s
wall time for SCC    0.00 s
speedup  1.01
cpu  time for grad    0.01 s
wall time for grad    0.01 s
 E :    -45.35870021  G :  0.019927    pred/act E change: -0.940D-03 -0.266D-03
Maxdispl :   0.0959   ||displ|| :   0.2046   Lambda : -0.147D-02
Largest |displ|/coords:  0.0959 (   4)  0.0777 (   9)  0.0682 (  16)
................................................................................
.............................. CYCLE   17 ......................................
................................................................................
   1    -45.6131004 -0.456131E+02  0.179E-01    8.99       0.0  T
   2    -45.6131182 -0.178011E-04  0.133E-01    9.00       1.0  T
   3    -45.6131302 -0.120449E-04  0.328E-02    9.04       1.0  T
   4    -45.6131323 -0.206464E-05  0.109E-02    9.03       1.9  T
   5    -45.6131324 -0.124225E-06  0.304E-03    9.03       6.9  T
   6    -45.6131324 -0.185053E-07  0.171E-03    9.03      12.2  T
   7    -45.6131324 -0.523399E-08  0.711E-04    9.03      29.3  T
speedup  1.15
cpu  time for SCC    0.01 s
wall time for SCC    0.01 s
speedup  0.95
cpu  time for grad    0.01 s
wall time for grad    0.01 s
 E :    -45.35889075  G :  0.018612    pred/act E change: -0.908D-03 -0.191D-03
Maxdispl :   0.0988   ||displ|| :   0.1874   Lambda : -0.112D-02
Largest |displ|/coords:  0.0988 (   7)  0.0873 (   2)  0.0448 (   8)
................................................................................
.............................. CYCLE   18 ......................................
................................................................................
   1    -45.6124174 -0.456124E+02  0.165E-01    9.02       0.0  T
   2    -45.6124340 -0.166550E-04  0.123E-01    9.01       1.0  T
   3    -45.6124440 -0.994340E-05  0.283E-02    8.98       1.0  T
   4    -45.6124462 -0.225429E-05  0.863E-03    8.98       2.4  T
   5    -45.6124463 -0.112179E-06  0.340E-03    8.99       6.1  T
   6    -45.6124463 -0.176101E-07  0.169E-03    8.99      12.3  T
   7    -45.6124463 -0.685880E-08  0.511E-04    8.99      40.8  T
speedup  1.13
cpu  time for SCC    0.01 s
wall time for SCC    0.01 s
speedup  1.03
cpu  time for grad    0.01 s
wall time for grad    0.01 s
 E :    -45.35919167  G :  0.016826    pred/act E change: -0.766D-03 -0.301D-03
Maxdispl :   0.1173   ||displ|| :   0.2090   Lambda : -0.878D-03
Largest |displ|/coords:  0.1173 (   7)  0.0820 (   5)  0.0798 (   4)
................................................................................
.............................. CYCLE   19 ......................................
................................................................................
   1    -45.6162948 -0.456163E+02  0.182E-01    8.91       0.0  T
   2    -45.6163059 -0.111451E-04  0.136E-01    8.90       1.0  T
   3    -45.6163130 -0.711030E-05  0.209E-02    8.88       1.0  T
   4    -45.6163146 -0.155547E-05  0.745E-03    8.89       2.8  T
   5    -45.6163146 -0.662137E-07  0.233E-03    8.89       9.0  T
   6    -45.6163147 -0.461265E-08  0.133E-03    8.89      15.7  T
speedup  0.89
cpu  time for SCC    0.00 s
wall time for SCC    0.00 s
speedup  1.01
cpu  time for grad    0.01 s
wall time for grad    0.01 s
 E :    -45.35917862  G :  0.016345    pred/act E change: -0.579D-03  0.130D-04
Maxdispl :   0.0755   ||displ|| :   0.1630   Lambda : -0.787D-03
Largest |displ|/coords:  0.0755 (   2)  0.0647 (   3)  0.0591 (   7)
................................................................................
.............................. CYCLE   20 ......................................
................................................................................
   1    -45.6148476 -0.456148E+02  0.116E-01    8.86       0.0  T
   2    -45.6148572 -0.955523E-05  0.871E-02    8.85       1.0  T
   3    -45.6148629 -0.576868E-05  0.191E-02    8.83       1.1  T
   4    -45.6148642 -0.130031E-05  0.616E-03    8.83       3.4  T
   5    -45.6148643 -0.615239E-07  0.243E-03    8.83       8.6  T
   6    -45.6148643 -0.803050E-08  0.123E-03    8.83      16.9  T
speedup  1.11
cpu  time for SCC    0.00 s
wall time for SCC    0.00 s
speedup  1.01
cpu  time for grad    0.01 s
wall time for grad    0.01 s
 E :    -45.35953332  G :  0.010971    pred/act E change: -0.458D-03 -0.355D-03
Maxdispl :   0.0532   ||displ|| :   0.1032   Lambda : -0.309D-03
Largest |displ|/coords:  0.0532 (   4)  0.0368 (  12)  0.0337 (  11)
................................................................................
.............................. CYCLE   21 ......................................
................................................................................
   1    -45.6153806 -0.456154E+02  0.116E-01    8.93       0.0  T
   2    -45.6153869 -0.623439E-05  0.843E-02    8.94       1.0  T
   3    -45.6153906 -0.373042E-05  0.163E-02    8.95       1.3  T
   4    -45.6153912 -0.609315E-06  0.367E-03    8.95       5.7  T
   5    -45.6153912 -0.189729E-07  0.136E-03    8.95      15.4  T
   6    -45.6153912 -0.245488E-08  0.725E-04    8.95      28.7  T
speedup  0.89
cpu  time for SCC    0.00 s
wall time for SCC    0.00 s
speedup  1.01
cpu  time for grad    0.01 s
wall time for grad    0.01 s
 E :    -45.35961821  G :  0.008122    pred/act E change: -0.404D-03 -0.849D-04
Maxdispl :   0.0823   ||displ|| :   0.1445   Lambda : -0.232D-03
Largest |displ|/coords:  0.0823 (   2)  0.0630 (   3)  0.0555 (  12)
................................................................................
.............................. CYCLE   22 ......................................
................................................................................
   1    -45.6148408 -0.456148E+02  0.113E-01    8.91       0.0  T
   2    -45.6148442 -0.335959E-05  0.849E-02    8.91       1.0  T
   3    -45.6148467 -0.251213E-05  0.115E-02    8.90       1.8  T
   4    -45.6148472 -0.474174E-06  0.434E-03    8.90       4.8  T
   5    -45.6148472 -0.213508E-07  0.117E-03    8.90      17.9  T
   6    -45.6148472 -0.140989E-08  0.659E-04    8.90      31.6  T
speedup  1.06
cpu  time for SCC    0.00 s
wall time for SCC    0.00 s
speedup  0.99
cpu  time for grad    0.01 s
wall time for grad    0.01 s
 E :    -45.35974898  G :  0.008788    pred/act E change: -0.156D-03 -0.131D-03
Maxdispl :   0.1306   ||displ|| :   0.2407   Lambda : -0.297D-03
Largest |displ|/coords:  0.1306 (   2)  0.1034 (   3)  0.0735 (   4)
................................................................................
.............................. CYCLE   23 ......................................
................................................................................
   1    -45.6149485 -0.456149E+02  0.153E-01    8.82       0.0  T
   2    -45.6149555 -0.698812E-05  0.114E-01    8.80       1.0  T
   3    -45.6149614 -0.588407E-05  0.163E-02    8.77       1.3  T
   4    -45.6149622 -0.797156E-06  0.429E-03    8.78       4.9  T
   5    -45.6149622 -0.243985E-07  0.193E-03    8.78      10.8  T
   6    -45.6149622 -0.463911E-08  0.980E-04    8.78      21.3  T
speedup  1.06
cpu  time for SCC    0.00 s
wall time for SCC    0.00 s
speedup  0.98
cpu  time for grad    0.01 s
wall time for grad    0.01 s
 E :    -45.35987875  G :  0.011127    pred/act E change: -0.118D-03 -0.130D-03
Maxdispl :   0.0912   ||displ|| :   0.1488   Lambda : -0.233D-03
Largest |displ|/coords:  0.0912 (   2)  0.0575 (  12)  0.0410 (   3)
................................................................................
.............................. CYCLE   24 ......................................
................................................................................
   1    -45.6177618 -0.456178E+02  0.995E-02    8.81       0.0  T
   2    -45.6177653 -0.347204E-05  0.717E-02    8.81       1.0  T
   3    -45.6177672 -0.197517E-05  0.147E-02    8.80       1.4  T
   4    -45.6177676 -0.336371E-06  0.460E-03    8.80       4.5  T
   5    -45.6177676 -0.217027E-07  0.937E-04    8.80      22.3  T
   6    -45.6177676 -0.177819E-08  0.515E-04    8.80      40.5  T
speedup  0.87
cpu  time for SCC    0.00 s
wall time for SCC    0.00 s
speedup  1.00
cpu  time for grad    0.01 s
wall time for grad    0.01 s
 E :    -45.36003199  G :  0.008628    pred/act E change: -0.157D-03 -0.153D-03
Maxdispl :   0.1936   ||displ|| :   0.3005   Lambda : -0.330D-03
Largest |displ|/coords:  0.1936 (   2)  0.1172 (   3)  0.0742 (  11)
................................................................................
.............................. CYCLE   25 ......................................
................................................................................
   1    -45.6167630 -0.456168E+02  0.182E-01    8.87       0.0  T
   2    -45.6167689 -0.591306E-05  0.135E-01    8.87       1.0  T
   3    -45.6167744 -0.546451E-05  0.202E-02    8.87       1.0  T
   4    -45.6167749 -0.513991E-06  0.587E-03    8.87       3.6  T
   5    -45.6167750 -0.462197E-07  0.178E-03    8.87      11.7  T
   6    -45.6167750 -0.270243E-08  0.112E-03    8.87      18.6  T
speedup  1.09
cpu  time for SCC    0.00 s
wall time for SCC    0.00 s
speedup  0.99
cpu  time for grad    0.01 s
wall time for grad    0.01 s
 E :    -45.36020291  G :  0.010242    pred/act E change: -0.119D-03 -0.171D-03
Maxdispl :   0.1794   ||displ|| :   0.2795   Lambda : -0.311D-03
Largest |displ|/coords:  0.1794 (   2)  0.0863 (   3)  0.0738 (   9)

generating ANC from model Hessian ...
 Shifting diagonal of input Hessian by   5.000168167260653E-003
 Lowest  eigenvalues of input Hessian
    0.005000   -0.000000   -0.000000   -0.000000   -0.000000    0.000000
    0.000000    0.005219    0.005329    0.005587    0.006138    0.006667
    0.007087    0.007426    0.008452    0.010092    0.010195    0.012209
 Highest eigenvalues
    1.391897    1.404102    1.409574    2.750207    3.248765    3.730943
 
cpu  time for ANC gen    0.01 s
wall time for ANC gen    0.01 s
................................................................................
.............................. CYCLE   26 ......................................
................................................................................
   1    -45.6154299 -0.456154E+02  0.161E-01    8.89       0.0  T
   2    -45.6154358 -0.589858E-05  0.122E-01    8.89       1.0  T
   3    -45.6154408 -0.504938E-05  0.158E-02    8.88       1.3  T
   4    -45.6154415 -0.641875E-06  0.522E-03    8.88       4.0  T
   5    -45.6154415 -0.397646E-07  0.159E-03    8.88      13.1  T
   6    -45.6154415 -0.257049E-08  0.941E-04    8.88      22.2  T
   7    -45.6154415 -0.154101E-08  0.226E-04    8.88      92.3  T
speedup  1.13
cpu  time for SCC    0.01 s
wall time for SCC    0.01 s
speedup  0.99
cpu  time for grad    0.01 s
wall time for grad    0.01 s
 E :    -45.36029230  G :  0.012468    pred/act E change:  0.000D+00 -0.894D-04
Maxdispl :   0.0807   ||displ|| :   0.1820   Lambda : -0.586D-03
Largest |displ|/coords:  0.0807 (   3)  0.0680 (   9)  0.0595 (   8)
................................................................................
.............................. CYCLE   27 ......................................
................................................................................
   1    -45.6170833 -0.456171E+02  0.144E-01    8.89       0.0  T
   2    -45.6170881 -0.485358E-05  0.109E-01    8.90       1.0  T
   3    -45.6170919 -0.373748E-05  0.125E-02    8.93       1.7  T
   4    -45.6170925 -0.675069E-06  0.489E-03    8.92       4.3  T
   5    -45.6170926 -0.304010E-07  0.136E-03    8.92      15.3  T
   6    -45.6170926 -0.170913E-08  0.737E-04    8.92      28.3  T
speedup  0.89
cpu  time for SCC    0.00 s
wall time for SCC    0.00 s
speedup  1.01
cpu  time for grad    0.01 s
wall time for grad    0.01 s
 E :    -45.36071330  G :  0.004874    pred/act E change:  0.000D+00 -0.421D-03
Maxdispl :   0.1844   ||displ|| :   0.3589   Lambda : -0.562D-03
Largest |displ|/coords:  0.1844 (   3)  0.1402 (   9)  0.1103 (   8)
................................................................................
.............................. CYCLE   28 ......................................
................................................................................
   1    -45.6160953 -0.456161E+02  0.277E-01    8.92       0.0  T
   2    -45.6161111 -0.157590E-04  0.208E-01    8.94       1.0  T
   3    -45.6161244 -0.133247E-04  0.229E-02    8.98       1.0  T
   4    -45.6161264 -0.196629E-05  0.853E-03    8.97       2.4  T
   5    -45.6161264 -0.623199E-07  0.316E-03    8.97       6.6  T
   6    -45.6161264 -0.122470E-07  0.148E-03    8.97      14.1  T
   7    -45.6161264 -0.399406E-08  0.425E-04    8.97      49.1  T
speedup  0.94
cpu  time for SCC    0.00 s
wall time for SCC    0.01 s
speedup  0.94
cpu  time for grad    0.01 s
wall time for grad    0.01 s
 E :    -45.36092127  G :  0.021923    pred/act E change: -0.303D-03 -0.208D-03
Maxdispl :   0.0735   ||displ|| :   0.1517   Lambda : -0.474D-03
Largest |displ|/coords:  0.0735 (   5)  0.0645 (   3)  0.0525 (   9)
................................................................................
.............................. CYCLE   29 ......................................
................................................................................
   1    -45.6177676 -0.456178E+02  0.119E-01    8.97       0.0  T
   2    -45.6177736 -0.608161E-05  0.892E-02    8.98       1.0  T
   3    -45.6177783 -0.465107E-05  0.142E-02    8.99       1.5  T
   4    -45.6177790 -0.752620E-06  0.471E-03    8.99       4.4  T
   5    -45.6177791 -0.262127E-07  0.172E-03    8.99      12.1  T
speedup  1.05
cpu  time for SCC    0.00 s
wall time for SCC    0.00 s
speedup  1.06
cpu  time for grad    0.01 s
wall time for grad    0.01 s
 E :    -45.36119697  G :  0.009634    pred/act E change: -0.317D-03 -0.276D-03
Maxdispl :   0.1604   ||displ|| :   0.2904   Lambda : -0.346D-03
Largest |displ|/coords:  0.1604 (   3)  0.1260 (   5)  0.1161 (   9)
................................................................................
.............................. CYCLE   30 ......................................
................................................................................
   1    -45.6164005 -0.456164E+02  0.183E-01    8.96       0.0  T
   2    -45.6164058 -0.529028E-05  0.137E-01    8.97       1.0  T
   3    -45.6164114 -0.558988E-05  0.131E-02    8.98       1.6  T
   4    -45.6164118 -0.374436E-06  0.551E-03    8.98       3.8  T
   5    -45.6164118 -0.239714E-07  0.171E-03    8.98      12.2  T
   6    -45.6164118 -0.456546E-08  0.908E-04    8.98      23.0  T
speedup  1.11
cpu  time for SCC    0.01 s
wall time for SCC    0.00 s
speedup  0.91
cpu  time for grad    0.01 s
wall time for grad    0.01 s
 E :    -45.36149438  G :  0.007867    pred/act E change: -0.243D-03 -0.297D-03
Maxdispl :   0.3108   ||displ|| :   0.6041   Lambda : -0.722D-03
Largest |displ|/coords:  0.3108 (   3)  0.2749 (   9)  0.2544 (   1)
................................................................................
.............................. CYCLE   31 ......................................
................................................................................
   1    -45.6108339 -0.456108E+02  0.390E-01    8.87       0.0  T
   2    -45.6108568 -0.229298E-04  0.293E-01    8.88       1.0  T
   3    -45.6108809 -0.241167E-04  0.274E-02    8.91       1.0  T
   4    -45.6108826 -0.169185E-05  0.118E-02    8.90       1.8  T
   5    -45.6108827 -0.998550E-07  0.371E-03    8.90       5.6  T
   6    -45.6108828 -0.201832E-07  0.194E-03    8.90      10.7  T
   7    -45.6108828 -0.509572E-08  0.450E-04    8.90      46.4  T
speedup  0.96
cpu  time for SCC    0.00 s
wall time for SCC    0.01 s
speedup  1.02
cpu  time for grad    0.01 s
wall time for grad    0.01 s
 E :    -45.36194573  G :  0.017051    pred/act E change: -0.188D-03 -0.451D-03
Maxdispl :   0.0876   ||displ|| :   0.1991   Lambda : -0.412D-03
Largest |displ|/coords:  0.0876 (   3)  0.0866 (   1)  0.0781 (   9)
................................................................................
.............................. CYCLE   32 ......................................
................................................................................
   1    -45.6133678 -0.456134E+02  0.110E-01    8.94       0.0  T
   2    -45.6133706 -0.276623E-05  0.826E-02    8.94       1.0  T
   3    -45.6133728 -0.219835E-05  0.997E-03    8.93       2.1  T
   4    -45.6133731 -0.368659E-06  0.462E-03    8.94       4.5  T
   5    -45.6133732 -0.195991E-07  0.108E-03    8.94      19.2  T
   6    -45.6133732 -0.155323E-08  0.626E-04    8.94      33.3  T
speedup  1.11
cpu  time for SCC    0.00 s
wall time for SCC    0.00 s
speedup  0.99
cpu  time for grad    0.01 s
wall time for grad    0.01 s
 E :    -45.36225832  G :  0.013809    pred/act E change: -0.492D-03 -0.313D-03
Maxdispl :   0.2488   ||displ|| :   0.4789   Lambda : -0.800D-03
Largest |displ|/coords:  0.2488 (   3)  0.1969 (   9)  0.1774 (   5)
................................................................................
.............................. CYCLE   33 ......................................
................................................................................
   1    -45.6141597 -0.456142E+02  0.298E-01    9.00       0.0  T
   2    -45.6141759 -0.161259E-04  0.222E-01    9.01       1.0  T
   3    -45.6141908 -0.149589E-04  0.237E-02    9.04       1.0  T
   4    -45.6141923 -0.142887E-05  0.112E-02    9.04       1.9  T
   5    -45.6141923 -0.729048E-07  0.291E-03    9.03       7.2  T
   6    -45.6141923 -0.957347E-08  0.161E-03    9.03      12.9  T
speedup  1.09
cpu  time for SCC    0.00 s
wall time for SCC    0.00 s
speedup  0.98
cpu  time for grad    0.01 s
wall time for grad    0.01 s
 E :    -45.36285528  G :  0.012167    pred/act E change: -0.214D-03 -0.597D-03
Maxdispl :   0.2408   ||displ|| :   0.5043   Lambda : -0.967D-03
Largest |displ|/coords:  0.2408 (   3)  0.2340 (   9)  0.1501 (   4)
................................................................................
.............................. CYCLE   34 ......................................
................................................................................
   1    -45.6203069 -0.456203E+02  0.299E-01    9.17       0.0  T
   2    -45.6203231 -0.162198E-04  0.221E-01    9.17       1.0  T
   3    -45.6203353 -0.121358E-04  0.311E-02    9.18       1.0  T
   4    -45.6203370 -0.175204E-05  0.113E-02    9.18       1.8  T
   5    -45.6203371 -0.121992E-06  0.281E-03    9.18       7.4  T
   6    -45.6203372 -0.610278E-08  0.174E-03    9.18      12.0  T
speedup  0.89
cpu  time for SCC    0.00 s
wall time for SCC    0.00 s
speedup  0.99
cpu  time for grad    0.01 s
wall time for grad    0.01 s
 E :    -45.36345261  G :  0.013540    pred/act E change: -0.492D-03 -0.597D-03
Maxdispl :   0.3870   ||displ|| :   0.6434   Lambda : -0.101D-02
Largest |displ|/coords:  0.3870 (   3)  0.3161 (   5)  0.2029 (   9)
................................................................................
.............................. CYCLE   35 ......................................
................................................................................
   1    -45.6131219 -0.456131E+02  0.396E-01    8.99       0.0  T
   2    -45.6131498 -0.278667E-04  0.296E-01    8.99       1.0  T
   3    -45.6131783 -0.285272E-04  0.330E-02    8.99       1.0  T
   4    -45.6131808 -0.242939E-05  0.115E-02    8.99       1.8  T
   5    -45.6131809 -0.147048E-06  0.454E-03    8.99       4.6  T
   6    -45.6131809 -0.247665E-07  0.219E-03    8.99       9.5  T
   7    -45.6131810 -0.103049E-07  0.637E-04    8.99      32.7  T
speedup  0.94
cpu  time for SCC    0.00 s
wall time for SCC    0.01 s
speedup  1.01
cpu  time for grad    0.01 s
wall time for grad    0.01 s
 E :    -45.36378649  G :  0.023332    pred/act E change: -0.606D-03 -0.334D-03
Maxdispl :   0.1232   ||displ|| :   0.2659   Lambda : -0.132D-02
Largest |displ|/coords:  0.1232 (   2)  0.0866 (   1)  0.0854 (  13)
................................................................................
.............................. CYCLE   36 ......................................
................................................................................
   1    -45.6245217 -0.456245E+02  0.206E-01    9.08       0.0  T
   2    -45.6245501 -0.283760E-04  0.151E-01    9.07       1.0  T
   3    -45.6245724 -0.222921E-04  0.371E-02    9.07       1.0  T
   4    -45.6245751 -0.268749E-05  0.122E-02    9.07       1.7  T
   5    -45.6245753 -0.238416E-06  0.390E-03    9.07       5.3  T
   6    -45.6245753 -0.135438E-07  0.200E-03    9.07      10.4  T
speedup  1.09
cpu  time for SCC    0.01 s
wall time for SCC    0.00 s
speedup  1.07
cpu  time for grad    0.01 s
wall time for grad    0.01 s
 E :    -45.36311424  G :  0.044125    pred/act E change: -0.711D-03  0.672D-03
Maxdispl :   0.1427   ||displ|| :   0.2763   Lambda : -0.368D-02
Largest |displ|/coords:  0.1427 (   9)  0.1111 (   6)  0.0969 (  19)
................................................................................
.............................. CYCLE   37 ......................................
................................................................................
   1    -45.6197603 -0.456198E+02  0.311E-01    9.10       0.0  T
   2    -45.6198339 -0.736377E-04  0.231E-01    9.13       1.0  T
   3    -45.6198811 -0.471691E-04  0.525E-02    9.17       1.0  T
   4    -45.6198898 -0.872350E-05  0.119E-02    9.16       1.7  T
   5    -45.6198900 -0.198162E-06  0.527E-03    9.16       4.0  T
   6    -45.6198900 -0.259404E-07  0.265E-03    9.16       7.9  T
speedup  1.06
cpu  time for SCC    0.00 s
wall time for SCC    0.00 s
speedup  1.06
cpu  time for grad    0.01 s
wall time for grad    0.01 s
 E :    -45.36331090  G :  0.045308    pred/act E change: -0.709D-03 -0.197D-03
Maxdispl :   0.1731   ||displ|| :   0.3241   Lambda : -0.322D-02
Largest |displ|/coords:  0.1731 (   9)  0.1298 (   1)  0.0990 (   5)
................................................................................
.............................. CYCLE   38 ......................................
................................................................................
   1    -45.6186056 -0.456186E+02  0.267E-01    9.26       0.0  T
   2    -45.6186395 -0.339058E-04  0.198E-01    9.25       1.0  T
   3    -45.6186614 -0.219082E-04  0.359E-02    9.21       1.0  T
   4    -45.6186657 -0.431951E-05  0.991E-03    9.23       2.1  T
   5    -45.6186659 -0.157728E-06  0.438E-03    9.23       4.8  T
   6    -45.6186659 -0.191203E-07  0.216E-03    9.23       9.6  T
speedup  1.11
cpu  time for SCC    0.00 s
wall time for SCC    0.00 s
speedup  0.99
cpu  time for grad    0.01 s
wall time for grad    0.01 s
 E :    -45.36419747  G :  0.022840    pred/act E change: -0.198D-02 -0.887D-03
Maxdispl :   0.1944   ||displ|| :   0.3468   Lambda : -0.154D-02
Largest |displ|/coords:  0.1944 (   9)  0.1550 (   3)  0.1268 (   2)
................................................................................
.............................. CYCLE   39 ......................................
................................................................................
   1    -45.6168080 -0.456168E+02  0.230E-01    8.94       0.0  T
   2    -45.6168267 -0.186140E-04  0.169E-01    8.94       1.0  T
   3    -45.6168386 -0.119127E-04  0.285E-02    8.94       1.0  T
   4    -45.6168407 -0.217934E-05  0.941E-03    8.94       2.2  T
   5    -45.6168409 -0.128893E-06  0.308E-03    8.94       6.8  T
   6    -45.6168409 -0.120133E-07  0.155E-03    8.94      13.5  T
speedup  1.09
cpu  time for SCC    0.00 s
wall time for SCC    0.00 s
speedup  0.99
cpu  time for grad    0.01 s
wall time for grad    0.01 s
 E :    -45.36457757  G :  0.017205    pred/act E change: -0.178D-02 -0.380D-03
Maxdispl :   0.0786   ||displ|| :   0.1774   Lambda : -0.927D-03
Largest |displ|/coords:  0.0786 (   1)  0.0766 (  11)  0.0631 (  17)
................................................................................
.............................. CYCLE   40 ......................................
................................................................................
   1    -45.6229877 -0.456230E+02  0.155E-01    9.16       0.0  T
   2    -45.6229991 -0.113898E-04  0.113E-01    9.15       1.0  T
   3    -45.6230054 -0.638285E-05  0.250E-02    9.15       1.0  T
   4    -45.6230066 -0.111504E-05  0.690E-03    9.15       3.0  T
   5    -45.6230066 -0.802737E-07  0.210E-03    9.15       9.9  T
   6    -45.6230066 -0.466799E-08  0.110E-03    9.15      19.0  T
speedup  0.87
cpu  time for SCC    0.00 s
wall time for SCC    0.00 s
speedup  0.98
cpu  time for grad    0.01 s
wall time for grad    0.01 s
 E :    -45.36478745  G :  0.016503    pred/act E change: -0.861D-03 -0.210D-03
Maxdispl :   0.1412   ||displ|| :   0.3253   Lambda : -0.815D-03
Largest |displ|/coords:  0.1412 (   3)  0.1390 (   9)  0.1294 (   5)
................................................................................
.............................. CYCLE   41 ......................................
................................................................................
   1    -45.6168368 -0.456168E+02  0.212E-01    9.13       0.0  T
   2    -45.6168469 -0.100658E-04  0.158E-01    9.14       1.0  T
   3    -45.6168532 -0.631455E-05  0.188E-02    9.16       1.1  T
   4    -45.6168547 -0.154533E-05  0.721E-03    9.16       2.9  T
   5    -45.6168548 -0.470195E-07  0.243E-03    9.16       8.6  T
   6    -45.6168548 -0.709057E-08  0.120E-03    9.16      17.4  T
speedup  0.89
cpu  time for SCC    0.00 s
wall time for SCC    0.00 s
speedup  0.99
cpu  time for grad    0.01 s
wall time for grad    0.01 s
 E :    -45.36493951  G :  0.018304    pred/act E change: -0.478D-03 -0.152D-03
Maxdispl :   0.0624   ||displ|| :   0.1477   Lambda : -0.650D-03
Largest |displ|/coords:  0.0624 (   7)  0.0614 (   1)  0.0469 (   2)
................................................................................
.............................. CYCLE   42 ......................................
................................................................................
   1    -45.6185164 -0.456185E+02  0.114E-01    9.12       0.0  T
   2    -45.6185209 -0.444281E-05  0.844E-02    9.11       1.0  T
   3    -45.6185240 -0.313123E-05  0.117E-02    9.09       1.8  T
   4    -45.6185245 -0.537810E-06  0.424E-03    9.10       4.9  T
   5    -45.6185245 -0.197494E-07  0.148E-03    9.10      14.1  T
   6    -45.6185245 -0.278047E-08  0.659E-04    9.10      31.6  T
speedup  1.14
cpu  time for SCC    0.00 s
wall time for SCC    0.00 s
speedup  1.00
cpu  time for grad    0.01 s
wall time for grad    0.01 s
 E :    -45.36525951  G :  0.011562    pred/act E change: -0.451D-03 -0.320D-03
Maxdispl :   0.0608   ||displ|| :   0.1533   Lambda : -0.289D-03
Largest |displ|/coords:  0.0608 (   9)  0.0541 (   1)  0.0512 (   2)
................................................................................
.............................. CYCLE   43 ......................................
................................................................................
   1    -45.6207309 -0.456207E+02  0.742E-02    9.07       0.0  T
   2    -45.6207324 -0.153201E-05  0.557E-02    9.07       1.0  T
   3    -45.6207336 -0.119801E-05  0.789E-03    9.07       2.6  T
   4    -45.6207338 -0.202484E-06  0.329E-03    9.07       6.3  T
   5    -45.6207338 -0.111634E-07  0.897E-04    9.07      23.2  T
   6    -45.6207338 -0.870926E-09  0.532E-04    9.07      39.2  T
speedup  0.89
cpu  time for SCC    0.00 s
wall time for SCC    0.00 s
speedup  0.98
cpu  time for grad    0.01 s
wall time for grad    0.01 s
 E :    -45.36542914  G :  0.005635    pred/act E change: -0.332D-03 -0.170D-03
Maxdispl :   0.1913   ||displ|| :   0.4181   Lambda : -0.388D-03
Largest |displ|/coords:  0.1913 (   3)  0.1427 (   9)  0.1328 (   1)
................................................................................
.............................. CYCLE   44 ......................................
................................................................................
   1    -45.6187493 -0.456187E+02  0.230E-01    9.08       0.0  T
   2    -45.6187572 -0.791070E-05  0.173E-01    9.08       1.0  T
   3    -45.6187642 -0.700201E-05  0.193E-02    9.09       1.1  T
   4    -45.6187652 -0.951929E-06  0.724E-03    9.08       2.9  T
   5    -45.6187652 -0.427544E-07  0.236E-03    9.08       8.8  T
   6    -45.6187652 -0.521914E-08  0.111E-03    9.08      18.8  T
speedup  1.11
cpu  time for SCC    0.00 s
wall time for SCC    0.00 s
speedup  0.99
cpu  time for grad    0.01 s
wall time for grad    0.01 s
 E :    -45.36569627  G :  0.009175    pred/act E change: -0.148D-03 -0.267D-03
Maxdispl :   0.1660   ||displ|| :   0.4006   Lambda : -0.404D-03
Largest |displ|/coords:  0.1660 (   3)  0.1349 (   9)  0.1322 (   2)
................................................................................
.............................. CYCLE   45 ......................................
................................................................................
   1    -45.6192363 -0.456192E+02  0.219E-01    9.11       0.0  T
   2    -45.6192438 -0.746323E-05  0.165E-01    9.10       1.0  T
   3    -45.6192493 -0.554176E-05  0.182E-02    9.10       1.1  T
   4    -45.6192503 -0.104548E-05  0.718E-03    9.10       2.9  T
   5    -45.6192504 -0.510804E-07  0.208E-03    9.10      10.0  T
   6    -45.6192504 -0.335221E-08  0.113E-03    9.10      18.4  T
speedup  1.04
cpu  time for SCC    0.00 s
wall time for SCC    0.00 s
speedup  0.96
cpu  time for grad    0.01 s
wall time for grad    0.01 s
 E :    -45.36588939  G :  0.012404    pred/act E change: -0.228D-03 -0.193D-03
Maxdispl :   0.1467   ||displ|| :   0.2299   Lambda : -0.245D-03
Largest |displ|/coords:  0.1467 (   3)  0.0725 (  17)  0.0697 (   5)
................................................................................
.............................. CYCLE   46 ......................................
................................................................................
   1    -45.6180348 -0.456180E+02  0.117E-01    9.06       0.0  T
   2    -45.6180383 -0.350862E-05  0.882E-02    9.06       1.0  T
   3    -45.6180411 -0.278190E-05  0.116E-02    9.04       1.8  T
   4    -45.6180416 -0.500537E-06  0.422E-03    9.05       4.9  T
   5    -45.6180416 -0.216955E-07  0.149E-03    9.05      14.0  T
   6    -45.6180416 -0.245253E-08  0.813E-04    9.05      25.6  T
speedup  1.09
cpu  time for SCC    0.00 s
wall time for SCC    0.00 s
speedup  0.98
cpu  time for grad    0.01 s
wall time for grad    0.01 s
 E :    -45.36597725  G :  0.011864    pred/act E change: -0.235D-03 -0.879D-04
Maxdispl :   0.0835   ||displ|| :   0.1522   Lambda : -0.352D-03
Largest |displ|/coords:  0.0835 (   5)  0.0520 (   3)  0.0493 (   6)
................................................................................
.............................. CYCLE   47 ......................................
................................................................................
   1    -45.6234659 -0.456235E+02  0.862E-02    9.14       0.0  T
   2    -45.6234688 -0.290528E-05  0.626E-02    9.14       1.0  T
   3    -45.6234707 -0.187923E-05  0.125E-02    9.13       1.7  T
   4    -45.6234710 -0.248976E-06  0.343E-03    9.14       6.1  T
   5    -45.6234710 -0.168374E-07  0.109E-03    9.14      19.2  T
   6    -45.6234710 -0.116027E-08  0.586E-04    9.14      35.6  T
speedup  1.11
cpu  time for SCC    0.01 s
wall time for SCC    0.00 s
speedup  0.98
cpu  time for grad    0.01 s
wall time for grad    0.01 s
 E :    -45.36602349  G :  0.011554    pred/act E change: -0.129D-03 -0.462D-04
Maxdispl :   0.1562   ||displ|| :   0.2619   Lambda : -0.398D-03
Largest |displ|/coords:  0.1562 (   3)  0.1036 (   9)  0.0822 (   4)
................................................................................
.............................. CYCLE   48 ......................................
................................................................................
   1    -45.6214530 -0.456215E+02  0.140E-01    9.04       0.0  T
   2    -45.6214579 -0.494698E-05  0.105E-01    9.03       1.0  T
   3    -45.6214622 -0.425017E-05  0.157E-02    9.01       1.3  T
   4    -45.6214628 -0.562521E-06  0.571E-03    9.01       3.7  T
   5    -45.6214628 -0.399533E-07  0.158E-03    9.01      13.2  T
   6    -45.6214628 -0.319687E-08  0.948E-04    9.01      22.0  T
speedup  1.11
cpu  time for SCC    0.01 s
wall time for SCC    0.00 s
speedup  0.99
cpu  time for grad    0.01 s
wall time for grad    0.01 s
 E :    -45.36613270  G :  0.010705    pred/act E change: -0.180D-03 -0.109D-03
Maxdispl :   0.0401   ||displ|| :   0.0972   Lambda : -0.228D-03
Largest |displ|/coords:  0.0401 (   4)  0.0393 (   6)  0.0386 (   3)
................................................................................
.............................. CYCLE   49 ......................................
................................................................................
   1    -45.6212350 -0.456212E+02  0.775E-02    9.04       0.0  T
   2    -45.6212366 -0.160025E-05  0.583E-02    9.04       1.0  T
   3    -45.6212378 -0.122885E-05  0.870E-03    9.03       2.4  T
   4    -45.6212380 -0.188222E-06  0.331E-03    9.04       6.3  T
   5    -45.6212380 -0.142150E-07  0.845E-04    9.04      24.7  T
   6    -45.6212380 -0.622194E-09  0.502E-04    9.04      41.5  T
speedup  0.89
cpu  time for SCC    0.00 s
wall time for SCC    0.00 s
speedup  0.98
cpu  time for grad    0.01 s
wall time for grad    0.01 s
 E :    -45.36623395  G :  0.006009    pred/act E change: -0.213D-03 -0.101D-03
Maxdispl :   0.0497   ||displ|| :   0.0795   Lambda : -0.796D-04
Largest |displ|/coords:  0.0497 (   3)  0.0314 (   4)  0.0227 (   5)
................................................................................
.............................. CYCLE   50 ......................................
................................................................................
   1    -45.6221670 -0.456222E+02  0.369E-02    9.06       0.0  T
   2    -45.6221678 -0.863246E-06  0.274E-02    9.06       1.0  T
   3    -45.6221683 -0.487868E-06  0.599E-03    9.05       3.5  T
   4    -45.6221684 -0.124831E-06  0.194E-03    9.05      10.7  T
   5    -45.6221685 -0.486674E-08  0.648E-04    9.05      32.2  T
speedup  1.03
cpu  time for SCC    0.00 s
wall time for SCC    0.00 s
speedup  0.94
cpu  time for grad    0.01 s
wall time for grad    0.01 s
 E :    -45.36628022  G :  0.003560    pred/act E change: -0.115D-03 -0.463D-04
Maxdispl :   0.1408   ||displ|| :   0.1810   Lambda : -0.829D-04
Largest |displ|/coords:  0.1408 (   3)  0.0467 (   5)  0.0446 (   4)
................................................................................
.............................. CYCLE   51 ......................................
................................................................................
   1    -45.6215606 -0.456216E+02  0.825E-02    9.02       0.0  T
   2    -45.6215622 -0.158630E-05  0.613E-02    9.02       1.0  T
   3    -45.6215633 -0.114949E-05  0.787E-03    9.01       2.6  T
   4    -45.6215635 -0.190888E-06  0.316E-03    9.01       6.6  T
   5    -45.6215635 -0.824594E-08  0.903E-04    9.01      23.1  T
   6    -45.6215635 -0.106551E-08  0.548E-04    9.01      38.1  T
speedup  1.09
cpu  time for SCC    0.01 s
wall time for SCC    0.00 s
speedup  0.94
cpu  time for grad    0.01 s
wall time for grad    0.01 s
 E :    -45.36632861  G :  0.004297    pred/act E change: -0.401D-04 -0.484D-04
Maxdispl :   0.1124   ||displ|| :   0.1741   Lambda : -0.789D-04
Largest |displ|/coords:  0.1124 (   3)  0.0838 (   5)  0.0504 (   9)
................................................................................
.............................. CYCLE   52 ......................................
................................................................................
   1    -45.6227448 -0.456227E+02  0.841E-02    9.00       0.0  T
   2    -45.6227465 -0.168481E-05  0.624E-02    8.99       1.0  T
   3    -45.6227475 -0.982893E-06  0.869E-03    8.98       2.4  T
   4    -45.6227477 -0.246848E-06  0.343E-03    8.98       6.1  T
   5    -45.6227478 -0.797444E-08  0.882E-04    8.98      23.6  T
   6    -45.6227478 -0.104757E-08  0.505E-04    8.98      41.3  T
speedup  0.87
cpu  time for SCC    0.00 s
wall time for SCC    0.00 s
speedup  0.88
cpu  time for grad    0.01 s
wall time for grad    0.01 s
 E :    -45.36637704  G :  0.004176    pred/act E change: -0.428D-04 -0.484D-04
Maxdispl :   0.1312   ||displ|| :   0.2067   Lambda : -0.708D-04
Largest |displ|/coords:  0.1312 (   3)  0.0846 (   5)  0.0686 (   9)

generating ANC from model Hessian ...
 Shifting diagonal of input Hessian by   4.834391946105106E-003
 Lowest  eigenvalues of input Hessian
   -0.000000   -0.000000   -0.000000   -0.000000    0.000000    0.000000
    0.005000    0.005155    0.005481    0.005830    0.006689    0.007157
    0.007405    0.007835    0.008891    0.010358    0.011466    0.011943
 Highest eigenvalues
    1.376442    1.400855    1.416059    2.784864    3.250321    3.762473
 
cpu  time for ANC gen    0.01 s
wall time for ANC gen    0.01 s
................................................................................
.............................. CYCLE   53 ......................................
................................................................................
   1    -45.6207488 -0.456207E+02  0.103E-01    8.98       0.0  T
   2    -45.6207511 -0.234278E-05  0.769E-02    8.98       1.0  T
   3    -45.6207528 -0.171014E-05  0.877E-03    8.97       2.4  T
   4    -45.6207531 -0.310333E-06  0.426E-03    8.97       4.9  T
   5    -45.6207532 -0.203827E-07  0.107E-03    8.97      19.6  T
   6    -45.6207532 -0.136090E-08  0.615E-04    8.97      33.9  T
   7    -45.6207532 -0.742034E-09  0.193E-04    8.97     108.0  T
speedup  1.11
cpu  time for SCC    0.01 s
wall time for SCC    0.01 s
speedup  1.03
cpu  time for grad    0.01 s
wall time for grad    0.01 s
 E :    -45.36640649  G :  0.005650    pred/act E change:  0.000D+00 -0.295D-04
Maxdispl :   0.0398   ||displ|| :   0.0725   Lambda : -0.865D-04
Largest |displ|/coords:  0.0398 (   1)  0.0327 (   3)  0.0286 (   2)
................................................................................
.............................. CYCLE   54 ......................................
................................................................................
   1    -45.6215577 -0.456216E+02  0.568E-02    8.97       0.0  T
   2    -45.6215582 -0.505179E-06  0.421E-02    8.97       1.0  T
   3    -45.6215587 -0.547897E-06  0.422E-03    8.98       4.9  T
   4    -45.6215588 -0.251954E-07  0.180E-03    8.98      11.6  T
   5    -45.6215588 -0.268128E-08  0.530E-04    8.98      39.3  T
speedup  1.03
cpu  time for SCC    0.00 s
wall time for SCC    0.00 s
speedup  0.93
cpu  time for grad    0.01 s
wall time for grad    0.01 s
 E :    -45.36647125  G :  0.003108    pred/act E change:  0.000D+00 -0.648D-04
Maxdispl :   0.0829   ||displ|| :   0.1373   Lambda : -0.944D-04
Largest |displ|/coords:  0.0829 (   1)  0.0609 (  18)  0.0567 (   2)
................................................................................
.............................. CYCLE   55 ......................................
................................................................................
   1    -45.6217464 -0.456217E+02  0.104E-01    8.97       0.0  T
   2    -45.6217481 -0.173322E-05  0.767E-02    8.97       1.0  T
   3    -45.6217499 -0.176975E-05  0.686E-03    8.98       3.0  T
   4    -45.6217499 -0.707126E-07  0.222E-03    8.98       9.4  T
   5    -45.6217499 -0.571579E-08  0.925E-04    8.98      22.5  T
   6    -45.6217499 -0.145183E-08  0.454E-04    8.98      45.9  T
speedup  0.87
cpu  time for SCC    0.00 s
wall time for SCC    0.00 s
speedup  0.94
cpu  time for grad    0.01 s
wall time for grad    0.01 s
 E :    -45.36653528  G :  0.002607    pred/act E change: -0.435D-04 -0.640D-04
Maxdispl :   0.0708   ||displ|| :   0.1298   Lambda : -0.469D-04
Largest |displ|/coords:  0.0708 (   1)  0.0566 (   2)  0.0534 (  18)
................................................................................
.............................. CYCLE   56 ......................................
................................................................................
   1    -45.6209036 -0.456209E+02  0.965E-02    8.97       0.0  T
   2    -45.6209050 -0.148188E-05  0.711E-02    8.97       1.0  T
   3    -45.6209065 -0.144952E-05  0.618E-03    8.98       3.4  T
   4    -45.6209066 -0.777825E-07  0.240E-03    8.98       8.7  T
   5    -45.6209066 -0.461129E-08  0.813E-04    8.98      25.6  T
   6    -45.6209066 -0.993815E-09  0.410E-04    8.98      50.9  T
speedup  1.11
cpu  time for SCC    0.00 s
wall time for SCC    0.00 s
speedup  1.03
cpu  time for grad    0.01 s
wall time for grad    0.01 s
 E :    -45.36656664  G :  0.002914    pred/act E change: -0.481D-04 -0.314D-04
Maxdispl :   0.0466   ||displ|| :   0.0974   Lambda : -0.271D-04
Largest |displ|/coords:  0.0466 (   2)  0.0409 (   1)  0.0396 (   4)
................................................................................
.............................. CYCLE   57 ......................................
................................................................................
   1    -45.6203778 -0.456204E+02  0.636E-02    8.98       0.0  T
   2    -45.6203785 -0.614311E-06  0.471E-02    8.98       1.0  T
   3    -45.6203790 -0.557375E-06  0.420E-03    8.98       5.0  T
   4    -45.6203791 -0.451303E-07  0.197E-03    8.98      10.6  T
   5    -45.6203791 -0.244941E-08  0.514E-04    8.98      40.6  T
   6    -45.6203791 -0.297725E-09  0.296E-04    8.98      70.5  T
speedup  1.09
cpu  time for SCC    0.00 s
wall time for SCC    0.00 s
speedup  1.03
cpu  time for grad    0.01 s
wall time for grad    0.01 s
 E :    -45.36658612  G :  0.002392    pred/act E change: -0.238D-04 -0.195D-04
Maxdispl :   0.0468   ||displ|| :   0.0954   Lambda : -0.239D-04
Largest |displ|/coords:  0.0468 (   4)  0.0465 (   2)  0.0379 (   3)
................................................................................
.............................. CYCLE   58 ......................................
................................................................................
   1    -45.6201978 -0.456202E+02  0.527E-02    8.99       0.0  T
   2    -45.6201983 -0.493155E-06  0.394E-02    8.99       1.0  T
   3    -45.6201987 -0.358474E-06  0.395E-03    8.99       5.3  T
   4    -45.6201988 -0.638665E-07  0.202E-03    8.99      10.3  T
   5    -45.6201988 -0.426036E-08  0.502E-04    8.99      41.5  T
   6    -45.6201988 -0.286001E-09  0.300E-04    8.99      69.5  T
speedup  1.09
cpu  time for SCC    0.00 s
wall time for SCC    0.00 s
speedup  1.03
cpu  time for grad    0.01 s
wall time for grad    0.01 s
 E :    -45.36660245  G :  0.001937    pred/act E change: -0.137D-04 -0.163D-04
Maxdispl :   0.0533   ||displ|| :   0.0975   Lambda : -0.155D-04
Largest |displ|/coords:  0.0533 (   4)  0.0482 (   2)  0.0376 (   3)
................................................................................
.............................. CYCLE   59 ......................................
................................................................................
   1    -45.6200215 -0.456200E+02  0.490E-02    9.00       0.0  T
   2    -45.6200218 -0.366768E-06  0.366E-02    9.00       1.0  T
   3    -45.6200221 -0.260686E-06  0.360E-03    9.00       5.8  T
   4    -45.6200221 -0.497731E-07  0.190E-03    9.00      11.0  T
   5    -45.6200221 -0.367546E-08  0.443E-04    9.00      47.1  T
   6    -45.6200221 -0.245805E-09  0.279E-04    9.00      74.7  T
speedup  0.87
cpu  time for SCC    0.00 s
wall time for SCC    0.00 s
speedup  0.94
cpu  time for grad    0.01 s
wall time for grad    0.01 s
 E :    -45.36661387  G :  0.001961    pred/act E change: -0.121D-04 -0.114D-04
Maxdispl :   0.0660   ||displ|| :   0.1192   Lambda : -0.180D-04
Largest |displ|/coords:  0.0660 (   4)  0.0533 (   3)  0.0524 (   2)
................................................................................
.............................. CYCLE   60 ......................................
................................................................................
   1    -45.6200878 -0.456201E+02  0.566E-02    9.01       0.0  T
   2    -45.6200884 -0.558965E-06  0.424E-02    9.01       1.0  T
   3    -45.6200888 -0.370088E-06  0.463E-03    9.01       4.5  T
   4    -45.6200889 -0.811779E-07  0.238E-03    9.01       8.8  T
   5    -45.6200889 -0.544556E-08  0.527E-04    9.01      39.5  T
   6    -45.6200889 -0.375884E-09  0.332E-04    9.01      62.9  T
speedup  0.87
cpu  time for SCC    0.00 s
wall time for SCC    0.00 s
speedup  0.95
cpu  time for grad    0.01 s
wall time for grad    0.01 s
 E :    -45.36662609  G :  0.001713    pred/act E change: -0.783D-05 -0.122D-04
Maxdispl :   0.0590   ||displ|| :   0.0992   Lambda : -0.125D-04
Largest |displ|/coords:  0.0590 (   4)  0.0456 (   2)  0.0434 (   3)
................................................................................
.............................. CYCLE   61 ......................................
................................................................................
   1    -45.6200483 -0.456200E+02  0.477E-02    9.01       0.0  T
   2    -45.6200487 -0.431679E-06  0.356E-02    9.01       1.0  T
   3    -45.6200490 -0.283779E-06  0.422E-03    9.01       4.9  T
   4    -45.6200490 -0.619029E-07  0.195E-03    9.01      10.7  T
   5    -45.6200491 -0.351849E-08  0.466E-04    9.01      44.8  T
   6    -45.6200491 -0.332498E-09  0.288E-04    9.01      72.3  T
speedup  1.11
cpu  time for SCC    0.00 s
wall time for SCC    0.00 s
speedup  1.03
cpu  time for grad    0.01 s
wall time for grad    0.01 s
 E :    -45.36663502  G :  0.001586    pred/act E change: -0.913D-05 -0.893D-05
Maxdispl :   0.0527   ||displ|| :   0.0918   Lambda : -0.133D-04
Largest |displ|/coords:  0.0527 (   4)  0.0473 (   3)  0.0306 (   1)
................................................................................
.............................. CYCLE   62 ......................................
................................................................................
   1    -45.6202615 -0.456203E+02  0.403E-02    9.02       0.0  T
   2    -45.6202620 -0.479985E-06  0.299E-02    9.02       1.0  T
   3    -45.6202623 -0.270611E-06  0.460E-03    9.01       4.5  T
   4    -45.6202624 -0.684038E-07  0.186E-03    9.01      11.2  T
   5    -45.6202624 -0.298596E-08  0.429E-04    9.01      48.6  T
   6    -45.6202624 -0.321215E-09  0.256E-04    9.01      81.4  T
speedup  0.89
cpu  time for SCC    0.00 s
wall time for SCC    0.00 s
speedup  0.95
cpu  time for grad    0.01 s
wall time for grad    0.01 s
 E :    -45.36664344  G :  0.001687    pred/act E change: -0.630D-05 -0.842D-05
Maxdispl :   0.0646   ||displ|| :   0.1216   Lambda : -0.109D-04
Largest |displ|/coords:  0.0646 (   4)  0.0583 (   3)  0.0533 (   1)
................................................................................
.............................. CYCLE   63 ......................................
................................................................................
   1    -45.6194243 -0.456194E+02  0.622E-02    9.01       0.0  T
   2    -45.6194253 -0.103006E-05  0.465E-02    9.01       1.0  T
   3    -45.6194259 -0.626815E-06  0.634E-03    9.01       3.3  T
   4    -45.6194261 -0.154443E-06  0.253E-03    9.01       8.2  T
   5    -45.6194261 -0.702038E-08  0.676E-04    9.01      30.9  T
   6    -45.6194261 -0.623920E-09  0.407E-04    9.01      51.3  T
speedup  1.11
cpu  time for SCC    0.00 s
wall time for SCC    0.00 s
speedup  1.03
cpu  time for grad    0.01 s
wall time for grad    0.01 s
 E :    -45.36664788  G :  0.002061    pred/act E change: -0.672D-05 -0.444D-05
Maxdispl :   0.0250   ||displ|| :   0.0353   Lambda : -0.106D-04
Largest |displ|/coords:  0.0250 (   5)  0.0095 (   2)  0.0088 (   1)
................................................................................
.............................. CYCLE   64 ......................................
................................................................................
   1    -45.6197108 -0.456197E+02  0.209E-02    9.00       0.0  T
   2    -45.6197110 -0.187279E-06  0.156E-02    9.00       1.3  T
   3    -45.6197110 -0.893519E-07  0.315E-03    9.00       6.6  T
   4    -45.6197111 -0.285162E-07  0.856E-04    9.00      24.4  T
   5    -45.6197111 -0.104010E-08  0.258E-04    9.00      80.7  T
speedup  1.05
cpu  time for SCC    0.00 s
wall time for SCC    0.00 s
speedup  1.02
cpu  time for grad    0.01 s
wall time for grad    0.01 s
 E :    -45.36665419  G :  0.001265    pred/act E change: -0.551D-05 -0.631D-05
Maxdispl :   0.0200   ||displ|| :   0.0351   Lambda : -0.616D-05
Largest |displ|/coords:  0.0200 (   1)  0.0197 (   5)  0.0129 (   3)
................................................................................
.............................. CYCLE   65 ......................................
................................................................................
   1    -45.6195479 -0.456195E+02  0.212E-02    9.00       0.0  T
   2    -45.6195481 -0.210715E-06  0.157E-02    9.00       1.3  T
   3    -45.6195482 -0.869700E-07  0.307E-03    8.99       6.8  T
   4    -45.6195482 -0.298836E-07  0.942E-04    8.99      22.1  T
   5    -45.6195482 -0.978432E-09  0.233E-04    8.99      89.4  T
speedup  0.79
cpu  time for SCC    0.00 s
wall time for SCC    0.00 s
speedup  1.01
cpu  time for grad    0.01 s
wall time for grad    0.01 s
 E :    -45.36665854  G :  0.001191    pred/act E change: -0.531D-05 -0.435D-05
Maxdispl :   0.0349   ||displ|| :   0.0638   Lambda : -0.684D-05
Largest |displ|/coords:  0.0349 (   1)  0.0310 (   5)  0.0259 (   3)
[...]
.............................. CYCLE   80 ......................................
................................................................................
   1    -45.6121865 -0.456122E+02  0.439E-02    9.15       0.0  T
   2    -45.6121872 -0.720145E-06  0.333E-02    9.15       1.0  T
   3    -45.6121879 -0.715086E-06  0.509E-03    9.15       4.1  T
   4    -45.6121880 -0.773941E-07  0.207E-03    9.15      10.1  T
   5    -45.6121880 -0.513247E-08  0.562E-04    9.15      37.1  T
   6    -45.6121880 -0.551488E-09  0.302E-04    9.15      69.1  T
speedup  1.06
cpu  time for SCC    0.01 s
wall time for SCC    0.00 s
speedup  1.02
cpu  time for grad    0.01 s
wall time for grad    0.01 s
 E :    -45.36777912  G :  0.003662    pred/act E change: -0.728D-04 -0.260D-04
Maxdispl :   0.0214   ||displ|| :   0.0396   Lambda : -0.323D-04
Largest |displ|/coords:  0.0214 (   1)  0.0142 (   9)  0.0109 (  32)
................................................................................
.............................. CYCLE   81 ......................................
................................................................................
   1    -45.6128057 -0.456128E+02  0.268E-02    9.14       0.0  T
   2    -45.6128060 -0.305308E-06  0.200E-02    9.14       1.0  T
   3    -45.6128062 -0.146805E-06  0.385E-03    9.14       5.4  T
   4    -45.6128062 -0.477542E-07  0.858E-04    9.14      24.3  T
   5    -45.6128062 -0.158382E-08  0.286E-04    9.14      72.9  T
speedup  1.00
cpu  time for SCC    0.00 s
wall time for SCC    0.00 s
speedup  1.07
cpu  time for grad    0.01 s
wall time for grad    0.01 s
 E :    -45.36780093  G :  0.002330    pred/act E change: -0.245D-04 -0.218D-04
Maxdispl :   0.0420   ||displ|| :   0.0785   Lambda : -0.326D-04
Largest |displ|/coords:  0.0420 (   5)  0.0301 (   4)  0.0297 (   2)

generating ANC from model Hessian ...
 Shifting diagonal of input Hessian by   4.699275028393616E-003
 Lowest  eigenvalues of input Hessian
   -0.000000   -0.000000   -0.000000    0.000000    0.000000    0.000000
    0.005000    0.005149    0.005694    0.006037    0.006796    0.007553
    0.008224    0.008775    0.010576    0.011108    0.013465    0.015163
 Highest eigenvalues
    1.385578    1.388716    1.405149    2.814568    3.323195    3.591166
 
cpu  time for ANC gen    0.01 s
wall time for ANC gen    0.01 s
................................................................................
.............................. CYCLE   82 ......................................
................................................................................
   1    -45.6128063 -0.456128E+02  0.521E-02    9.13       0.0  T
   2    -45.6128068 -0.549476E-06  0.382E-02    9.13       1.0  T
   3    -45.6128073 -0.472291E-06  0.577E-03    9.12       3.6  T
   4    -45.6128073 -0.449571E-07  0.156E-03    9.12      13.4  T
   5    -45.6128073 -0.277443E-08  0.497E-04    9.12      41.9  T
   6    -45.6128073 -0.311132E-09  0.272E-04    9.12      76.7  T
speedup  1.09
cpu  time for SCC    0.00 s
wall time for SCC    0.00 s
speedup  1.02
cpu  time for grad    0.01 s
wall time for grad    0.01 s
 E :    -45.36781305  G :  0.001860    pred/act E change:  0.000D+00 -0.121D-04
Maxdispl :   0.0098   ||displ|| :   0.0182   Lambda : -0.861D-05
Largest |displ|/coords:  0.0098 (   5)  0.0083 (  15)  0.0056 (   8)
................................................................................
.............................. CYCLE   83 ......................................
................................................................................
   1    -45.6128660 -0.456129E+02  0.158E-02    9.12       0.0  T
   2    -45.6128660 -0.562960E-07  0.117E-02    9.12       1.8  T
   3    -45.6128661 -0.433315E-07  0.139E-03    9.11      15.0  T
   4    -45.6128661 -0.598883E-08  0.532E-04    9.11      39.2  T
   5    -45.6128661 -0.229221E-09  0.154E-04    9.12     135.4  T
speedup  1.03
cpu  time for SCC    0.00 s
wall time for SCC    0.00 s
speedup  1.00
cpu  time for grad    0.01 s
wall time for grad    0.01 s
 E :    -45.36781908  G :  0.001093    pred/act E change:  0.000D+00 -0.604D-05
Maxdispl :   0.0143   ||displ|| :   0.0258   Lambda : -0.626D-05
Largest |displ|/coords:  0.0143 (   5)  0.0109 (  15)  0.0078 (  11)
................................................................................
.............................. CYCLE   84 ......................................
................................................................................
   1    -45.6128857 -0.456129E+02  0.241E-02    9.11       0.0  T
   2    -45.6128858 -0.110197E-06  0.178E-02    9.11       1.2  T
   3    -45.6128859 -0.925494E-07  0.171E-03    9.10      12.2  T
   4    -45.6128859 -0.885722E-08  0.707E-04    9.10      29.5  T
   5    -45.6128859 -0.394110E-09  0.215E-04    9.10      96.9  T
speedup  1.03
cpu  time for SCC    0.00 s
wall time for SCC    0.00 s
speedup  1.00
cpu  time for grad    0.01 s
wall time for grad    0.01 s
 E :    -45.36782270  G :  0.000762    pred/act E change: -0.431D-05 -0.361D-05
Maxdispl :   0.0077   ||displ|| :   0.0152   Lambda : -0.174D-05
Largest |displ|/coords:  0.0077 (   5)  0.0058 (   8)  0.0053 (   4)
................................................................................
.............................. CYCLE   85 ......................................
................................................................................
   1    -45.6128807 -0.456129E+02  0.109E-02    9.10       0.0  T
   2    -45.6128807 -0.283219E-07  0.812E-03    9.10       2.6  T
   3    -45.6128808 -0.234798E-07  0.954E-04    9.10      21.8  T
   4    -45.6128808 -0.287699E-08  0.355E-04    9.10      58.8  T
speedup  0.94
cpu  time for SCC    0.00 s
wall time for SCC    0.00 s
speedup  0.97
cpu  time for grad    0.01 s
wall time for grad    0.01 s
 E :    -45.36782387  G :  0.000507    pred/act E change: -0.313D-05 -0.117D-05
Maxdispl :   0.0090   ||displ|| :   0.0182   Lambda : -0.138D-05
Largest |displ|/coords:  0.0090 (   4)  0.0061 (   1)  0.0060 (   5)
................................................................................
.............................. CYCLE   86 ......................................
................................................................................
   1    -45.6128935 -0.456129E+02  0.113E-02    9.09       0.0  T
   2    -45.6128936 -0.343364E-07  0.842E-03    9.09       2.5  T
   3    -45.6128936 -0.254530E-07  0.110E-03    9.09      19.0  T
   4    -45.6128936 -0.419551E-08  0.417E-04    9.09      50.0  T
   5    -45.6128936 -0.183618E-09  0.123E-04    9.09     169.2  T
speedup  1.03
cpu  time for SCC    0.00 s
wall time for SCC    0.00 s
speedup  1.09
cpu  time for grad    0.01 s
wall time for grad    0.01 s
 E :    -45.36782467  G :  0.000304    pred/act E change: -0.872D-06 -0.808D-06
Maxdispl :   0.0052   ||displ|| :   0.0102   Lambda : -0.614D-06
Largest |displ|/coords:  0.0052 (   3)  0.0036 (   1)  0.0032 (   8)
................................................................................
.............................. CYCLE   87 ......................................
................................................................................
   1    -45.6129317 -0.456129E+02  0.611E-03    9.09       0.0  T
   2    -45.6129317 -0.968580E-08  0.453E-03    9.09       4.6  T
   3    -45.6129317 -0.738965E-08  0.564E-04    9.09      37.0  T
   4    -45.6129317 -0.115093E-08  0.216E-04    9.09      96.5  T
speedup  0.97
cpu  time for SCC    0.00 s
wall time for SCC    0.00 s
speedup  0.97
cpu  time for grad    0.01 s
wall time for grad    0.01 s
 E :    -45.36782495  G :  0.000236    pred/act E change: -0.692D-06 -0.276D-06
Maxdispl :   0.0025   ||displ|| :   0.0040   Lambda : -0.206D-06
Largest |displ|/coords:  0.0025 (   4)  0.0019 (   5)  0.0015 (   6)
................................................................................
.............................. CYCLE   88 ......................................
................................................................................
   1    -45.6129594 -0.456130E+02  0.257E-03    9.09       0.0  T
   2    -45.6129594 -0.127805E-08  0.190E-03    9.09      10.9  T
   3    -45.6129594 -0.882956E-09  0.216E-04    9.09      96.5  T
   4    -45.6129594 -0.154373E-09  0.843E-05    9.09     247.3  T
speedup  0.97
cpu  time for SCC    0.00 s
wall time for SCC    0.00 s
speedup  1.08
cpu  time for grad    0.01 s
wall time for grad    0.01 s
 E :    -45.36782509  G :  0.000134    pred/act E change: -0.307D-06 -0.143D-06
Maxdispl :   0.0027   ||displ|| :   0.0043   Lambda : -0.113D-06
Largest |displ|/coords:  0.0027 (   4)  0.0022 (   5)  0.0013 (   2)
................................................................................
.............................. CYCLE   89 ......................................
................................................................................
   1    -45.6129819 -0.456130E+02  0.260E-03    9.09       0.0  T
   2    -45.6129819 -0.142369E-08  0.193E-03    9.09      10.8  T
   3    -45.6129819 -0.806637E-09  0.258E-04    9.09      80.8  T
   4    -45.6129819 -0.212275E-09  0.852E-05    9.09     244.6  T
speedup  0.97
cpu  time for SCC    0.00 s
wall time for SCC    0.00 s
speedup  0.96
cpu  time for grad    0.01 s
wall time for grad    0.01 s
 E :    -45.36782517  G :  0.000069    pred/act E change: -0.103D-06 -0.735D-07
Maxdispl :   0.0019   ||displ|| :   0.0032   Lambda : -0.460D-07
Largest |displ|/coords:  0.0019 (   4)  0.0017 (   5)  0.0011 (   3)

   *** GEOMETRY OPTIMIZATION CONVERGED AFTER 89 ITERATIONS ***

------------------------------------------------------------------------
 total energy gain (kcal):     -0.0076
------------------------------------------------------------------------
================
 final structure:
================
$coord
       -1.03486419854316        0.04290377233922        1.37076182487481      S 
       -3.92097369978547        0.36155878262402        1.77468367799962      O 
       -0.38491482206421        1.44445055310049       -0.95958185346410      O 
        0.30657396410531        1.08626277919643        3.51125290884323      O 
       -0.60296935152624       -2.65289854123704        0.99802046436966      O 
        4.70938492564431        1.33295598030443        1.06794657115810      O 
        4.21335260981341        2.55553089923007       -0.17860817210104      H 
        3.29695015173291        1.26418770673885        2.25950185550918      H 
        4.00401684417614       -3.17349533959019       -0.99692938125387      O 
        4.77466326158070       -1.65106547846735       -0.24576776470310      H 
        2.53118907968254       -3.48623719203268        0.07542963552730      H 
       -2.29770204423247       -4.57832398887438       -3.23065827533219      O 
       -2.03215590350945       -3.96778813388929       -1.48831146243597      H 
       -1.98442214710772       -6.36382960701541       -3.20188022113492      H 
        1.17442120236897       -1.38438448320484       -4.32246328780080      O 
       -0.22808429856742       -2.69088836301376       -4.33992415520177      H 
        0.45174447325771        0.00409649961155       -3.03927207529175      H 
        2.60697696384623       -2.21411637517655       -3.17699767758212      H 
       -3.18492044789460        5.09907804145252        2.87475809824452      N 
       -4.09988428659700        2.19771861969830        2.18666177802207      H 
       -1.56305865737378        4.40265612853186        3.63366870384505      H 
       -2.73206639862722        6.08297772767277        1.29972123705601      H 
       -4.00325725900894        6.28865001462560        4.12798757086280      H 
$end
 
 Bond Distances (Angstroems)
 ---------------------------
S1-O2=1.5513         S1-O3=1.4795         S1-O4=1.4463         S1-O5=1.4582         O2-S1=1.5513         O2-H20=1.0003        
O3-S1=1.4795         O4-S1=1.4463         O5-S1=1.4582         O6-H7=0.9605         O6-H8=0.9785         H7-O6=0.9605         
H8-O6=0.9785         O9-H10=0.9866        O9-H11=0.9782        H10-O9=0.9866        H11-O9=0.9782        O12-H13=0.9870       
O12-H14=0.9594       H13-O12=0.9870       H14-O12=0.9594       O15-H16=1.0143       O15-H17=1.0711       O15-H18=1.0653       
H16-O15=1.0143       H17-O15=1.0711       H18-O15=1.0653       N19-H21=1.0167       N19-H22=1.0115       N19-H23=1.0117       
H20-O2=1.0003        H21-N19=1.0167       H22-N19=1.0115       H23-N19=1.0117       
 N  H  Rav=1.0133 sigma=0.0024  Rmin=1.0115  Rmax=1.0167     3
 O  H  Rav=1.0001 sigma=0.0374  Rmin=0.9594  Rmax=1.0711    10
 S  O  Rav=1.4838 sigma=0.0408  Rmin=1.4463  Rmax=1.5513     4
 
 selected bond angles (degree)
 --------------------
O3-S1-O2=106.81                O4-S1-O2=109.50                O4-S1-O3=110.32                O5-S1-O2=106.22                
O5-S1-O3=109.95                O5-S1-O4=113.73                H20-O2-S1=103.23               H8-O6-H7=105.00                
H11-O9-H10=103.52              
 
 selected dihedral angles (degree)
 ---------------------------------
H20-O2-S1-O3=292.02           H20-O2-S1-O4= 51.49           H20-O2-S1-O5=174.69           
 
 CMA Distance (Angstroems)
 ---------------------------
R(CMA):  1.6110

========================================================================
 FINAL SINGLEPOINT CALCULATION ON OPTIMIZED GEOMETRY
========================================================================

 Ncao       : 59
 Nao        : 58
 Nshell     : 34
 Nel        : 72
 T(el)      :   300.0
 intcut     :    25.0
 scfconv/Eh :  0.100E-05
   qconv/e  :  0.100E-03
 intneglect :  0.100E-07
 broydamp   :      0.250
 iter      E             dE          RMSdq      gap      omega  full diag
   1    -45.6129819 -0.456130E+02  0.287E-05    9.09       0.0  T
   2    -45.6129819 -0.810019E-12  0.182E-05    9.09    1147.9  T
   3    -45.6129819 -0.333955E-12  0.343E-06    9.09    6080.7  T
speedup  1.25
cpu  time for SCC    0.00 s
wall time for SCC    0.00 s

   *** convergence criteria satisfied after 3 iterations ***

          eigenvalues
 #    :          24         25         26         27         28         29         30         31
 occ. :        2.000      2.000      2.000      2.000      2.000      2.000      2.000      2.000
 eps  :       -14.041    -13.781    -13.247    -12.709    -12.656    -12.547    -12.459    -12.339
 #    :          32         33         34         35         36         37         38         39
 occ. :        2.000      2.000      2.000      2.000      2.000      0.000      0.000      0.000
 eps  :       -12.213    -12.063    -12.009    -11.891    -11.387     -2.301     -0.182     -0.130
 #    :          40         41         42         43         44         45         46         47
 occ. :        0.000      0.000      0.000      0.000      0.000      0.000      0.000      0.000
 eps  :         0.540      0.835      1.260      1.815      3.292      4.376      5.099      5.448


   #   Z            q   n(s)   n(p)   n(d)      C6AA      α(0)
   1  16 S      1.694  1.587  1.775  0.943    88.905    15.870
   2   8 O     -0.609  1.754  4.855  0.000    25.383     6.801
   3   8 O     -0.761  1.775  4.986  0.000    30.361     7.390
   4   8 O     -0.742  1.774  4.968  0.000    29.868     7.327
   5   8 O     -0.747  1.762  4.985  0.000    30.019     7.346
   6   8 O     -0.609  1.742  4.867  0.000    25.401     6.802
   7   1 H      0.295  0.705  0.000  0.000     0.737     1.349
   8   1 H      0.317  0.683  0.000  0.000     0.672     1.287
   9   8 O     -0.603  1.754  4.849  0.000    25.235     6.781
  10   1 H      0.338  0.662  0.000  0.000     0.617     1.234
  11   1 H      0.326  0.674  0.000  0.000     0.649     1.265
  12   8 O     -0.604  1.744  4.860  0.000    25.289     6.787
  13   1 H      0.334  0.666  0.000  0.000     0.628     1.245
  14   1 H      0.298  0.702  0.000  0.000     0.726     1.338
  15   8 O     -0.510  1.735  4.775  0.000    23.052     6.484
  16   1 H      0.378  0.622  0.000  0.000     0.528     1.142
  17   1 H      0.389  0.611  0.000  0.000     0.500     1.108
  18   1 H      0.384  0.616  0.000  0.000     0.514     1.125
  19   7 N     -0.454  1.362  4.092  0.000    31.934     8.393
  20   1 H      0.361  0.639  0.000  0.000     0.554     1.165
  21   1 H      0.188  0.812  0.000  0.000     1.172     1.696
  22   1 H      0.168  0.832  0.000  0.000     1.284     1.775
  23   1 H      0.169  0.831  0.000  0.000     1.276     1.770

 Mol. C6AA /au·bohr⁶  :       4529.624585
 Mol. C8AA /au·bohr⁸  :      99596.689635
 Mol. α(0) /au        :         97.480242

 
 Wiberg/Mayer (AO) data. WBOs > 0.1 written file <wbo>
 largest (>0.05) Wiberg bond orders for each atom
           total WBO             WBO to atom ...
     1  S   4.828    O    4 1.323    O    5 1.294    O    3 1.204    O    2 0.966
     2  O   1.977    S    1 0.966    H   20 0.731    O    4 0.084    O    3 0.075    O    5 0.066
     3  O   1.736    S    1 1.204    H   17 0.189    O    5 0.104    O    4 0.100    O    2 0.075    O   15 0.055
     4  O   1.725    S    1 1.323    O    5 0.104    O    3 0.100    O    2 0.084    H    8 0.052
     5  O   1.728    S    1 1.294    O    3 0.104    O    4 0.104    O    2 0.066    H   13 0.065
     6  O   1.876    H    7 0.908    H    8 0.842    H   10 0.064
     7  H   0.913    O    6 0.908
     8  H   0.899    O    6 0.842    O    4 0.052
     9  O   1.987    H   11 0.847    H   10 0.819    H   18 0.194    O   15 0.069
    10  H   0.885    O    9 0.819    O    6 0.064
    11  H   0.894    O    9 0.847
    12  O   1.911    H   14 0.906    H   13 0.820    H   16 0.108
    13  H   0.888    O   12 0.820    O    5 0.065
    14  H   0.911    O   12 0.906
    15  O   2.236    H   16 0.745    H   18 0.654    H   17 0.649    O    9 0.069    O    3 0.055
    16  H   0.857    O   15 0.745    O   12 0.108
    17  H   0.849    O   15 0.649    O    3 0.189
    18  H   0.853    O   15 0.654    O    9 0.194
    19  N   3.064    H   22 0.970    H   23 0.967    H   21 0.945    H   20 0.121
    20  H   0.869    O    2 0.731    N   19 0.121
    21  H   0.965    N   19 0.945
    22  H   0.972    N   19 0.970
    23  H   0.971    N   19 0.967
 MOs/occ written to file <molden.input>
 
molecular dipole:
                 x           y           z       tot (Debye)
 q only:       -0.260       0.268      -1.073
   full:       -0.609       0.736      -0.365       2.600
molecular quadrupole (traceless):
                xx          xy          yy          xz          yz          zz
 q only:       -7.623      -4.089      11.292      -5.278       7.417      -3.669
  q+dip:      -12.683      -2.747      18.343      -5.077       8.004      -5.660
   full:      -12.661      -3.077      18.397      -5.385       8.115      -5.736

SCC energy    :     -45.6129819
rep           :       0.2450414
ES            :       0.2152111
AES           :      -0.0621862
AXC           :      -0.0074886
disp          :      -0.0174983
XB            :       0.0000000
fix           :       0.0000000
total E       :     -45.3678252
atomizationE  :       4.4508877     2792.97
(atE without considering molecular charge,
 total energy contains solvation terms)
H-L gap (eV)  :          9.0862
optimized geometry written to: xtbopt.xyz


------------------------------------------------------------------------
 * finished run on 2019/09/16 at 11:37:11.780     
------------------------------------------------------------------------
 total:
 * wall-time:     0 d,  0 h,  0 min,  1.750 sec
 *  cpu-time:     0 d,  0 h,  0 min,  1.731 sec
 * ratio c/w:     0.989 speedup
 SCF:
 * wall-time:     0 d,  0 h,  0 min,  0.131 sec
 *  cpu-time:     0 d,  0 h,  0 min,  0.127 sec
 * ratio c/w:     0.971 speedup
 ANC optimizer:
 * wall-time:     0 d,  0 h,  0 min,  1.593 sec
 *  cpu-time:     0 d,  0 h,  0 min,  1.579 sec
 * ratio c/w:     0.991 speedup

