      -----------------------------------------------------------      
     |                   =====================                   |     
     |                           x T B                           |     
     |                   =====================                   |     
     |                         S. Grimme                         |     
     |          Mulliken Center for Theoretical Chemistry        |     
     |                    University of Bonn                     |     
     |                 Version 6.0.1 (SAW181210)                 |     
      -----------------------------------------------------------      

   This program is distributed in the hope that it will be useful,
   but WITHOUT ANY WARRANTY; without even the implied warranty of
   MERCHANTABILITY or FITNESS FOR A PARTICULAR PURPOSE.
   
   FOR NON-COMMERCIAL, ACADEMIA USE ONLY.
   
   Cite this work as:
   S. Grimme, C. Bannwarth, P. Shushkov, J. Comput. Theory Chem., 2017,
   13, 1989-2009.
   C. Bannwarth, S. Ehlert and S. Grimme., ChemRxiv, 2018, preprint.
   http://doi.org/10.26434/chemrxiv.7246238.v1
   
   for sTDA-xTB:
   S. Grimme and C. Bannwarth, J. Chem. Phys., 2016, 145, 054103.
   
   in the mass-spec context:
   V. Asgeirsson, C. Bauer and S. Grimme, Chem. Sci., 2017, 8, 4879.
   
   if GBSA is used:
   P. Shushkov, F. März and S. Grimme, unpublished.
   
   for ANC optimizer:
   S. Grimme, unpublished.
   Rational Function algorithm used in ANCopt:
   F. Eckert, P. Pulay, H.-J. Werner, J. Comput. Chem., 1997, 18, 1473.
   
   with help from (in alphabetical order)
   C. Bannwarth, F. Bohle, G. Brandenburg, E. Caldeweyher, M. Checinski,
   S. Dohm, S. Ehlert, S. Ehrlich, F. März, H. Neugebauer, J. Pisarek,
   P. Pracht, P. Shushkov, and S. Spicher.
   
 * started run on 2019/09/16 at 12:02:30.306     
========================================================================
 # omp threads = 1
========================================================================
number of atoms            : 23
number of electrons        : 72
charge                     : 0
spin                       : .0
first test random number   : .5772

########################################################################
# WARNING! Please study the warnings concerning your input carefully
#  - XTBPATH is not set, using XTBHOME instead
#  - the use of '-opt' is discouraged, please use '--opt' next time
#  - the use of '-chrg' is discouraged, please use '--chrg' next time
#  - the use of '-uhf' is discouraged, please use '--uhf' next time
########################################################################

           ------------------------------------------------- 
          |                 G F N 2 - x T B                 |
          | Geometry, Frequencies, Noncovalent interactions |
          |            JCTC 2018 parametrisation            |
           ------------------------------------------------- 
      method parameters     
 k(s)        :  1.8500
 k(p)        :  2.2300
 k(d)        :  2.2300
 k(f)        :  2.0000
 kEN (H0ij)  : -2.0000
 D4 a1       :  0.5200
 D4 a2       :  5.0000
 D4 s6       :  1.0000
 D4 s8       :  2.7000
 D4 s9       :  5.0000
 alphaj      :  2.0000


            Z     q(EN)     CN     RAES       Cart. coordinates
     1  S   6.0    0.67    4.14    3.94    -1.08044     1.92306    -0.11506
     2  O   6.0   -0.32    1.21    1.80     1.70088     2.17385     0.24474
     3  O   6.0   -0.34    1.24    1.80    -1.79932    -0.79717    -0.00686
     4  O   6.0   -0.30    1.19    1.80    -2.42105     3.32990     1.92251
     5  O   6.0   -0.30    1.24    1.80    -1.80228     2.98565    -2.62065
     6  O   6.0   -0.28    2.00    1.83     4.55110    -0.60085    -2.88468
     7  H   1.0    0.17    1.06    1.44     3.63570     0.42188    -1.68857
     8  H   1.0    0.15    0.97    1.43     5.99074     0.40119    -3.37250
     9  O   6.0   -0.29    2.01    1.83    -0.94034    -2.68896     4.67832
    10  H   1.0    0.17    1.05    1.44    -1.36657    -2.13696     2.99658
    11  H   1.0    0.15    0.97    1.43    -1.58891    -4.38525     4.80713
    12  O   6.0   -0.29    2.07    1.83     0.40852    -3.36009    -3.81704
    13  H   1.0    0.17    1.03    1.43    -0.31945    -2.97044    -2.19444
    14  H   1.0    0.17    1.02    1.43     2.14396    -2.82063    -3.70819
    15  O   6.0   -0.22    2.89    2.51    -2.77083    -0.34429    -5.96406
    16  H   1.0    0.12    0.96    1.43    -4.52526    -0.94251    -5.73181
    17  H   1.0    0.16    1.09    1.44    -2.43969     1.23630    -5.02487
    18  H   1.0    0.14    1.05    1.44    -1.51997    -1.67231    -5.56006
    19  N   5.0   -0.14    3.97    2.77     0.82865     2.04952     5.60790
    20  H   1.0    0.10    1.04    1.43     0.38226     0.16782     5.81857
    21  H   1.0    0.08    0.99    1.43     1.12580     2.84536     7.35799
    22  H   1.0    0.10    0.99    1.43     2.44392     2.21681     4.53675
    23  H   1.0    0.12    1.08    1.44    -0.63739     2.96811     4.71830

  Z AO/shell   Hii/eV     exponent
  1     Wed Apr 25 08:07:45 CEST 2018   EN: 2.200 GM2: 0.406  GM3: 0.0800  RAES: 1.40
     1s    -10.707211    1.230000
  7     Wed Apr 25 08:07:45 CEST 2018   EN: 3.040 GM2: 0.461  GM3:-0.0640  RAES: 1.90
     2s    -16.686243    2.339881
     2p    -12.523956    2.014332
  8     Wed Apr 25 08:07:45 CEST 2018   EN: 3.440 GM2: 0.452  GM3:-0.0517  RAES: 1.80
     2s    -20.229985    2.439742
     2p    -15.503117    2.137023
 16     Tue Apr 24 11:44:34 CEST 2018   EN: 2.580 GM2: 0.340  GM3:-0.0502  RAES: 3.10
     3s    -20.029654    1.981333
     3p    -11.377694    2.025643
     3d     -0.420282    1.702555
 no old-style atom pair restraining (fixing) potential

molecular fragmentation (1/2 indicates fragments):
11111222222222222222222
# atoms in fragment 1/2:     5    18
 fragment masses (1/2) :       96.06       91.11
CMA distance (Bohr)    :   3.261
constraining FC (au)   :  0.0500
           ------------------------------------------------- 
          |        Self-Consistent Charge Iterations        |
           ------------------------------------------------- 

 Ncao       : 59
 Nao        : 58
 Nshell     : 34
 Nel        : 72
 T(el)      :   300.0
 intcut     :    25.0
 scfconv/Eh :  0.100E-05
   qconv/e  :  0.100E-03
 intneglect :  0.100E-07
 broydamp   :      0.250
 iter      E             dE          RMSdq      gap      omega  full diag
   1    -45.4926347 -0.454926E+02  0.712E+00   10.45       0.0  T
   2    -45.5282608 -0.356261E-01  0.513E+00   10.07       1.0  T
   3    -45.5590665 -0.308056E-01  0.110E+00    7.80       1.0  T
   4    -45.5624757 -0.340923E-02  0.549E-01    7.79       1.0  T
   5    -45.5632938 -0.818140E-03  0.231E-01    7.68       1.0  T
   6    -45.5635025 -0.208631E-03  0.123E-01    7.71       1.0  T
   7    -45.5635811 -0.786013E-04  0.449E-02    7.77       1.0  T
   8    -45.5635888 -0.773447E-05  0.249E-02    7.77       1.0  T
   9    -45.5635921 -0.330805E-05  0.838E-03    7.76       2.5  T
  10    -45.5635924 -0.253694E-06  0.169E-03    7.76      12.3  T
  11    -45.5635924 -0.123926E-07  0.802E-04    7.76      26.0  T
  12    -45.5635924 -0.276737E-08  0.313E-04    7.76      66.5  T
speedup  0.95
cpu  time for SCC    0.01 s
wall time for SCC    0.01 s

   *** convergence criteria satisfied after 12 iterations ***

          eigenvalues
 #    :          24         25         26         27         28         29         30         31
 occ. :        2.000      2.000      2.000      2.000      2.000      2.000      2.000      2.000
 eps  :       -11.935    -11.918    -11.845    -11.721    -11.124    -10.534    -10.408     -9.800
 #    :          32         33         34         35         36         37         38         39
 occ. :        2.000      2.000      2.000      2.000      2.000      0.000      0.000      0.000
 eps  :        -9.724     -9.650     -9.484     -9.359     -9.292     -1.530     -1.270      0.574
 #    :          40         41         42         43         44         45         46         47
 occ. :        0.000      0.000      0.000      0.000      0.000      0.000      0.000      0.000
 eps  :         2.163      2.439      2.794      2.942      3.015      3.341      4.979      5.153


   #   Z            q   n(s)   n(p)   n(d)      C6AA      α(0)
   1  16 S      1.479  1.608  1.911  1.002    93.962    16.315
   2   8 O     -0.803  1.782  5.020  0.000    31.671     7.545
   3   8 O     -0.807  1.781  5.027  0.000    31.809     7.562
   4   8 O     -0.779  1.782  4.997  0.000    30.958     7.460
   5   8 O     -0.774  1.772  5.003  0.000    30.820     7.443
   6   8 O     -0.624  1.740  4.884  0.000    25.775     6.852
   7   1 H      0.329  0.671  0.000  0.000     0.640     1.257
   8   1 H      0.271  0.729  0.000  0.000     0.816     1.419
   9   8 O     -0.626  1.731  4.895  0.000    25.815     6.857
  10   1 H      0.333  0.667  0.000  0.000     0.630     1.246
  11   1 H      0.282  0.718  0.000  0.000     0.778     1.385
  12   8 O     -0.632  1.738  4.894  0.000    25.975     6.879
  13   1 H      0.325  0.675  0.000  0.000     0.649     1.266
  14   1 H      0.332  0.668  0.000  0.000     0.632     1.249
  15   8 O     -0.399  1.641  4.758  0.000    20.766     6.155
  16   1 H      0.374  0.626  0.000  0.000     0.535     1.149
  17   1 H      0.421  0.579  0.000  0.000     0.448     1.052
  18   1 H      0.415  0.585  0.000  0.000     0.458     1.063
  19   7 N     -0.268  1.239  4.028  0.000    26.910     7.705
  20   1 H      0.308  0.692  0.000  0.000     0.689     1.301
  21   1 H      0.242  0.758  0.000  0.000     0.915     1.498
  22   1 H      0.285  0.715  0.000  0.000     0.760     1.365
  23   1 H      0.316  0.684  0.000  0.000     0.667     1.279

 Mol. C6AA /au·bohr⁶  :       4527.798010
 Mol. C8AA /au·bohr⁸  :     100305.611507
 Mol. α(0) /au        :         97.302488

 
 Wiberg/Mayer (AO) data. WBOs > 0.1 written file <wbo>
 largest (>0.05) Wiberg bond orders for each atom
           total WBO             WBO to atom ...
     1  S   5.014    O    4 1.268    O    2 1.249    O    5 1.244    O    3 1.220
     2  O   1.646    S    1 1.249    O    4 0.098    O    3 0.098    O    5 0.092    H    7 0.062
     3  O   1.657    S    1 1.220    O    2 0.098    O    5 0.094    O    4 0.094    H   10 0.059
     4  O   1.679    S    1 1.268    O    2 0.098    O    3 0.094    O    5 0.085    H   23 0.083
     5  O   1.700    S    1 1.244    H   17 0.131    O    3 0.094    O    2 0.092    O    4 0.085
     6  O   1.823    H    8 0.917    H    7 0.826
     7  H   0.892    O    6 0.826    O    2 0.062
     8  H   0.927    O    6 0.917
     9  O   1.834    H   11 0.909    H   10 0.827
    10  H   0.889    O    9 0.827    O    3 0.059
    11  H   0.920    O    9 0.909
    12  O   1.904    H   14 0.850    H   13 0.844    H   18 0.117
    13  H   0.894    O   12 0.844
    14  H   0.890    O   12 0.850
    15  O   2.335    H   16 0.853    H   18 0.706    H   17 0.681
    16  H   0.860    O   15 0.853
    17  H   0.823    O   15 0.681    O    5 0.131
    18  H   0.828    O   15 0.706    O   12 0.117
    19  N   3.579    H   21 0.936    H   22 0.903    H   20 0.850    H   23 0.809
    20  H   0.905    N   19 0.850
    21  H   0.941    N   19 0.936
    22  H   0.919    N   19 0.903
    23  H   0.900    N   19 0.809    O    4 0.083
 MOs/occ written to file <molden.input>
 
molecular dipole:
                 x           y           z       tot (Debye)
 q only:        0.199      -1.211       1.067
   full:        0.211      -1.001       1.326       4.257
molecular quadrupole (traceless):
                xx          xy          yy          xz          yz          zz
 q only:      -10.025      13.384     -24.623      20.655      11.926      34.648
  q+dip:       -5.711      15.728     -23.007      19.753       9.528      28.718
   full:       -5.707      15.976     -22.983      19.540       9.637      28.690

SCC energy    :     -45.5635924
rep           :       0.2623797
ES            :       0.3477392
AES           :      -0.0777807
AXC           :      -0.0097168
disp          :      -0.0163543
XB            :       0.0000000
fix           :       0.0000000
total E       :     -45.3010433
atomizationE  :       4.3841058     2751.07
(atE without considering molecular charge,
 total energy contains solvation terms)
H-L gap (eV)  :          7.7616
           ------------------------------------------------- 
          |                 ===============                 |
          |                   A N C O P T                   |
          |                 ===============                 |
          |          Approximate Normal Coordinate          |
          |           Rational Function Optimizer           |
           ------------------------------------------------- 
dumping coords to <xtbopt.coord> and <xtbopt.log>
 optlevel               2
 Maxcycle             460
 Maxmicro              25
 Econv         1.000000000000000E-007
 Gconv         2.000000000000000E-004
 Maxdispl       1.00000000000000     
 Hlow          5.000000000000000E-003
 S6             20.0000000000000     
 Nvar               63

generating ANC from model Hessian ...
 Shifting diagonal of input Hessian by   4.883443676415297E-003
 Lowest  eigenvalues of input Hessian
   -0.000000   -0.000000    0.000000    0.000000    0.000000    0.000000
    0.005000    0.005130    0.005329    0.005614    0.005781    0.006056
    0.006938    0.007153    0.007204    0.008028    0.008776    0.009994
 Highest eigenvalues
    1.423979    1.547773    1.560658    3.078800    3.082522    3.086217
 
cpu  time for ANC gen    0.01 s
wall time for ANC gen    0.01 s
................................................................................
.............................. CYCLE    1 ......................................
................................................................................
   1    -45.5635924 -0.455636E+02  0.894E-05    7.76       0.0  T
   2    -45.5635924 -0.166551E-10  0.695E-05    7.76     300.1  T
   3    -45.5635924 -0.143103E-10  0.373E-05    7.76     559.1  T
speedup  0.80
cpu  time for SCC    0.00 s
wall time for SCC    0.00 s
speedup  0.95
cpu  time for grad    0.01 s
wall time for grad    0.01 s
 E :    -45.30104329  G :  0.137181    pred/act E change:  0.000D+00 -0.260D-08
Maxdispl :   0.2870   ||displ|| :   0.5313   Lambda : -0.326D-01
Largest |displ|/coords:  0.2870 (  23)  0.1595 (  18)  0.1561 (  24)
................................................................................
.............................. CYCLE    2 ......................................
................................................................................
   1    -45.5722614 -0.455723E+02  0.407E-01    8.06       0.0  T
   2    -45.5726900 -0.428629E-03  0.296E-01    8.18       1.0  T
   3    -45.5728699 -0.179860E-03  0.102E-01    8.39       1.0  T
   4    -45.5728959 -0.260509E-04  0.361E-02    8.40       1.0  T
   5    -45.5728974 -0.151260E-05  0.989E-03    8.40       2.1  T
   6    -45.5728976 -0.185523E-06  0.521E-03    8.40       4.0  T
   7    -45.5728977 -0.879274E-07  0.223E-03    8.40       9.4  T
speedup  0.91
cpu  time for SCC    0.00 s
wall time for SCC    0.01 s
speedup  1.00
cpu  time for grad    0.01 s
wall time for grad    0.01 s
 E :    -45.32938210  G :  0.089524    pred/act E change:  0.000D+00 -0.283D-01
Maxdispl :   0.2343   ||displ|| :   0.5583   Lambda : -0.234D-01
Largest |displ|/coords:  0.2343 (  23)  0.2131 (  24)  0.1905 (  17)
................................................................................
.............................. CYCLE    3 ......................................
................................................................................
   1    -45.5807590 -0.455808E+02  0.391E-01    8.64       0.0  T
   2    -45.5815203 -0.761261E-03  0.278E-01    8.74       1.0  T
   3    -45.5818313 -0.311062E-03  0.120E-01    8.86       1.0  T
   4    -45.5818523 -0.209566E-04  0.410E-02    8.89       1.0  T
   5    -45.5818544 -0.214330E-05  0.124E-02    8.89       1.7  T
   6    -45.5818547 -0.314044E-06  0.640E-03    8.89       3.3  T
   7    -45.5818549 -0.137011E-06  0.276E-03    8.89       7.6  T
   8    -45.5818549 -0.389088E-07  0.109E-03    8.89      19.1  T
speedup  1.13
cpu  time for SCC    0.01 s
wall time for SCC    0.01 s
speedup  1.01
cpu  time for grad    0.01 s
wall time for grad    0.01 s
 E :    -45.34831372  G :  0.058623    pred/act E change: -0.209D-01 -0.189D-01
Maxdispl :   0.1853   ||displ|| :   0.4890   Lambda : -0.114D-01
Largest |displ|/coords:  0.1853 (  17)  0.1653 (  24)  0.1617 (   6)
................................................................................
.............................. CYCLE    4 ......................................
................................................................................
   1    -45.5842261 -0.455842E+02  0.342E-01    9.08       0.0  T
   2    -45.5849093 -0.683194E-03  0.241E-01    9.12       1.0  T
   3    -45.5851812 -0.271855E-03  0.112E-01    9.17       1.0  T
   4    -45.5851971 -0.159336E-04  0.391E-02    9.20       1.0  T
   5    -45.5851991 -0.198015E-05  0.112E-02    9.20       1.9  T
   6    -45.5851993 -0.240100E-06  0.558E-03    9.20       3.7  T
   7    -45.5851994 -0.964650E-07  0.242E-03    9.20       8.6  T
speedup  1.07
cpu  time for SCC    0.01 s
wall time for SCC    0.01 s
speedup  0.98
cpu  time for grad    0.01 s
wall time for grad    0.01 s
 E :    -45.35597867  G :  0.041678    pred/act E change: -0.153D-01 -0.766D-02
Maxdispl :   0.1729   ||displ|| :   0.3514   Lambda : -0.421D-02
Largest |displ|/coords:  0.1729 (   3)  0.1581 (   2)  0.1091 (   6)
................................................................................
.............................. CYCLE    5 ......................................
................................................................................
   1    -45.5880488 -0.455880E+02  0.270E-01    9.34       0.0  T
   2    -45.5882853 -0.236482E-03  0.198E-01    9.35       1.0  T
   3    -45.5883845 -0.991988E-04  0.803E-02    9.38       1.0  T
   4    -45.5883942 -0.971408E-05  0.257E-02    9.40       1.0  T
   5    -45.5883956 -0.147220E-05  0.669E-03    9.39       3.1  T
   6    -45.5883957 -0.733486E-07  0.348E-03    9.39       6.0  T
   7    -45.5883957 -0.245761E-07  0.121E-03    9.39      17.3  T
speedup  1.11
cpu  time for SCC    0.01 s
wall time for SCC    0.01 s
speedup  0.99
cpu  time for grad    0.01 s
wall time for grad    0.01 s
 E :    -45.35875358  G :  0.028000    pred/act E change: -0.706D-02 -0.277D-02
Maxdispl :   0.1884   ||displ|| :   0.4312   Lambda : -0.252D-02
Largest |displ|/coords:  0.1884 (   8)  0.1759 (   2)  0.1604 (   7)
................................................................................
.............................. CYCLE    6 ......................................
................................................................................
   1    -45.5916115 -0.455916E+02  0.272E-01    9.49       0.0  T
   2    -45.5917535 -0.142011E-03  0.198E-01    9.50       1.0  T
   3    -45.5918075 -0.540063E-04  0.632E-02    9.53       1.0  T
   4    -45.5918179 -0.103524E-04  0.161E-02    9.53       1.3  T
   5    -45.5918186 -0.764957E-06  0.559E-03    9.53       3.7  T
   6    -45.5918187 -0.450949E-07  0.294E-03    9.53       7.1  T
speedup  1.09
cpu  time for SCC    0.00 s
wall time for SCC    0.00 s
speedup  0.97
cpu  time for grad    0.01 s
wall time for grad    0.01 s
 E :    -45.36004956  G :  0.028848    pred/act E change: -0.236D-02 -0.130D-02
Maxdispl :   0.2076   ||displ|| :   0.4438   Lambda : -0.261D-02
Largest |displ|/coords:  0.2076 (   4)  0.1901 (  10)  0.1498 (   6)
................................................................................
.............................. CYCLE    7 ......................................
................................................................................
   1    -45.5885544 -0.455886E+02  0.585E-01    9.58       0.0  T
   2    -45.5887148 -0.160420E-03  0.443E-01    9.59       1.0  T
   3    -45.5887927 -0.778440E-04  0.781E-02    9.61       1.0  T
   4    -45.5888212 -0.285199E-04  0.234E-02    9.61       1.0  T
   5    -45.5888223 -0.112687E-05  0.703E-03    9.61       3.0  T
   6    -45.5888224 -0.360765E-07  0.415E-03    9.61       5.0  T
   7    -45.5888224 -0.271355E-07  0.115E-03    9.61      18.2  T
speedup  0.94
cpu  time for SCC    0.01 s
wall time for SCC    0.01 s
speedup  1.00
cpu  time for grad    0.01 s
wall time for grad    0.01 s
 E :    -45.35963762  G :  0.051067    pred/act E change: -0.150D-02  0.412D-03
Maxdispl :   0.2349   ||displ|| :   0.4234   Lambda : -0.832D-02
Largest |displ|/coords:  0.2349 (   4)  0.1591 (   6)  0.1393 (  10)
................................................................................
.............................. CYCLE    8 ......................................
................................................................................
   1    -45.5998816 -0.455999E+02  0.688E-01    9.60       0.0  T
   2    -45.6000737 -0.192074E-03  0.522E-01    9.58       1.0  T
   3    -45.6001882 -0.114509E-03  0.852E-02    9.56       1.0  T
   4    -45.6002203 -0.321296E-04  0.208E-02    9.56       1.0  T
   5    -45.6002214 -0.104021E-05  0.764E-03    9.57       2.7  T
   6    -45.6002214 -0.437253E-07  0.388E-03    9.57       5.4  T
   7    -45.6002214 -0.241999E-07  0.107E-03    9.57      19.5  T
speedup  0.94
cpu  time for SCC    0.00 s
wall time for SCC    0.01 s
speedup  1.00
cpu  time for grad    0.01 s
wall time for grad    0.01 s
 E :    -45.36070442  G :  0.043126    pred/act E change: -0.156D-02 -0.107D-02
Maxdispl :   0.0975   ||displ|| :   0.2350   Lambda : -0.265D-02
Largest |displ|/coords:  0.0975 (  16)  0.0820 (  11)  0.0705 (   2)
................................................................................
.............................. CYCLE    9 ......................................
................................................................................
   1    -45.6019336 -0.456019E+02  0.220E-01    9.58       0.0  T
   2    -45.6019710 -0.374004E-04  0.165E-01    9.58       1.0  T
   3    -45.6019870 -0.159563E-04  0.375E-02    9.60       1.0  T
   4    -45.6019927 -0.566744E-05  0.105E-02    9.60       2.0  T
   5    -45.6019929 -0.207743E-06  0.348E-03    9.59       6.0  T
   6    -45.6019929 -0.136032E-07  0.194E-03    9.59      10.7  T
speedup  0.87
cpu  time for SCC    0.00 s
wall time for SCC    0.00 s
speedup  0.97
cpu  time for grad    0.01 s
wall time for grad    0.01 s
 E :    -45.36235873  G :  0.034424    pred/act E change: -0.490D-02 -0.165D-02
Maxdispl :   0.1026   ||displ|| :   0.2876   Lambda : -0.272D-02
Largest |displ|/coords:  0.1026 (  10)  0.1001 (   6)  0.0983 (   5)
................................................................................
.............................. CYCLE   10 ......................................
................................................................................
   1    -45.6043742 -0.456044E+02  0.269E-01    9.61       0.0  T
   2    -45.6044760 -0.101890E-03  0.202E-01    9.60       1.0  T
   3    -45.6045317 -0.556642E-04  0.661E-02    9.59       1.0  T
   4    -45.6045420 -0.102578E-04  0.193E-02    9.60       1.1  T
   5    -45.6045428 -0.810246E-06  0.616E-03    9.60       3.4  T
   6    -45.6045428 -0.366548E-07  0.364E-03    9.60       5.7  T
   7    -45.6045428 -0.190514E-07  0.816E-04    9.60      25.6  T
speedup  0.94
cpu  time for SCC    0.00 s
wall time for SCC    0.01 s
speedup  1.00
cpu  time for grad    0.01 s
wall time for grad    0.01 s
 E :    -45.36387282  G :  0.031565    pred/act E change: -0.140D-02 -0.151D-02
Maxdispl :   0.1408   ||displ|| :   0.4098   Lambda : -0.323D-02
Largest |displ|/coords:  0.1408 (  15)  0.1375 (   2)  0.1349 (   3)
................................................................................
.............................. CYCLE   11 ......................................
................................................................................
   1    -45.6009345 -0.456009E+02  0.495E-01    9.52       0.0  T
   2    -45.6011020 -0.167544E-03  0.372E-01    9.54       1.0  T
   3    -45.6012040 -0.101973E-03  0.818E-02    9.47       1.0  T
   4    -45.6012273 -0.233494E-04  0.229E-02    9.49       1.0  T
   5    -45.6012283 -0.957695E-06  0.831E-03    9.49       2.5  T
   6    -45.6012284 -0.785059E-07  0.515E-03    9.50       4.1  T
   7    -45.6012284 -0.392772E-07  0.126E-03    9.50      16.5  T
speedup  0.94
cpu  time for SCC    0.00 s
wall time for SCC    0.01 s
speedup  0.99
cpu  time for grad    0.01 s
wall time for grad    0.01 s
 E :    -45.36405672  G :  0.061254    pred/act E change: -0.147D-02 -0.184D-03
Maxdispl :   0.1586   ||displ|| :   0.4304   Lambda : -0.973D-02
Largest |displ|/coords:  0.1586 (   6)  0.1542 (  15)  0.1244 (  14)
................................................................................
.............................. CYCLE   12 ......................................
................................................................................
   1    -45.6150443 -0.456150E+02  0.654E-01    9.48       0.0  T
   2    -45.6153128 -0.268482E-03  0.492E-01    9.50       1.0  T
   3    -45.6154894 -0.176583E-03  0.999E-02    9.52       1.0  T
   4    -45.6155240 -0.345702E-04  0.265E-02    9.53       1.0  T
   5    -45.6155252 -0.125742E-05  0.111E-02    9.53       1.9  T
   6    -45.6155253 -0.846116E-07  0.543E-03    9.53       3.8  T
   7    -45.6155254 -0.585583E-07  0.133E-03    9.53      15.7  T
speedup  0.94
cpu  time for SCC    0.00 s
wall time for SCC    0.01 s
speedup  1.00
cpu  time for grad    0.01 s
wall time for grad    0.01 s
 E :    -45.36378354  G :  0.061659    pred/act E change: -0.189D-02  0.273D-03
Maxdispl :   0.1253   ||displ|| :   0.3106   Lambda : -0.652D-02
Largest |displ|/coords:  0.1253 (  29)  0.1181 (  11)  0.0941 (  14)
................................................................................
.............................. CYCLE   13 ......................................
................................................................................
   1    -45.6205524 -0.456206E+02  0.380E-01    9.50       0.0  T
   2    -45.6207540 -0.201580E-03  0.287E-01    9.46       1.0  T
   3    -45.6208828 -0.128854E-03  0.957E-02    9.33       1.0  T
   4    -45.6209047 -0.218544E-04  0.292E-02    9.33       1.0  T
   5    -45.6209064 -0.171489E-05  0.111E-02    9.34       1.9  T
   6    -45.6209065 -0.906896E-07  0.527E-03    9.34       4.0  T
   7    -45.6209066 -0.552999E-07  0.163E-03    9.34      12.8  T
speedup  1.13
cpu  time for SCC    0.01 s
wall time for SCC    0.01 s
speedup  1.00
cpu  time for grad    0.01 s
wall time for grad    0.01 s
 E :    -45.36523310  G :  0.043547    pred/act E change: -0.577D-02 -0.145D-02
Maxdispl :   0.0928   ||displ|| :   0.2194   Lambda : -0.515D-02
Largest |displ|/coords:  0.0928 (  29)  0.0855 (  10)  0.0721 (  17)
................................................................................
.............................. CYCLE   14 ......................................
................................................................................
   1    -45.6077266 -0.456077E+02  0.203E-01    9.32       0.0  T
   2    -45.6078073 -0.806819E-04  0.150E-01    9.36       1.0  T
   3    -45.6078595 -0.522326E-04  0.568E-02    9.42       1.0  T
   4    -45.6078664 -0.685537E-05  0.163E-02    9.42       1.3  T
   5    -45.6078669 -0.502372E-06  0.656E-03    9.42       3.2  T
   6    -45.6078669 -0.636737E-07  0.338E-03    9.42       6.2  T
   7    -45.6078669 -0.116126E-07  0.914E-04    9.42      22.8  T
speedup  0.94
cpu  time for SCC    0.00 s
wall time for SCC    0.01 s
speedup  1.00
cpu  time for grad    0.01 s
wall time for grad    0.01 s
 E :    -45.36649450  G :  0.032596    pred/act E change: -0.358D-02 -0.126D-02
Maxdispl :   0.0770   ||displ|| :   0.1598   Lambda : -0.145D-02
Largest |displ|/coords:  0.0770 (   1)  0.0705 (   3)  0.0464 (  15)
................................................................................
.............................. CYCLE   15 ......................................
................................................................................
   1    -45.6176650 -0.456177E+02  0.159E-01    9.45       0.0  T
   2    -45.6176892 -0.242127E-04  0.119E-01    9.43       1.0  T
   3    -45.6177035 -0.142671E-04  0.303E-02    9.39       1.0  T
   4    -45.6177063 -0.277304E-05  0.102E-02    9.40       2.0  T
   5    -45.6177065 -0.200321E-06  0.306E-03    9.40       6.8  T
   6    -45.6177065 -0.682859E-08  0.179E-03    9.40      11.7  T
speedup  1.06
cpu  time for SCC    0.00 s
wall time for SCC    0.00 s
speedup  0.88
cpu  time for grad    0.01 s
wall time for grad    0.01 s
 E :    -45.36711648  G :  0.016122    pred/act E change: -0.270D-02 -0.622D-03
Maxdispl :   0.0604   ||displ|| :   0.1465   Lambda : -0.675D-03
Largest |displ|/coords:  0.0604 (   3)  0.0567 (  14)  0.0563 (   2)
................................................................................
.............................. CYCLE   16 ......................................
................................................................................
   1    -45.6197416 -0.456197E+02  0.132E-01    9.38       0.0  T
   2    -45.6197575 -0.158858E-04  0.100E-01    9.36       1.0  T
   3    -45.6197678 -0.102825E-04  0.265E-02    9.32       1.0  T
   4    -45.6197700 -0.217062E-05  0.820E-03    9.32       2.5  T
   5    -45.6197701 -0.115007E-06  0.309E-03    9.32       6.7  T
   6    -45.6197701 -0.109773E-07  0.173E-03    9.32      12.1  T
   7    -45.6197701 -0.500655E-08  0.419E-04    9.32      49.8  T
speedup  1.11
cpu  time for SCC    0.01 s
wall time for SCC    0.01 s
speedup  1.08
cpu  time for grad    0.01 s
wall time for grad    0.01 s
 E :    -45.36752647  G :  0.008813    pred/act E change: -0.743D-03 -0.410D-03
Maxdispl :   0.0592   ||displ|| :   0.1217   Lambda : -0.288D-03
Largest |displ|/coords:  0.0592 (   3)  0.0528 (  14)  0.0446 (  10)
................................................................................
.............................. CYCLE   17 ......................................
................................................................................
   1    -45.6208390 -0.456208E+02  0.925E-02    9.30       0.0  T
   2    -45.6208458 -0.681490E-05  0.697E-02    9.30       1.0  T
   3    -45.6208484 -0.262159E-05  0.165E-02    9.28       1.3  T
   4    -45.6208496 -0.121200E-05  0.441E-03    9.29       4.7  T
   5    -45.6208496 -0.271601E-07  0.140E-03    9.29      14.9  T
   6    -45.6208497 -0.248907E-08  0.793E-04    9.29      26.3  T
speedup  0.87
cpu  time for SCC    0.00 s
wall time for SCC    0.00 s
speedup  0.98
cpu  time for grad    0.01 s
wall time for grad    0.01 s
 E :    -45.36771946  G :  0.010160    pred/act E change: -0.345D-03 -0.193D-03
Maxdispl :   0.1675   ||displ|| :   0.2402   Lambda : -0.395D-03
Largest |displ|/coords:  0.1675 (   3)  0.1026 (  14)  0.0638 (  17)
................................................................................
.............................. CYCLE   18 ......................................
................................................................................
   1    -45.6185518 -0.456186E+02  0.132E-01    9.21       0.0  T
   2    -45.6185580 -0.613985E-05  0.993E-02    9.21       1.0  T
   3    -45.6185617 -0.373185E-05  0.153E-02    9.19       1.4  T
   4    -45.6185627 -0.964538E-06  0.547E-03    9.19       3.8  T
   5    -45.6185627 -0.333060E-07  0.152E-03    9.19      13.7  T
   6    -45.6185627 -0.280654E-08  0.947E-04    9.19      22.0  T
speedup  0.89
cpu  time for SCC    0.00 s
wall time for SCC    0.00 s
speedup  0.98
cpu  time for grad    0.01 s
wall time for grad    0.01 s
 E :    -45.36785407  G :  0.011339    pred/act E change: -0.146D-03 -0.135D-03
Maxdispl :   0.0523   ||displ|| :   0.1062   Lambda : -0.257D-03
Largest |displ|/coords:  0.0523 (   7)  0.0510 (  10)  0.0361 (  11)
................................................................................
.............................. CYCLE   19 ......................................
................................................................................
   1    -45.6215275 -0.456215E+02  0.598E-02    9.20       0.0  T
   2    -45.6215306 -0.314931E-05  0.444E-02    9.19       1.0  T
   3    -45.6215319 -0.121923E-05  0.108E-02    9.19       1.9  T
   4    -45.6215323 -0.418544E-06  0.361E-03    9.19       5.8  T
   5    -45.6215323 -0.111268E-07  0.784E-04    9.19      26.6  T
   6    -45.6215323 -0.961990E-09  0.474E-04    9.19      44.0  T
speedup  0.87
cpu  time for SCC    0.00 s
wall time for SCC    0.00 s
speedup  0.96
cpu  time for grad    0.01 s
wall time for grad    0.01 s
 E :    -45.36798731  G :  0.005760    pred/act E change: -0.209D-03 -0.133D-03
Maxdispl :   0.0568   ||displ|| :   0.0849   Lambda : -0.108D-03
Largest |displ|/coords:  0.0568 (   5)  0.0374 (   3)  0.0242 (  13)
................................................................................
.............................. CYCLE   20 ......................................
................................................................................
   1    -45.6219957 -0.456220E+02  0.516E-02    9.20       0.0  T
   2    -45.6219968 -0.112575E-05  0.387E-02    9.20       1.0  T
   3    -45.6219974 -0.577167E-06  0.787E-03    9.20       2.6  T
   4    -45.6219976 -0.166974E-06  0.270E-03    9.20       7.7  T
   5    -45.6219976 -0.824241E-08  0.551E-04    9.20      37.9  T
speedup  1.05
cpu  time for SCC    0.00 s
wall time for SCC    0.00 s
speedup  0.96
cpu  time for grad    0.01 s
wall time for grad    0.01 s
 E :    -45.36807526  G :  0.004689    pred/act E change: -0.130D-03 -0.879D-04
Maxdispl :   0.1779   ||displ|| :   0.2913   Lambda : -0.261D-03
Largest |displ|/coords:  0.1779 (   5)  0.1457 (   3)  0.0790 (  10)
................................................................................
.............................. CYCLE   21 ......................................
................................................................................
   1    -45.6206439 -0.456206E+02  0.163E-01    9.19       0.0  T
   2    -45.6206506 -0.667253E-05  0.123E-01    9.19       1.0  T
   3    -45.6206553 -0.469336E-05  0.180E-02    9.18       1.2  T
   4    -45.6206562 -0.952508E-06  0.702E-03    9.18       3.0  T
   5    -45.6206563 -0.451398E-07  0.153E-03    9.18      13.7  T
   6    -45.6206563 -0.157193E-08  0.951E-04    9.18      21.9  T
speedup  0.87
cpu  time for SCC    0.00 s
wall time for SCC    0.00 s
speedup  0.98
cpu  time for grad    0.01 s
wall time for grad    0.01 s
 E :    -45.36824633  G :  0.005717    pred/act E change: -0.546D-04 -0.171D-03
Maxdispl :   0.1621   ||displ|| :   0.2562   Lambda : -0.143D-03
Largest |displ|/coords:  0.1621 (   3)  0.1414 (   5)  0.0574 (  10)
................................................................................
.............................. CYCLE   22 ......................................
................................................................................
   1    -45.6198756 -0.456199E+02  0.126E-01    9.18       0.0  T
   2    -45.6198788 -0.315160E-05  0.950E-02    9.18       1.0  T
   3    -45.6198817 -0.293225E-05  0.112E-02    9.17       1.9  T
   4    -45.6198820 -0.349797E-06  0.461E-03    9.17       4.5  T
   5    -45.6198821 -0.163740E-07  0.110E-03    9.17      19.0  T
   6    -45.6198821 -0.107606E-08  0.699E-04    9.17      29.8  T
speedup  0.87
cpu  time for SCC    0.00 s
wall time for SCC    0.00 s
speedup  0.97
cpu  time for grad    0.01 s
wall time for grad    0.01 s
 E :    -45.36834157  G :  0.007112    pred/act E change: -0.142D-03 -0.952D-04
Maxdispl :   0.1671   ||displ|| :   0.2846   Lambda : -0.163D-03
Largest |displ|/coords:  0.1671 (   5)  0.1468 (   3)  0.0869 (  10)
................................................................................
.............................. CYCLE   23 ......................................
................................................................................
   1    -45.6190895 -0.456191E+02  0.131E-01    9.18       0.0  T
   2    -45.6190928 -0.337742E-05  0.995E-02    9.18       1.0  T
   3    -45.6190959 -0.305526E-05  0.111E-02    9.18       1.9  T
   4    -45.6190963 -0.416078E-06  0.478E-03    9.18       4.4  T
   5    -45.6190963 -0.182068E-07  0.113E-03    9.18      18.4  T
   6    -45.6190963 -0.731582E-09  0.696E-04    9.18      30.0  T
speedup  0.87
cpu  time for SCC    0.00 s
wall time for SCC    0.00 s
speedup  0.97
cpu  time for grad    0.01 s
wall time for grad    0.01 s
 E :    -45.36844447  G :  0.007387    pred/act E change: -0.759D-04 -0.103D-03
Maxdispl :   0.1585   ||displ|| :   0.2515   Lambda : -0.187D-03
Largest |displ|/coords:  0.1585 (   3)  0.1237 (   5)  0.0526 (  10)
................................................................................
.............................. CYCLE   24 ......................................
................................................................................
   1    -45.6197721 -0.456198E+02  0.128E-01    9.20       0.0  T
   2    -45.6197763 -0.415636E-05  0.972E-02    9.20       1.0  T
   3    -45.6197796 -0.335611E-05  0.136E-02    9.19       1.5  T
   4    -45.6197802 -0.568681E-06  0.458E-03    9.19       4.5  T
   5    -45.6197802 -0.240120E-07  0.119E-03    9.19      17.6  T
   6    -45.6197802 -0.878764E-09  0.702E-04    9.19      29.7  T
speedup  0.87
cpu  time for SCC    0.00 s
wall time for SCC    0.00 s
speedup  0.98
cpu  time for grad    0.01 s
wall time for grad    0.01 s
 E :    -45.36855978  G :  0.007274    pred/act E change: -0.882D-04 -0.115D-03
Maxdispl :   0.0826   ||displ|| :   0.1516   Lambda : -0.144D-03
Largest |displ|/coords:  0.0826 (   3)  0.0594 (   5)  0.0385 (  15)
................................................................................
.............................. CYCLE   25 ......................................
................................................................................
   1    -45.6212904 -0.456213E+02  0.767E-02    9.23       0.0  T
   2    -45.6212923 -0.188348E-05  0.576E-02    9.23       1.0  T
   3    -45.6212936 -0.131711E-05  0.937E-03    9.24       2.2  T
   4    -45.6212939 -0.270720E-06  0.249E-03    9.24       8.4  T
   5    -45.6212939 -0.982068E-08  0.859E-04    9.24      24.3  T
speedup  1.05
cpu  time for SCC    0.00 s
wall time for SCC    0.00 s
speedup  0.95
cpu  time for grad    0.01 s
wall time for grad    0.01 s
 E :    -45.36863767  G :  0.006138    pred/act E change: -0.992D-04 -0.779D-04
Maxdispl :   0.1295   ||displ|| :   0.1911   Lambda : -0.119D-03
Largest |displ|/coords:  0.1295 (   3)  0.0710 (   5)  0.0482 (  15)

generating ANC from model Hessian ...
 Shifting diagonal of input Hessian by   4.787188674229235E-003
 Lowest  eigenvalues of input Hessian
   -0.000000   -0.000000    0.000000    0.000000    0.000000    0.000000
    0.005000    0.005120    0.005459    0.005803    0.007081    0.007315
    0.007734    0.009670    0.010031    0.012777    0.013390    0.013986
 Highest eigenvalues
    1.391852    1.409305    1.528180    2.910695    3.326237    3.483464
 
cpu  time for ANC gen    0.01 s
wall time for ANC gen    0.01 s
................................................................................
.............................. CYCLE   26 ......................................
................................................................................
   1    -45.6205562 -0.456206E+02  0.119E-01    9.23       0.0  T
   2    -45.6205586 -0.246978E-05  0.900E-02    9.23       1.0  T
   3    -45.6205611 -0.242860E-05  0.852E-03    9.23       2.4  T
   4    -45.6205613 -0.254961E-06  0.335E-03    9.23       6.2  T
   5    -45.6205613 -0.111930E-07  0.944E-04    9.23      22.1  T
   6    -45.6205613 -0.564405E-09  0.523E-04    9.23      39.8  T
speedup  1.09
cpu  time for SCC    0.00 s
wall time for SCC    0.00 s
speedup  1.02
cpu  time for grad    0.01 s
wall time for grad    0.01 s
 E :    -45.36870106  G :  0.006092    pred/act E change:  0.000D+00 -0.634D-04
Maxdispl :   0.1025   ||displ|| :   0.1349   Lambda : -0.217D-03
Largest |displ|/coords:  0.1025 (   4)  0.0465 (  10)  0.0359 (   1)
................................................................................
.............................. CYCLE   27 ......................................
................................................................................
   1    -45.6210590 -0.456211E+02  0.104E-01    9.24       0.0  T
   2    -45.6210603 -0.132298E-05  0.788E-02    9.24       1.0  T
   3    -45.6210617 -0.145378E-05  0.659E-03    9.23       3.2  T
   4    -45.6210618 -0.104837E-06  0.237E-03    9.23       8.8  T
   5    -45.6210619 -0.505095E-08  0.763E-04    9.23      27.3  T
speedup  1.03
cpu  time for SCC    0.00 s
wall time for SCC    0.00 s
speedup  0.85
cpu  time for grad    0.01 s
wall time for grad    0.01 s
 E :    -45.36886884  G :  0.003389    pred/act E change:  0.000D+00 -0.168D-03
Maxdispl :   0.2351   ||displ|| :   0.2965   Lambda : -0.273D-03
Largest |displ|/coords:  0.2351 (   4)  0.1072 (   1)  0.0945 (  10)
................................................................................
.............................. CYCLE   28 ......................................
................................................................................
   1    -45.6203402 -0.456203E+02  0.209E-01    9.24       0.0  T
   2    -45.6203433 -0.309610E-05  0.158E-01    9.24       1.0  T
   3    -45.6203472 -0.385908E-05  0.872E-03    9.24       2.4  T
   4    -45.6203473 -0.151306E-06  0.428E-03    9.24       4.9  T
   5    -45.6203473 -0.106054E-07  0.145E-03    9.24      14.4  T
   6    -45.6203473 -0.167803E-08  0.514E-04    9.24      40.6  T
   7    -45.6203473 -0.441034E-09  0.114E-04    9.24     183.7  T
speedup  0.94
cpu  time for SCC    0.00 s
wall time for SCC    0.01 s
speedup  0.97
cpu  time for grad    0.01 s
wall time for grad    0.01 s
 E :    -45.36902814  G :  0.006557    pred/act E change: -0.110D-03 -0.159D-03
Maxdispl :   0.1687   ||displ|| :   0.2141   Lambda : -0.157D-03
Largest |displ|/coords:  0.1687 (   4)  0.0736 (   6)  0.0499 (  10)
................................................................................
.............................. CYCLE   29 ......................................
................................................................................
   1    -45.6197335 -0.456197E+02  0.152E-01    9.23       0.0  T
   2    -45.6197361 -0.264892E-05  0.116E-01    9.23       1.0  T
   3    -45.6197390 -0.289839E-05  0.884E-03    9.22       2.4  T
   4    -45.6197392 -0.203661E-06  0.333E-03    9.22       6.3  T
   5    -45.6197393 -0.113704E-07  0.114E-03    9.22      18.3  T
   6    -45.6197393 -0.420499E-09  0.530E-04    9.22      39.4  T
speedup  0.87
cpu  time for SCC    0.00 s
wall time for SCC    0.00 s
speedup  0.97
cpu  time for grad    0.01 s
wall time for grad    0.01 s
 E :    -45.36910769  G :  0.008750    pred/act E change: -0.149D-03 -0.796D-04
Maxdispl :   0.1398   ||displ|| :   0.1626   Lambda : -0.159D-03
Largest |displ|/coords:  0.1398 (   4)  0.0495 (   1)  0.0223 (   5)
................................................................................
.............................. CYCLE   30 ......................................
................................................................................
   1    -45.6205388 -0.456205E+02  0.924E-02    9.23       0.0  T
   2    -45.6205396 -0.750678E-06  0.696E-02    9.23       1.0  T
   3    -45.6205404 -0.795559E-06  0.516E-03    9.22       4.0  T
   4    -45.6205405 -0.637468E-07  0.219E-03    9.22       9.5  T
   5    -45.6205405 -0.509819E-08  0.707E-04    9.22      29.5  T
speedup  1.03
cpu  time for SCC    0.00 s
wall time for SCC    0.00 s
speedup  1.05
cpu  time for grad    0.01 s
wall time for grad    0.01 s
 E :    -45.36923007  G :  0.005929    pred/act E change: -0.822D-04 -0.122D-03
Maxdispl :   0.3124   ||displ|| :   0.4114   Lambda : -0.310D-03
Largest |displ|/coords:  0.3124 (   4)  0.1665 (   1)  0.0970 (  10)
................................................................................
.............................. CYCLE   31 ......................................
................................................................................
   1    -45.6183122 -0.456183E+02  0.287E-01    9.23       0.0  T
   2    -45.6183197 -0.752154E-05  0.217E-01    9.23       1.0  T
   3    -45.6183280 -0.826949E-05  0.156E-02    9.24       1.3  T
   4    -45.6183286 -0.626381E-06  0.612E-03    9.23       3.4  T
   5    -45.6183287 -0.322790E-07  0.247E-03    9.23       8.4  T
   6    -45.6183287 -0.518338E-08  0.117E-03    9.23      17.9  T
speedup  0.98
cpu  time for SCC    0.00 s
wall time for SCC    0.01 s
speedup  1.02
cpu  time for grad    0.01 s
wall time for grad    0.01 s
 E :    -45.36939058  G :  0.008915    pred/act E change: -0.815D-04 -0.161D-03
Maxdispl :   0.1273   ||displ|| :   0.1717   Lambda : -0.244D-03
Largest |displ|/coords:  0.1273 (   4)  0.0530 (   1)  0.0438 (  13)
................................................................................
.............................. CYCLE   32 ......................................
................................................................................
   1    -45.6198485 -0.456198E+02  0.119E-01    9.23       0.0  T
   2    -45.6198519 -0.336353E-05  0.889E-02    9.24       1.0  T
   3    -45.6198542 -0.225230E-05  0.136E-02    9.24       1.5  T
   4    -45.6198546 -0.457124E-06  0.384E-03    9.24       5.4  T
   5    -45.6198546 -0.222936E-07  0.116E-03    9.24      17.9  T
   6    -45.6198546 -0.973515E-09  0.674E-04    9.24      31.0  T
speedup  1.11
cpu  time for SCC    0.00 s
wall time for SCC    0.00 s
speedup  0.97
cpu  time for grad    0.01 s
wall time for grad    0.01 s
 E :    -45.36951307  G :  0.008242    pred/act E change: -0.181D-03 -0.122D-03
Maxdispl :   0.2403   ||displ|| :   0.2984   Lambda : -0.171D-03
Largest |displ|/coords:  0.2403 (   4)  0.0947 (   1)  0.0864 (   2)
................................................................................
.............................. CYCLE   33 ......................................
................................................................................
   1    -45.6171481 -0.456171E+02  0.193E-01    9.23       0.0  T
   2    -45.6171523 -0.420545E-05  0.146E-01    9.24       1.0  T
   3    -45.6171561 -0.387352E-05  0.125E-02    9.25       1.7  T
   4    -45.6171566 -0.463821E-06  0.440E-03    9.24       4.7  T
   5    -45.6171566 -0.217568E-07  0.162E-03    9.24      12.9  T
   6    -45.6171566 -0.146638E-08  0.854E-04    9.24      24.4  T
speedup  1.09
cpu  time for SCC    0.01 s
wall time for SCC    0.00 s
speedup  0.97
cpu  time for grad    0.01 s
wall time for grad    0.01 s
 E :    -45.36955642  G :  0.013891    pred/act E change: -0.126D-03 -0.433D-04
Maxdispl :   0.1275   ||displ|| :   0.1920   Lambda : -0.366D-03
Largest |displ|/coords:  0.1275 (   2)  0.0583 (   4)  0.0559 (   1)
................................................................................
.............................. CYCLE   34 ......................................
................................................................................
   1    -45.6198374 -0.456198E+02  0.922E-02    9.26       0.0  T
   2    -45.6198411 -0.372289E-05  0.693E-02    9.27       1.0  T
   3    -45.6198437 -0.254352E-05  0.129E-02    9.27       1.6  T
   4    -45.6198442 -0.497146E-06  0.419E-03    9.27       5.0  T
   5    -45.6198442 -0.354241E-07  0.129E-03    9.27      16.2  T
   6    -45.6198442 -0.130101E-08  0.721E-04    9.27      28.9  T
speedup  1.04
cpu  time for SCC    0.01 s
wall time for SCC    0.00 s
speedup  1.04
cpu  time for grad    0.01 s
wall time for grad    0.01 s
 E :    -45.36970899  G :  0.009139    pred/act E change: -0.930D-04 -0.153D-03
Maxdispl :   0.1748   ||displ|| :   0.3178   Lambda : -0.398D-03
Largest |displ|/coords:  0.1748 (   4)  0.1662 (   1)  0.1140 (  13)
................................................................................
.............................. CYCLE   35 ......................................
................................................................................
   1    -45.6171152 -0.456171E+02  0.261E-01    9.26       0.0  T
   2    -45.6171350 -0.198054E-04  0.195E-01    9.26       1.0  T
   3    -45.6171490 -0.140718E-04  0.273E-02    9.25       1.0  T
   4    -45.6171518 -0.274473E-05  0.766E-03    9.25       2.7  T
   5    -45.6171519 -0.799780E-07  0.312E-03    9.25       6.7  T
   6    -45.6171519 -0.816691E-08  0.163E-03    9.25      12.8  T
   7    -45.6171519 -0.545413E-08  0.320E-04    9.25      65.2  T
speedup  1.11
cpu  time for SCC    0.01 s
wall time for SCC    0.01 s
speedup  0.99
cpu  time for grad    0.01 s
wall time for grad    0.01 s
 E :    -45.36932755  G :  0.030007    pred/act E change: -0.190D-03  0.381D-03
Maxdispl :   0.0802   ||displ|| :   0.1400   Lambda : -0.116D-02
Largest |displ|/coords:  0.0802 (   1)  0.0517 (   5)  0.0507 (   3)
................................................................................
.............................. CYCLE   36 ......................................
................................................................................
   1    -45.6199478 -0.456199E+02  0.168E-01    9.27       0.0  T
   2    -45.6199624 -0.145420E-04  0.126E-01    9.27       1.0  T
   3    -45.6199723 -0.988048E-05  0.227E-02    9.27       1.0  T
   4    -45.6199742 -0.191870E-05  0.507E-03    9.27       4.1  T
   5    -45.6199742 -0.252778E-07  0.248E-03    9.27       8.4  T
speedup  1.05
cpu  time for SCC    0.00 s
wall time for SCC    0.00 s
speedup  1.05
cpu  time for grad    0.01 s
wall time for grad    0.01 s
 E :    -45.36985865  G :  0.003946    pred/act E change: -0.219D-03 -0.531D-03
Maxdispl :   0.1615   ||displ|| :   0.2214   Lambda : -0.832D-04
Largest |displ|/coords:  0.1615 (   4)  0.0822 (   2)  0.0651 (   1)
................................................................................
.............................. CYCLE   37 ......................................
................................................................................
   1    -45.6179392 -0.456179E+02  0.135E-01    9.27       0.0  T
   2    -45.6179416 -0.242602E-05  0.102E-01    9.27       1.0  T
   3    -45.6179438 -0.219359E-05  0.954E-03    9.27       2.2  T
   4    -45.6179441 -0.283599E-06  0.308E-03    9.27       6.8  T
   5    -45.6179441 -0.126161E-07  0.116E-03    9.27      18.0  T
   6    -45.6179441 -0.707310E-09  0.612E-04    9.27      34.1  T
   7    -45.6179441 -0.733706E-09  0.106E-04    9.27     195.8  T
speedup  0.94
cpu  time for SCC    0.00 s
wall time for SCC    0.01 s
speedup  0.97
cpu  time for grad    0.01 s
wall time for grad    0.01 s
 E :    -45.36988412  G :  0.008556    pred/act E change: -0.593D-03 -0.255D-04
Maxdispl :   0.0317   ||displ|| :   0.0735   Lambda : -0.101D-03
Largest |displ|/coords:  0.0317 (  13)  0.0286 (   4)  0.0205 (  11)
................................................................................
.............................. CYCLE   38 ......................................
................................................................................
   1    -45.6193163 -0.456193E+02  0.535E-02    9.28       0.0  T
   2    -45.6193170 -0.707434E-06  0.402E-02    9.28       1.0  T
   3    -45.6193175 -0.564797E-06  0.602E-03    9.28       3.5  T
   4    -45.6193176 -0.874864E-07  0.147E-03    9.28      14.2  T
   5    -45.6193176 -0.339115E-08  0.523E-04    9.28      39.9  T
speedup  1.05
cpu  time for SCC    0.00 s
wall time for SCC    0.00 s
speedup  0.95
cpu  time for grad    0.01 s
wall time for grad    0.01 s
 E :    -45.36995524  G :  0.004738    pred/act E change: -0.436D-04 -0.711D-04
Maxdispl :   0.1548   ||displ|| :   0.2249   Lambda : -0.947D-04
Largest |displ|/coords:  0.1548 (   4)  0.0880 (   2)  0.0732 (  13)
................................................................................
.............................. CYCLE   39 ......................................
................................................................................
   1    -45.6196687 -0.456197E+02  0.129E-01    9.27       0.0  T
   2    -45.6196706 -0.189631E-05  0.977E-02    9.27       1.0  T
   3    -45.6196725 -0.193517E-05  0.919E-03    9.26       2.3  T
   4    -45.6196727 -0.177949E-06  0.350E-03    9.26       6.0  T
   5    -45.6196727 -0.926085E-08  0.898E-04    9.26      23.2  T
   6    -45.6196727 -0.689610E-09  0.564E-04    9.26      36.9  T
speedup  1.09
cpu  time for SCC    0.00 s
wall time for SCC    0.00 s
speedup  0.96
cpu  time for grad    0.01 s
wall time for grad    0.01 s
 E :    -45.37001458  G :  0.004465    pred/act E change: -0.507D-04 -0.593D-04
Maxdispl :   0.0931   ||displ|| :   0.1489   Lambda : -0.550D-04
Largest |displ|/coords:  0.0931 (   4)  0.0540 (   2)  0.0453 (  13)
................................................................................
.............................. CYCLE   40 ......................................
................................................................................
   1    -45.6202771 -0.456203E+02  0.965E-02    9.26       0.0  T
   2    -45.6202781 -0.972230E-06  0.727E-02    9.26       1.0  T
   3    -45.6202793 -0.117853E-05  0.797E-03    9.26       2.6  T
   4    -45.6202793 -0.539915E-07  0.197E-03    9.26      10.6  T
   5    -45.6202793 -0.546131E-08  0.727E-04    9.26      28.7  T
speedup  1.05
cpu  time for SCC    0.00 s
wall time for SCC    0.00 s
speedup  1.04
cpu  time for grad    0.01 s
wall time for grad    0.01 s
 E :    -45.37005091  G :  0.003006    pred/act E change: -0.498D-04 -0.363D-04
Maxdispl :   0.0831   ||displ|| :   0.1195   Lambda : -0.317D-04
Largest |displ|/coords:  0.0831 (   4)  0.0425 (   2)  0.0322 (  13)
................................................................................
.............................. CYCLE   41 ......................................
................................................................................
   1    -45.6205449 -0.456205E+02  0.809E-02    9.25       0.0  T
   2    -45.6205456 -0.675391E-06  0.609E-02    9.25       1.0  T
   3    -45.6205464 -0.826195E-06  0.635E-03    9.25       3.3  T
   4    -45.6205465 -0.346214E-07  0.143E-03    9.25      14.6  T
   5    -45.6205465 -0.311837E-08  0.613E-04    9.25      34.0  T
   6    -45.6205465 -0.424464E-09  0.349E-04    9.25      59.8  T
speedup  0.87
cpu  time for SCC    0.00 s
wall time for SCC    0.00 s
speedup  0.94
cpu  time for grad    0.01 s
wall time for grad    0.01 s
 E :    -45.37007161  G :  0.002441    pred/act E change: -0.281D-04 -0.207D-04
Maxdispl :   0.0662   ||displ|| :   0.0945   Lambda : -0.220D-04
Largest |displ|/coords:  0.0662 (   4)  0.0267 (   3)  0.0266 (  13)
................................................................................
.............................. CYCLE   42 ......................................
................................................................................
   1    -45.6204433 -0.456204E+02  0.693E-02    9.25       0.0  T
   2    -45.6204439 -0.530741E-06  0.521E-02    9.25       1.0  T
   3    -45.6204445 -0.601735E-06  0.543E-03    9.25       3.8  T
   4    -45.6204445 -0.387694E-07  0.127E-03    9.25      16.4  T
   5    -45.6204445 -0.203646E-08  0.606E-04    9.25      34.4  T
   6    -45.6204445 -0.396504E-09  0.303E-04    9.25      68.9  T
speedup  0.87
cpu  time for SCC    0.00 s
wall time for SCC    0.00 s
speedup  0.94
cpu  time for grad    0.01 s
wall time for grad    0.01 s
 E :    -45.37008528  G :  0.002551    pred/act E change: -0.161D-04 -0.137D-04
Maxdispl :   0.0485   ||displ|| :   0.0854   Lambda : -0.285D-04
Largest |displ|/coords:  0.0485 (   3)  0.0447 (   1)  0.0274 (   7)
................................................................................
.............................. CYCLE   43 ......................................
................................................................................
   1    -45.6218371 -0.456218E+02  0.440E-02    9.26       0.0  T
   2    -45.6218378 -0.651067E-06  0.328E-02    9.26       1.0  T
   3    -45.6218383 -0.560425E-06  0.555E-03    9.26       3.8  T
   4    -45.6218384 -0.729599E-07  0.201E-03    9.26      10.4  T
   5    -45.6218384 -0.556815E-08  0.637E-04    9.26      32.7  T
   6    -45.6218384 -0.574239E-09  0.359E-04    9.26      58.1  T
speedup  1.09
cpu  time for SCC    0.00 s
wall time for SCC    0.00 s
speedup  1.03
cpu  time for grad    0.01 s
wall time for grad    0.01 s
 E :    -45.37008788  G :  0.004047    pred/act E change: -0.111D-04 -0.260D-05
Maxdispl :   0.0567   ||displ|| :   0.0682   Lambda : -0.287D-04
Largest |displ|/coords:  0.0567 (   4)  0.0172 (   3)  0.0132 (   6)
................................................................................
.............................. CYCLE   44 ......................................
................................................................................
   1    -45.6208555 -0.456209E+02  0.452E-02    9.25       0.0  T
   2    -45.6208559 -0.438157E-06  0.339E-02    9.25       1.0  T
   3    -45.6208562 -0.304207E-06  0.472E-03    9.25       4.4  T
   4    -45.6208563 -0.594531E-07  0.120E-03    9.25      17.4  T
   5    -45.6208563 -0.240519E-08  0.381E-04    9.25      54.8  T
speedup  1.03
cpu  time for SCC    0.00 s
wall time for SCC    0.00 s
speedup  1.03
cpu  time for grad    0.01 s
wall time for grad    0.01 s
 E :    -45.37010266  G :  0.002630    pred/act E change: -0.144D-04 -0.148D-04
Maxdispl :   0.0133   ||displ|| :   0.0331   Lambda : -0.129D-04
Largest |displ|/coords:  0.0133 (   2)  0.0129 (   3)  0.0099 (   4)
................................................................................
.............................. CYCLE   45 ......................................
................................................................................
   1    -45.6206999 -0.456207E+02  0.246E-02    9.26       0.0  T
   2    -45.6207001 -0.164158E-06  0.182E-02    9.26       1.1  T
   3    -45.6207002 -0.154876E-06  0.359E-03    9.26       5.8  T
   4    -45.6207002 -0.156046E-07  0.821E-04    9.26      25.4  T
   5    -45.6207002 -0.107031E-08  0.291E-04    9.26      71.6  T
speedup  1.03
cpu  time for SCC    0.00 s
wall time for SCC    0.00 s
speedup  1.00
cpu  time for grad    0.01 s
wall time for grad    0.01 s
 E :    -45.37010860  G :  0.001869    pred/act E change: -0.144D-04 -0.594D-05
Maxdispl :   0.0131   ||displ|| :   0.0276   Lambda : -0.734D-05
Largest |displ|/coords:  0.0131 (   3)  0.0118 (   1)  0.0100 (   7)
................................................................................
.............................. CYCLE   46 ......................................
................................................................................
   1    -45.6206957 -0.456207E+02  0.167E-02    9.27       0.0  T
   2    -45.6206957 -0.520413E-07  0.126E-02    9.27       1.7  T
   3    -45.6206958 -0.498799E-07  0.176E-03    9.27      11.8  T
   4    -45.6206958 -0.560255E-08  0.544E-04    9.27      38.3  T
   5    -45.6206958 -0.392944E-09  0.172E-04    9.27     121.6  T
speedup  1.03
cpu  time for SCC    0.00 s
wall time for SCC    0.00 s
speedup  1.00
cpu  time for grad    0.01 s
wall time for grad    0.01 s
 E :    -45.37011417  G :  0.001579    pred/act E change: -0.646D-05 -0.557D-05
Maxdispl :   0.0358   ||displ|| :   0.0627   Lambda : -0.931D-05
Largest |displ|/coords:  0.0358 (   4)  0.0301 (   3)  0.0230 (   1)
................................................................................
.............................. CYCLE   47 ......................................
................................................................................
   1    -45.6207817 -0.456208E+02  0.387E-02    9.27       0.0  T
   2    -45.6207820 -0.209567E-06  0.292E-02    9.27       1.0  T
   3    -45.6207822 -0.204586E-06  0.316E-03    9.27       6.6  T
   4    -45.6207822 -0.232270E-07  0.102E-03    9.27      20.5  T
   5    -45.6207822 -0.121896E-08  0.340E-04    9.27      61.3  T
   6    -45.6207822 -0.128104E-09  0.195E-04    9.27     106.9  T
speedup  1.09
cpu  time for SCC    0.00 s
wall time for SCC    0.00 s
speedup  1.03
cpu  time for grad    0.01 s
wall time for grad    0.01 s
 E :    -45.37011982  G :  0.001238    pred/act E change: -0.367D-05 -0.565D-05
Maxdispl :   0.0259   ||displ|| :   0.0395   Lambda : -0.423D-05
Largest |displ|/coords:  0.0259 (   4)  0.0149 (   3)  0.0133 (   7)
................................................................................
.............................. CYCLE   48 ......................................
................................................................................
   1    -45.6207492 -0.456207E+02  0.288E-02    9.28       0.0  T
   2    -45.6207493 -0.111966E-06  0.217E-02    9.28       1.0  T
   3    -45.6207494 -0.930231E-07  0.235E-03    9.28       8.9  T
   4    -45.6207494 -0.158569E-07  0.712E-04    9.28      29.3  T
   5    -45.6207494 -0.494857E-09  0.224E-04    9.28      93.1  T
speedup  0.79
cpu  time for SCC    0.00 s
wall time for SCC    0.00 s
speedup  1.01
cpu  time for grad    0.01 s
wall time for grad    0.01 s
 E :    -45.37012267  G :  0.001391    pred/act E change: -0.467D-05 -0.285D-05
Maxdispl :   0.0322   ||displ|| :   0.0455   Lambda : -0.532D-05
Largest |displ|/coords:  0.0322 (   4)  0.0147 (  13)  0.0128 (   3)
................................................................................
.............................. CYCLE   49 ......................................
................................................................................
   1    -45.6207348 -0.456207E+02  0.320E-02    9.28       0.0  T
   2    -45.6207350 -0.122825E-06  0.241E-02    9.28       1.0  T
   3    -45.6207351 -0.100176E-06  0.245E-03    9.28       8.5  T
   4    -45.6207351 -0.176887E-07  0.724E-04    9.28      28.8  T
   5    -45.6207351 -0.483517E-09  0.226E-04    9.28      92.1  T
speedup  0.79
cpu  time for SCC    0.00 s
wall time for SCC    0.00 s
speedup  0.99
cpu  time for grad    0.01 s
wall time for grad    0.01 s
 E :    -45.37012636  G :  0.001155    pred/act E change: -0.212D-05 -0.369D-05
Maxdispl :   0.0238   ||displ|| :   0.0369   Lambda : -0.487D-05
Largest |displ|/coords:  0.0238 (   4)  0.0130 (  10)  0.0108 (  13)
................................................................................
.............................. CYCLE   50 ......................................
................................................................................
   1    -45.6208270 -0.456208E+02  0.279E-02    9.28       0.0  T
   2    -45.6208271 -0.963660E-07  0.210E-02    9.28       1.0  T
   3    -45.6208272 -0.745210E-07  0.247E-03    9.28       8.4  T
   4    -45.6208272 -0.135743E-07  0.694E-04    9.28      30.0  T
   5    -45.6208272 -0.493507E-09  0.206E-04    9.28     101.2  T
speedup  0.79
cpu  time for SCC    0.00 s
wall time for SCC    0.00 s
speedup  1.01
cpu  time for grad    0.01 s
wall time for grad    0.01 s
 E :    -45.37012964  G :  0.001334    pred/act E change: -0.267D-05 -0.328D-05
Maxdispl :   0.0126   ||displ|| :   0.0231   Lambda : -0.362D-05
Largest |displ|/coords:  0.0126 (   4)  0.0119 (  10)  0.0072 (   1)
................................................................................
.............................. CYCLE   51 ......................................
................................................................................
   1    -45.6207463 -0.456207E+02  0.185E-02    9.28       0.0  T
   2    -45.6207463 -0.438479E-07  0.139E-02    9.28       1.5  T
   3    -45.6207464 -0.385292E-07  0.169E-03    9.28      12.4  T
   4    -45.6207464 -0.500273E-08  0.498E-04    9.28      41.9  T
   5    -45.6207464 -0.307402E-09  0.145E-04    9.28     143.7  T
speedup  1.08
cpu  time for SCC    0.00 s
wall time for SCC    0.00 s
speedup  1.02
cpu  time for grad    0.01 s
wall time for grad    0.01 s
 E :    -45.37013206  G :  0.000924    pred/act E change: -0.244D-05 -0.243D-05
Maxdispl :   0.0127   ||displ|| :   0.0203   Lambda : -0.265D-05
Largest |displ|/coords:  0.0127 (  10)  0.0100 (   2)  0.0044 (   1)
................................................................................
.............................. CYCLE   52 ......................................
................................................................................
   1    -45.6207676 -0.456208E+02  0.181E-02    9.28       0.0  T
   2    -45.6207676 -0.347531E-07  0.137E-02    9.28       1.5  T
   3    -45.6207676 -0.385688E-07  0.113E-03    9.28      18.5  T
   4    -45.6207676 -0.253056E-08  0.383E-04    9.28      54.4  T
   5    -45.6207676 -0.115882E-09  0.118E-04    9.28     176.7  T
speedup  1.05
cpu  time for SCC    0.00 s
wall time for SCC    0.00 s
speedup  1.01
cpu  time for grad    0.01 s
wall time for grad    0.01 s
 E :    -45.37013381  G :  0.000812    pred/act E change: -0.181D-05 -0.175D-05
Maxdispl :   0.0091   ||displ|| :   0.0157   Lambda : -0.164D-05
Largest |displ|/coords:  0.0091 (   2)  0.0062 (  10)  0.0042 (  13)

generating ANC from model Hessian ...
 Shifting diagonal of input Hessian by   4.765999200193976E-003
 Lowest  eigenvalues of input Hessian
   -0.000000   -0.000000   -0.000000    0.000000    0.000000    0.000000
    0.005000    0.005388    0.005491    0.005768    0.006587    0.007270
    0.007531    0.009254    0.009616    0.012027    0.013960    0.014502
 Highest eigenvalues
    1.393893    1.395857    1.530051    2.905121    3.339183    3.471889
 
cpu  time for ANC gen    0.01 s
wall time for ANC gen    0.01 s
................................................................................
.............................. CYCLE   53 ......................................
................................................................................
   1    -45.6206611 -0.456207E+02  0.120E-02    9.28       0.0  T
   2    -45.6206611 -0.206172E-07  0.904E-03    9.28       2.3  T
   3    -45.6206612 -0.204757E-07  0.841E-04    9.28      24.8  T
   4    -45.6206612 -0.198946E-08  0.289E-04    9.28      72.1  T
speedup  0.94
cpu  time for SCC    0.00 s
wall time for SCC    0.00 s
speedup  1.07
cpu  time for grad    0.01 s
wall time for grad    0.01 s
 E :    -45.37013483  G :  0.000610    pred/act E change:  0.000D+00 -0.102D-05
Maxdispl :   0.0108   ||displ|| :   0.0127   Lambda : -0.164D-05
Largest |displ|/coords:  0.0108 (   2)  0.0037 (  10)  0.0027 (   5)
................................................................................
.............................. CYCLE   54 ......................................
................................................................................
   1    -45.6206394 -0.456206E+02  0.118E-02    9.28       0.0  T
   2    -45.6206395 -0.141192E-07  0.889E-03    9.28       2.3  T
   3    -45.6206395 -0.182027E-07  0.674E-04    9.27      30.9  T
   4    -45.6206395 -0.728221E-09  0.284E-04    9.27      73.5  T
speedup  1.29
cpu  time for SCC    0.00 s
wall time for SCC    0.00 s
speedup  1.08
cpu  time for grad    0.01 s
wall time for grad    0.01 s
 E :    -45.37013603  G :  0.000348    pred/act E change:  0.000D+00 -0.119D-05
Maxdispl :   0.0213   ||displ|| :   0.0250   Lambda : -0.213D-05
Largest |displ|/coords:  0.0213 (   2)  0.0064 (  10)  0.0052 (   3)
................................................................................
.............................. CYCLE   55 ......................................
................................................................................
   1    -45.6206112 -0.456206E+02  0.214E-02    9.27       0.0  T
   2    -45.6206112 -0.351410E-07  0.162E-02    9.27       1.3  T
   3    -45.6206113 -0.419441E-07  0.118E-03    9.27      17.7  T
   4    -45.6206113 -0.187867E-08  0.375E-04    9.27      55.7  T
   5    -45.6206113 -0.118050E-09  0.142E-04    9.27     146.9  T
speedup  0.79
cpu  time for SCC    0.00 s
wall time for SCC    0.00 s
speedup  0.92
cpu  time for grad    0.01 s
wall time for grad    0.01 s
 E :    -45.37013719  G :  0.000487    pred/act E change: -0.819D-06 -0.116D-05
Maxdispl :   0.0147   ||displ|| :   0.0162   Lambda : -0.881D-06
Largest |displ|/coords:  0.0147 (   2)  0.0031 (   5)  0.0027 (  10)
................................................................................
.............................. CYCLE   56 ......................................
................................................................................
   1    -45.6206224 -0.456206E+02  0.125E-02    9.27       0.0  T
   2    -45.6206224 -0.121076E-07  0.941E-03    9.27       2.2  T
   3    -45.6206224 -0.138506E-07  0.727E-04    9.27      28.7  T
   4    -45.6206224 -0.918369E-09  0.246E-04    9.27      84.6  T
speedup  1.29
cpu  time for SCC    0.00 s
wall time for SCC    0.00 s
speedup  1.06
cpu  time for grad    0.01 s
wall time for grad    0.01 s
 E :    -45.37013775  G :  0.000393    pred/act E change: -0.107D-05 -0.565D-06
Maxdispl :   0.0167   ||displ|| :   0.0189   Lambda : -0.806D-06
Largest |displ|/coords:  0.0167 (   2)  0.0039 (   3)  0.0037 (   4)
................................................................................
.............................. CYCLE   57 ......................................
................................................................................
   1    -45.6206606 -0.456207E+02  0.122E-02    9.27       0.0  T
   2    -45.6206606 -0.147001E-07  0.918E-03    9.27       2.3  T
   3    -45.6206606 -0.150195E-07  0.813E-04    9.27      25.6  T
   4    -45.6206606 -0.144458E-08  0.268E-04    9.27      77.7  T
speedup  0.97
cpu  time for SCC    0.00 s
wall time for SCC    0.00 s
speedup  0.98
cpu  time for grad    0.01 s
wall time for grad    0.01 s
 E :    -45.37013835  G :  0.000188    pred/act E change: -0.441D-06 -0.595D-06
Maxdispl :   0.0197   ||displ|| :   0.0234   Lambda : -0.670D-06
Largest |displ|/coords:  0.0197 (   2)  0.0068 (   6)  0.0061 (   3)
................................................................................
.............................. CYCLE   58 ......................................
................................................................................
   1    -45.6206932 -0.456207E+02  0.128E-02    9.27       0.0  T
   2    -45.6206932 -0.179267E-07  0.965E-03    9.27       2.2  T
   3    -45.6206933 -0.183383E-07  0.888E-04    9.27      23.5  T
   4    -45.6206933 -0.179273E-08  0.275E-04    9.27      75.9  T
speedup  1.00
cpu  time for SCC    0.00 s
wall time for SCC    0.00 s
speedup  0.99
cpu  time for grad    0.01 s
wall time for grad    0.01 s
 E :    -45.37013881  G :  0.000287    pred/act E change: -0.403D-06 -0.462D-06
Maxdispl :   0.0170   ||displ|| :   0.0206   Lambda : -0.410D-06
Largest |displ|/coords:  0.0170 (   2)  0.0064 (   6)  0.0054 (   3)
................................................................................
.............................. CYCLE   59 ......................................
................................................................................
   1    -45.6206905 -0.456207E+02  0.101E-02    9.27       0.0  T
   2    -45.6206905 -0.104813E-07  0.763E-03    9.27       2.7  T
   3    -45.6206905 -0.109000E-07  0.733E-04    9.27      28.5  T
   4    -45.6206905 -0.106570E-08  0.211E-04    9.27      98.8  T
speedup  1.00
cpu  time for SCC    0.00 s
wall time for SCC    0.00 s
speedup  0.99
cpu  time for grad    0.01 s
wall time for grad    0.01 s
 E :    -45.37013910  G :  0.000292    pred/act E change: -0.335D-06 -0.296D-06
Maxdispl :   0.0159   ||displ|| :   0.0199   Lambda : -0.356D-06
Largest |displ|/coords:  0.0159 (   2)  0.0065 (   6)  0.0059 (   3)
................................................................................
.............................. CYCLE   60 ......................................
................................................................................
   1    -45.6206645 -0.456207E+02  0.956E-03    9.28       0.0  T
   2    -45.6206645 -0.986276E-08  0.720E-03    9.28       2.9  T
   3    -45.6206645 -0.109852E-07  0.696E-04    9.28      29.9  T
   4    -45.6206645 -0.909210E-09  0.209E-04    9.28      99.7  T
speedup  1.00
cpu  time for SCC    0.00 s
wall time for SCC    0.00 s
speedup  0.99
cpu  time for grad    0.01 s
wall time for grad    0.01 s
 E :    -45.37013934  G :  0.000187    pred/act E change: -0.205D-06 -0.237D-06
Maxdispl :   0.0067   ||displ|| :   0.0091   Lambda : -0.165D-06
Largest |displ|/coords:  0.0067 (   2)  0.0035 (   6)  0.0031 (   1)
................................................................................
.............................. CYCLE   61 ......................................
................................................................................
   1    -45.6206407 -0.456206E+02  0.427E-03    9.28       0.0  T
   2    -45.6206407 -0.236026E-08  0.321E-03    9.28       6.5  T
   3    -45.6206407 -0.192544E-08  0.374E-04    9.28      55.8  T
   4    -45.6206407 -0.320355E-09  0.127E-04    9.28     164.6  T
speedup  0.97
cpu  time for SCC    0.00 s
wall time for SCC    0.00 s
speedup  0.99
cpu  time for grad    0.01 s
wall time for grad    0.01 s
 E :    -45.37013946  G :  0.000131    pred/act E change: -0.178D-06 -0.119D-06
Maxdispl :   0.0056   ||displ|| :   0.0083   Lambda : -0.125D-06
Largest |displ|/coords:  0.0056 (   2)  0.0032 (   1)  0.0028 (   6)
................................................................................
.............................. CYCLE   62 ......................................
................................................................................
   1    -45.6206156 -0.456206E+02  0.414E-03    9.28       0.0  T
   2    -45.6206156 -0.219700E-08  0.309E-03    9.28       6.7  T
   3    -45.6206156 -0.155798E-08  0.358E-04    9.28      58.2  T
   4    -45.6206156 -0.321336E-09  0.141E-04    9.28     148.1  T
speedup  1.00
cpu  time for SCC    0.00 s
wall time for SCC    0.00 s
speedup  1.00
cpu  time for grad    0.01 s
wall time for grad    0.01 s
 E :    -45.37013955  G :  0.000129    pred/act E change: -0.825D-07 -0.864D-07
Maxdispl :   0.0038   ||displ|| :   0.0069   Lambda : -0.930D-07
Largest |displ|/coords:  0.0038 (   2)  0.0032 (   5)  0.0030 (   1)

   *** GEOMETRY OPTIMIZATION CONVERGED AFTER 62 ITERATIONS ***

------------------------------------------------------------------------
 total energy gain (kcal):     -0.0030
------------------------------------------------------------------------
================
 final structure:
================
$coord
       -1.74845862180426        1.58773132675806        0.23911250255492      S 
        0.97121566692466        2.13470442052234        0.06614051346237      O 
       -2.15578173833687       -1.14389213620307        0.37021130841504      O 
       -2.85446503704128        2.88182359342291        2.40512854527644      O 
       -3.05581325491405        2.61559143276680       -2.15013402685298      O 
        4.27043489664441       -0.82909835683927       -2.33773309697497      O 
        3.12449603186267        0.29113847337464       -1.41139790558767      H 
        4.68126492741884        0.05407711840144       -3.86648083754015      H 
       -0.29375120076242       -2.76009365122989        4.66747120441375      O 
       -0.96927935092674       -2.35790342421010        2.96958737414194      H 
       -1.65993178518191       -3.54404650216995        5.56287469932887      H 
        0.10266117435563       -3.58324103814888       -3.45288221650135      O 
       -0.86428467379275       -3.03536218250024       -1.97937390882198      H 
        1.84716204141333       -3.12481655243035       -3.05464347604845      H 
       -1.15376778719350        0.38942308597624       -6.02547324976651      O 
       -2.51977364619494       -0.01179365970109       -7.14729256199491      H 
       -2.25120501564629        1.84212892835645       -3.69755453211686      H 
       -0.62210200385097       -1.25270964892223       -5.23008005258506      H 
        1.10138137947214        1.99903424720099        4.92449287048533      N 
        0.84676610551732        0.05754292071683        5.29453012476969      H 
        2.00078688435208        2.96630102218384        6.31290992074232      H 
        1.94479013854439        2.13904022963084        3.13863254801660      H 
       -0.74234511195216        2.68442035304328        4.40195421538665      H 
$end
 
 Bond Distances (Angstroems)
 ---------------------------
S1-O2=1.4709         S1-O3=1.4631         S1-O4=1.4578         S1-O5=1.5405         O2-S1=1.4709         O3-S1=1.4631         
O4-S1=1.4578         O5-S1=1.5405         O5-H17=1.0096        O6-H7=0.9795         O6-H8=0.9592         H7-O6=0.9795         
H8-O6=0.9592         O9-H10=0.9901        O9-H11=0.9588        H10-O9=0.9901        H11-O9=0.9588        O12-H13=0.9767       
O12-H14=0.9775       H13-O12=0.9767       H14-O12=0.9775       O15-H16=0.9592       O15-H18=1.0057       H16-O15=0.9592       
H17-O5=1.0096        H18-O15=1.0057       N19-H20=1.0545       N19-H21=1.0141       N19-H22=1.0477       N19-H23=1.0770       
H20-N19=1.0545       H21-N19=1.0141       H22-N19=1.0477       H23-N19=1.0770       
 N  H  Rav=1.0483 sigma=0.0226  Rmin=1.0141  Rmax=1.0770     4
 O  H  Rav=0.9796 sigma=0.0182  Rmin=0.9588  Rmax=1.0096     9
 S  O  Rav=1.4831 sigma=0.0335  Rmin=1.4578  Rmax=1.5405     4
 
 selected bond angles (degree)
 --------------------
O3-S1-O2=109.97                O4-S1-O2=110.45                O4-S1-O3=111.57                O5-S1-O2=108.59                
O5-S1-O3=108.76                O5-S1-O4=107.41                H17-O5-S1=109.46               H8-O6-H7=105.52                
H11-O9-H10=105.62              
 
 selected dihedral angles (degree)
 ---------------------------------
H17-O5-S1-O2= 56.78           H17-O5-S1-O3=297.13           H17-O5-S1-O4=176.24           
 
 CMA Distance (Angstroems)
 ---------------------------
R(CMA):  1.9171

========================================================================
 FINAL SINGLEPOINT CALCULATION ON OPTIMIZED GEOMETRY
========================================================================

 Ncao       : 59
 Nao        : 58
 Nshell     : 34
 Nel        : 72
 T(el)      :   300.0
 intcut     :    25.0
 scfconv/Eh :  0.100E-05
   qconv/e  :  0.100E-03
 intneglect :  0.100E-07
 broydamp   :      0.250
 iter      E             dE          RMSdq      gap      omega  full diag
   1    -45.6206156 -0.456206E+02  0.589E-05    9.28       0.0  T
   2    -45.6206156 -0.147793E-11  0.362E-05    9.28     576.7  T
   3    -45.6206156 -0.710543E-12  0.610E-06    9.28    3419.8  T
speedup  1.30
cpu  time for SCC    0.00 s
wall time for SCC    0.00 s

   *** convergence criteria satisfied after 3 iterations ***

          eigenvalues
 #    :          24         25         26         27         28         29         30         31
 occ. :        2.000      2.000      2.000      2.000      2.000      2.000      2.000      2.000
 eps  :       -13.638    -13.454    -12.996    -12.517    -12.439    -12.266    -12.224    -12.048
 #    :          32         33         34         35         36         37         38         39
 occ. :        2.000      2.000      2.000      2.000      2.000      0.000      0.000      0.000
 eps  :       -11.892    -11.827    -11.674    -11.644    -11.479     -2.203     -0.858      0.036
 #    :          40         41         42         43         44         45         46         47
 occ. :        0.000      0.000      0.000      0.000      0.000      0.000      0.000      0.000
 eps  :         0.725      1.115      1.424      2.267      2.975      3.979      4.835      5.314


   #   Z            q   n(s)   n(p)   n(d)      C6AA      α(0)
   1  16 S      1.678  1.588  1.788  0.946    89.261    15.901
   2   8 O     -0.773  1.775  4.998  0.000    30.783     7.439
   3   8 O     -0.762  1.777  4.985  0.000    30.450     7.398
   4   8 O     -0.724  1.765  4.958  0.000    29.353     7.264
   5   8 O     -0.610  1.754  4.855  0.000    25.394     6.803
   6   8 O     -0.612  1.749  4.863  0.000    25.466     6.811
   7   1 H      0.320  0.680  0.000  0.000     0.664     1.280
   8   1 H      0.285  0.715  0.000  0.000     0.767     1.375
   9   8 O     -0.610  1.742  4.869  0.000    25.434     6.807
  10   1 H      0.333  0.667  0.000  0.000     0.631     1.248
  11   1 H      0.293  0.707  0.000  0.000     0.743     1.353
  12   8 O     -0.625  1.759  4.866  0.000    25.798     6.855
  13   1 H      0.315  0.685  0.000  0.000     0.677     1.292
  14   1 H      0.322  0.678  0.000  0.000     0.659     1.275
  15   8 O     -0.621  1.762  4.859  0.000    25.706     6.843
  16   1 H      0.292  0.708  0.000  0.000     0.747     1.357
  17   1 H      0.385  0.615  0.000  0.000     0.509     1.119
  18   1 H      0.342  0.658  0.000  0.000     0.607     1.224
  19   7 N     -0.352  1.268  4.084  0.000    29.034     8.003
  20   1 H      0.296  0.704  0.000  0.000     0.726     1.335
  21   1 H      0.240  0.760  0.000  0.000     0.921     1.504
  22   1 H      0.286  0.714  0.000  0.000     0.756     1.362
  23   1 H      0.300  0.700  0.000  0.000     0.712     1.322

 Mol. C6AA /au·bohr⁶  :       4508.623035
 Mol. C8AA /au·bohr⁸  :      99332.690243
 Mol. α(0) /au        :         97.172306

 
 Wiberg/Mayer (AO) data. WBOs > 0.1 written file <wbo>
 largest (>0.05) Wiberg bond orders for each atom
           total WBO             WBO to atom ...
     1  S   4.842    O    4 1.301    O    3 1.255    O    2 1.236    O    5 1.003
     2  O   1.700    S    1 1.236    O    3 0.106    O    4 0.101    O    5 0.079    H   22 0.067    H    7 0.055
     3  O   1.714    S    1 1.255    O    2 0.106    O    4 0.103    O    5 0.081    H   10 0.073
     4  O   1.763    S    1 1.301    H   23 0.124    O    3 0.103    O    2 0.101    O    5 0.064    N   19 0.052
     5  O   1.981    S    1 1.003    H   17 0.700    O    3 0.081    O    2 0.079    O    4 0.064
     6  O   1.859    H    8 0.917    H    7 0.839
     7  H   0.898    O    6 0.839    O    2 0.055
     8  H   0.919    O    6 0.917
     9  O   1.898    H   11 0.909    H   10 0.812    H   20 0.094
    10  H   0.889    O    9 0.812    O    3 0.073
    11  H   0.914    O    9 0.909
    12  O   1.911    H   13 0.850    H   14 0.847    H   18 0.111
    13  H   0.901    O   12 0.850
    14  H   0.896    O   12 0.847
    15  O   1.917    H   16 0.913    H   18 0.769    H   17 0.134
    16  H   0.915    O   15 0.913
    17  H   0.851    O    5 0.700    O   15 0.134
    18  H   0.883    O   15 0.769    O   12 0.111
    19  N   3.515    H   21 0.937    H   22 0.842    H   20 0.814    H   23 0.774    O    4 0.052
    20  H   0.912    N   19 0.814    O    9 0.094
    21  H   0.942    N   19 0.937
    22  H   0.918    N   19 0.842    O    2 0.067
    23  H   0.910    N   19 0.774    O    4 0.124
 MOs/occ written to file <molden.input>
 
molecular dipole:
                 x           y           z       tot (Debye)
 q only:        0.818       0.442       1.851
   full:        0.370       0.624       1.557       4.366
molecular quadrupole (traceless):
                xx          xy          yy          xz          yz          zz
 q only:       -9.485       9.927     -11.020       7.414       3.869      20.505
  q+dip:       -8.426      12.359     -11.897       7.111       2.444      20.323
   full:       -8.516      12.257     -12.418       7.199       2.371      20.934

SCC energy    :     -45.6206156
rep           :       0.2502996
ES            :       0.2419648
AES           :      -0.0692040
AXC           :      -0.0085464
disp          :      -0.0171087
XB            :       0.0000000
fix           :       0.0000000
total E       :     -45.3701395
atomizationE  :       4.4532020     2794.43
(atE without considering molecular charge,
 total energy contains solvation terms)
H-L gap (eV)  :          9.2756
optimized geometry written to: xtbopt.xyz


------------------------------------------------------------------------
 * finished run on 2019/09/16 at 12:02:31.598     
------------------------------------------------------------------------
 total:
 * wall-time:     0 d,  0 h,  0 min,  1.290 sec
 *  cpu-time:     0 d,  0 h,  0 min,  1.275 sec
 * ratio c/w:     0.988 speedup
 SCF:
 * wall-time:     0 d,  0 h,  0 min,  0.120 sec
 *  cpu-time:     0 d,  0 h,  0 min,  0.117 sec
 * ratio c/w:     0.974 speedup
 ANC optimizer:
 * wall-time:     0 d,  0 h,  0 min,  1.147 sec
 *  cpu-time:     0 d,  0 h,  0 min,  1.137 sec
 * ratio c/w:     0.991 speedup

