      -----------------------------------------------------------      
     |                   =====================                   |     
     |                           x T B                           |     
     |                   =====================                   |     
     |                         S. Grimme                         |     
     |          Mulliken Center for Theoretical Chemistry        |     
     |                    University of Bonn                     |     
     |                 Version 6.0.1 (SAW181210)                 |     
      -----------------------------------------------------------      

   This program is distributed in the hope that it will be useful,
   but WITHOUT ANY WARRANTY; without even the implied warranty of
   MERCHANTABILITY or FITNESS FOR A PARTICULAR PURPOSE.
   
   FOR NON-COMMERCIAL, ACADEMIA USE ONLY.
   
   Cite this work as:
   S. Grimme, C. Bannwarth, P. Shushkov, J. Comput. Theory Chem., 2017,
   13, 1989-2009.
   C. Bannwarth, S. Ehlert and S. Grimme., ChemRxiv, 2018, preprint.
   http://doi.org/10.26434/chemrxiv.7246238.v1
   
   for sTDA-xTB:
   S. Grimme and C. Bannwarth, J. Chem. Phys., 2016, 145, 054103.
   
   in the mass-spec context:
   V. Asgeirsson, C. Bauer and S. Grimme, Chem. Sci., 2017, 8, 4879.
   
   if GBSA is used:
   P. Shushkov, F. März and S. Grimme, unpublished.
   
   for ANC optimizer:
   S. Grimme, unpublished.
   Rational Function algorithm used in ANCopt:
   F. Eckert, P. Pulay, H.-J. Werner, J. Comput. Chem., 1997, 18, 1473.
   
   with help from (in alphabetical order)
   C. Bannwarth, F. Bohle, G. Brandenburg, E. Caldeweyher, M. Checinski,
   S. Dohm, S. Ehlert, S. Ehrlich, F. März, H. Neugebauer, J. Pisarek,
   P. Pracht, P. Shushkov, and S. Spicher.
   
 * started run on 2019/09/16 at 11:14:42.485     
========================================================================
 # omp threads = 1
========================================================================
number of atoms            : 23
number of electrons        : 72
charge                     : 0
spin                       : .0
first test random number   : .9248

########################################################################
# WARNING! Please study the warnings concerning your input carefully
#  - XTBPATH is not set, using XTBHOME instead
#  - the use of '-opt' is discouraged, please use '--opt' next time
#  - the use of '-chrg' is discouraged, please use '--chrg' next time
#  - the use of '-uhf' is discouraged, please use '--uhf' next time
########################################################################

           ------------------------------------------------- 
          |                 G F N 2 - x T B                 |
          | Geometry, Frequencies, Noncovalent interactions |
          |            JCTC 2018 parametrisation            |
           ------------------------------------------------- 
      method parameters     
 k(s)        :  1.8500
 k(p)        :  2.2300
 k(d)        :  2.2300
 k(f)        :  2.0000
 kEN (H0ij)  : -2.0000
 D4 a1       :  0.5200
 D4 a2       :  5.0000
 D4 s6       :  1.0000
 D4 s8       :  2.7000
 D4 s9       :  5.0000
 alphaj      :  2.0000


            Z     q(EN)     CN     RAES       Cart. coordinates
     1  S   6.0    0.64    4.26    4.17    -2.56966    -3.76458    -1.35694
     2  O   6.0   -0.31    1.22    1.80    -4.02738    -1.49561    -2.16623
     3  O   6.0   -0.31    1.24    1.80    -0.17166    -3.91239    -2.82521
     4  O   6.0   -0.30    1.16    1.80    -1.97835    -3.56997     1.38908
     5  O   6.0   -0.25    2.08    1.84    -4.08030    -6.04867    -1.81897
     6  H   1.0    0.15    1.21    1.47    -4.46173    -6.17483    -3.58806
     7  O   6.0   -0.39    1.68    1.81     1.69153     3.37296    -1.87697
     8  H   1.0    0.17    0.94    1.42     2.08121     4.88145    -2.90476
     9  O   6.0   -0.29    1.99    1.82     4.10096     2.12610     1.96742
    10  H   1.0    0.14    0.97    1.43     4.95650     3.54415     2.72360
    11  H   1.0    0.17    1.12    1.45     3.15785     2.82033     0.57343
    12  O   6.0   -0.22    2.92    2.60    -2.44883     2.69330    -0.13606
    13  H   1.0    0.13    1.06    1.44    -2.21265     2.24153     1.66115
    14  H   1.0    0.16    1.20    1.47    -0.83889     3.16791    -0.95633
    15  H   1.0    0.15    1.07    1.44    -3.34671     1.35476    -1.08137
    16  O   6.0   -0.22    2.91    2.56     3.52827    -0.75619    -2.34494
    17  H   1.0    0.16    1.19    1.46     2.80699     0.96167    -2.48119
    18  H   1.0    0.13    0.97    1.43     4.33691    -1.04672    -0.68611
    19  H   1.0    0.16    1.08    1.44     2.27010    -2.07699    -2.74988
    20  N   5.0   -0.22    3.05    1.93    -0.99327     0.82673     4.40771
    21  H   1.0    0.13    1.02    1.43    -1.37880    -0.93100     3.72012
    22  H   1.0    0.11    0.99    1.43    -1.33363     0.73387     6.30154
    23  H   1.0    0.11    1.00    1.43     0.91154     1.05218     4.22898

  Z AO/shell   Hii/eV     exponent
  1     Wed Apr 25 08:07:45 CEST 2018   EN: 2.200 GM2: 0.406  GM3: 0.0800  RAES: 1.40
     1s    -10.707211    1.230000
  7     Wed Apr 25 08:07:45 CEST 2018   EN: 3.040 GM2: 0.461  GM3:-0.0640  RAES: 1.90
     2s    -16.686243    2.339881
     2p    -12.523956    2.014332
  8     Wed Apr 25 08:07:45 CEST 2018   EN: 3.440 GM2: 0.452  GM3:-0.0517  RAES: 1.80
     2s    -20.229985    2.439742
     2p    -15.503117    2.137023
 16     Tue Apr 24 11:44:34 CEST 2018   EN: 2.580 GM2: 0.340  GM3:-0.0502  RAES: 3.10
     3s    -20.029654    1.981333
     3p    -11.377694    2.025643
     3d     -0.420282    1.702555
 no old-style atom pair restraining (fixing) potential

molecular fragmentation (1/2 indicates fragments):
11111122222222222222222
# atoms in fragment 1/2:     6    17
 fragment masses (1/2) :       97.07       90.10
CMA distance (Bohr)    :   6.831
constraining FC (au)   :  0.0500
           ------------------------------------------------- 
          |        Self-Consistent Charge Iterations        |
           ------------------------------------------------- 

 Ncao       : 59
 Nao        : 58
 Nshell     : 34
 Nel        : 72
 T(el)      :   300.0
 intcut     :    25.0
 scfconv/Eh :  0.100E-05
   qconv/e  :  0.100E-03
 intneglect :  0.100E-07
 broydamp   :      0.250
 iter      E             dE          RMSdq      gap      omega  full diag
   1    -45.4618356 -0.454618E+02  0.716E+00   10.17       0.0  T
   2    -45.5075728 -0.457372E-01  0.517E+00    9.53       1.0  T
   3    -45.5403243 -0.327515E-01  0.141E+00    8.21       1.0  T
   4    -45.5454781 -0.515380E-02  0.574E-01    8.54       1.0  T
   5    -45.5460398 -0.561728E-03  0.333E-01    8.55       1.0  T
   6    -45.5464703 -0.430451E-03  0.145E-01    8.64       1.0  T
   7    -45.5465707 -0.100447E-03  0.562E-02    8.63       1.0  T
   8    -45.5465855 -0.147856E-04  0.293E-02    8.62       1.0  T
   9    -45.5465892 -0.370414E-05  0.148E-02    8.63       1.4  T
  10    -45.5465905 -0.129919E-05  0.235E-03    8.63       8.9  T
  11    -45.5465905 -0.126287E-07  0.131E-03    8.63      15.9  T
  12    -45.5465905 -0.706733E-08  0.571E-04    8.63      36.5  T
  13    -45.5465905 -0.176269E-08  0.160E-04    8.63     130.0  T
speedup  0.99
cpu  time for SCC    0.01 s
wall time for SCC    0.01 s

   *** convergence criteria satisfied after 13 iterations ***

          eigenvalues
 #    :          24         25         26         27         28         29         30         31
 occ. :        2.000      2.000      2.000      2.000      2.000      2.000      2.000      2.000
 eps  :       -12.940    -12.881    -12.778    -11.871    -11.719    -11.630    -11.452    -11.059
 #    :          32         33         34         35         36         37         38         39
 occ. :        2.000      2.000      2.000      2.000      2.000      0.000      0.000      0.000
 eps  :       -10.953    -10.881    -10.726    -10.622    -10.424     -1.790     -0.551      0.028
 #    :          40         41         42         43         44         45         46         47
 occ. :        0.000      0.000      0.000      0.000      0.000      0.000      0.000      0.000
 eps  :         0.561      1.103      1.629      2.765      3.538      3.857      4.464      6.129


   #   Z            q   n(s)   n(p)   n(d)      C6AA      α(0)
   1  16 S      1.575  1.584  1.853  0.987    91.655    16.113
   2   8 O     -0.757  1.773  4.984  0.000    30.304     7.381
   3   8 O     -0.762  1.769  4.993  0.000    30.451     7.399
   4   8 O     -0.720  1.771  4.949  0.000    29.257     7.252
   5   8 O     -0.537  1.719  4.818  0.000    23.690     6.571
   6   1 H      0.357  0.643  0.000  0.000     0.564     1.175
   7   8 O     -0.852  1.826  5.025  0.000    33.127     7.719
   8   1 H      0.214  0.786  0.000  0.000     1.049     1.609
   9   8 O     -0.656  1.755  4.901  0.000    26.568     6.957
  10   1 H      0.263  0.737  0.000  0.000     0.845     1.444
  11   1 H      0.334  0.666  0.000  0.000     0.626     1.242
  12   8 O     -0.456  1.654  4.803  0.000    21.915     6.323
  13   1 H      0.386  0.614  0.000  0.000     0.512     1.124
  14   1 H      0.402  0.598  0.000  0.000     0.474     1.078
  15   1 H      0.395  0.605  0.000  0.000     0.494     1.105
  16   8 O     -0.431  1.652  4.779  0.000    21.408     6.249
  17   1 H      0.413  0.587  0.000  0.000     0.456     1.057
  18   1 H      0.389  0.611  0.000  0.000     0.505     1.117
  19   1 H      0.405  0.595  0.000  0.000     0.475     1.083
  20   7 N     -0.476  1.387  4.089  0.000    32.586     8.478
  21   1 H      0.197  0.803  0.000  0.000     1.124     1.661
  22   1 H      0.142  0.858  0.000  0.000     1.457     1.891
  23   1 H      0.174  0.826  0.000  0.000     1.249     1.751

 Mol. C6AA /au·bohr⁶  :       4560.558878
 Mol. C8AA /au·bohr⁸  :     100547.142860
 Mol. α(0) /au        :         97.775163

 
 Wiberg/Mayer (AO) data. WBOs > 0.1 written file <wbo>
 largest (>0.05) Wiberg bond orders for each atom
           total WBO             WBO to atom ...
     1  S   4.943    O    4 1.364    O    2 1.277    O    3 1.265    O    5 1.003
     2  O   1.691    S    1 1.277    O    4 0.117    O    3 0.110    H   15 0.085    O    5 0.070
     3  O   1.691    S    1 1.265    O    4 0.114    O    2 0.110    H   19 0.097    O    5 0.068
     4  O   1.705    S    1 1.364    O    2 0.117    O    3 0.114    O    5 0.056
     5  O   2.055    S    1 1.003    H    6 0.848    O    2 0.070    O    3 0.068    O    4 0.056
     6  H   0.872    O    5 0.848
     7  O   1.614    H    8 0.941    H   14 0.193    H   17 0.193    H   11 0.106    O   12 0.061    O   16 0.060
     8  H   0.954    O    7 0.941
     9  O   1.798    H   10 0.927    H   11 0.779
    10  H   0.931    O    9 0.927
    11  H   0.888    O    9 0.779    O    7 0.106
    12  O   2.287    H   13 0.754    H   15 0.751    H   14 0.641    O    7 0.061
    13  H   0.851    O   12 0.754    N   20 0.091
    14  H   0.838    O   12 0.641    O    7 0.193
    15  H   0.844    O   12 0.751    O    2 0.085
    16  O   2.304    H   18 0.831    H   19 0.729    H   17 0.631    O    7 0.060
    17  H   0.829    O   16 0.631    O    7 0.193
    18  H   0.849    O   16 0.831
    19  H   0.836    O   16 0.729    O    3 0.097
    20  N   3.015    H   22 0.973    H   23 0.954    H   21 0.930    H   13 0.091
    21  H   0.961    N   20 0.930
    22  H   0.980    N   20 0.973
    23  H   0.970    N   20 0.954
 MOs/occ written to file <molden.input>
 
molecular dipole:
                 x           y           z       tot (Debye)
 q only:        0.847       1.077      -0.297
   full:        0.755       0.592      -0.369       2.612
molecular quadrupole (traceless):
                xx          xy          yy          xz          yz          zz
 q only:        2.879      -2.472      -3.369       0.344       7.646       0.490
  q+dip:       -0.188       5.307      -0.509       4.155       8.389       0.697
   full:       -0.395       5.853      -0.329       4.418       8.536       0.724

SCC energy    :     -45.5465905
rep           :       0.2563067
ES            :       0.2670591
AES           :      -0.0624509
AXC           :      -0.0067238
disp          :      -0.0157222
XB            :       0.0000000
fix           :       0.0000000
total E       :     -45.2900565
atomizationE  :       4.3731190     2744.17
(atE without considering molecular charge,
 total energy contains solvation terms)
H-L gap (eV)  :          8.6332
           ------------------------------------------------- 
          |                 ===============                 |
          |                   A N C O P T                   |
          |                 ===============                 |
          |          Approximate Normal Coordinate          |
          |           Rational Function Optimizer           |
           ------------------------------------------------- 
dumping coords to <xtbopt.coord> and <xtbopt.log>
 optlevel               2
 Maxcycle             460
 Maxmicro              25
 Econv         1.000000000000000E-007
 Gconv         2.000000000000000E-004
 Maxdispl       1.00000000000000     
 Hlow          5.000000000000000E-003
 S6             20.0000000000000     
 Nvar               63

generating ANC from model Hessian ...
 Shifting diagonal of input Hessian by   5.027822308093633E-003
 Lowest  eigenvalues of input Hessian
    0.005000   -0.000000   -0.000000    0.000000    0.000000    0.000000
    0.000000    0.005132    0.005911    0.006141    0.006498    0.006886
    0.007450    0.008391    0.008819    0.008990    0.009193    0.011089
 Highest eigenvalues
    1.556867    1.582610    1.585466    3.140545    3.216933    3.314595
 
cpu  time for ANC gen    0.02 s
wall time for ANC gen    0.02 s
................................................................................
.............................. CYCLE    1 ......................................
................................................................................
   1    -45.5465905 -0.455466E+02  0.778E-05    8.63       0.0  T
   2    -45.5465905 -0.109637E-10  0.614E-05    8.63     339.8  T
   3    -45.5465905 -0.114468E-10  0.321E-05    8.63     650.0  T
speedup  0.80
cpu  time for SCC    0.00 s
wall time for SCC    0.00 s
speedup  0.96
cpu  time for grad    0.01 s
wall time for grad    0.01 s
 E :    -45.29005646  G :  0.205592    pred/act E change:  0.000D+00  0.447D-07
Maxdispl :   0.1245   ||displ|| :   0.3062   Lambda : -0.311D-01
Largest |displ|/coords:  0.1245 (  19)  0.1024 (  47)  0.1015 (  26)
................................................................................
.............................. CYCLE    2 ......................................
................................................................................
   1    -45.5586001 -0.455586E+02  0.267E-01    8.69       0.0  T
   2    -45.5587812 -0.181149E-03  0.203E-01    8.73       1.0  T
   3    -45.5588707 -0.894875E-04  0.819E-02    8.78       1.0  T
   4    -45.5588805 -0.984085E-05  0.191E-02    8.77       1.1  T
   5    -45.5588812 -0.703082E-06  0.575E-03    8.77       3.6  T
   6    -45.5588813 -0.474769E-07  0.312E-03    8.77       6.7  T
speedup  1.11
cpu  time for SCC    0.00 s
wall time for SCC    0.00 s
speedup  0.95
cpu  time for grad    0.01 s
wall time for grad    0.01 s
 E :    -45.31478994  G :  0.126480    pred/act E change:  0.000D+00 -0.247D-01
Maxdispl :   0.1409   ||displ|| :   0.3482   Lambda : -0.162D-01
Largest |displ|/coords:  0.1409 (  19)  0.1245 (  26)  0.1162 (  21)
................................................................................
.............................. CYCLE    3 ......................................
................................................................................
   1    -45.5647643 -0.455648E+02  0.266E-01    8.78       0.0  T
   2    -45.5650100 -0.245712E-03  0.196E-01    8.80       1.0  T
   3    -45.5651189 -0.108957E-03  0.846E-02    8.81       1.0  T
   4    -45.5651277 -0.873773E-05  0.165E-02    8.80       1.3  T
   5    -45.5651281 -0.458806E-06  0.579E-03    8.80       3.6  T
   6    -45.5651282 -0.404858E-07  0.313E-03    8.80       6.7  T
speedup  1.02
cpu  time for SCC    0.00 s
wall time for SCC    0.00 s
speedup  0.96
cpu  time for grad    0.01 s
wall time for grad    0.01 s
 E :    -45.32778783  G :  0.080944    pred/act E change: -0.170D-01 -0.130D-01
Maxdispl :   0.1120   ||displ|| :   0.3276   Lambda : -0.809D-02
Largest |displ|/coords:  0.1120 (  21)  0.1053 (  18)  0.0947 (  19)
................................................................................
.............................. CYCLE    4 ......................................
................................................................................
   1    -45.5667720 -0.455668E+02  0.264E-01    8.79       0.0  T
   2    -45.5670097 -0.237705E-03  0.190E-01    8.81       1.0  T
   3    -45.5671110 -0.101224E-03  0.762E-02    8.83       1.0  T
   4    -45.5671197 -0.876535E-05  0.150E-02    8.82       1.4  T
   5    -45.5671200 -0.310838E-06  0.522E-03    8.83       4.0  T
   6    -45.5671201 -0.274582E-07  0.285E-03    8.83       7.3  T
speedup  0.89
cpu  time for SCC    0.00 s
wall time for SCC    0.00 s
speedup  0.99
cpu  time for grad    0.01 s
wall time for grad    0.01 s
 E :    -45.33417554  G :  0.053670    pred/act E change: -0.908D-02 -0.639D-02
Maxdispl :   0.0921   ||displ|| :   0.2760   Lambda : -0.406D-02
Largest |displ|/coords:  0.0921 (  10)  0.0857 (  18)  0.0767 (  14)
................................................................................
.............................. CYCLE    5 ......................................
................................................................................
   1    -45.5676713 -0.455677E+02  0.260E-01    8.79       0.0  T
   2    -45.5678236 -0.152238E-03  0.189E-01    8.81       1.0  T
   3    -45.5678863 -0.627484E-04  0.635E-02    8.84       1.0  T
   4    -45.5678969 -0.106034E-04  0.147E-02    8.84       1.4  T
   5    -45.5678973 -0.332051E-06  0.434E-03    8.84       4.8  T
   6    -45.5678973 -0.175376E-07  0.236E-03    8.84       8.9  T
speedup  1.11
cpu  time for SCC    0.01 s
wall time for SCC    0.00 s
speedup  1.00
cpu  time for grad    0.01 s
wall time for grad    0.01 s
 E :    -45.33756151  G :  0.039946    pred/act E change: -0.448D-02 -0.339D-02
Maxdispl :   0.1997   ||displ|| :   0.4865   Lambda : -0.713D-02
Largest |displ|/coords:  0.1997 (  18)  0.1428 (  20)  0.1402 (  17)
................................................................................
.............................. CYCLE    6 ......................................
................................................................................
   1    -45.5720882 -0.455721E+02  0.505E-01    8.83       0.0  T
   2    -45.5728354 -0.747209E-03  0.364E-01    8.89       1.0  T
   3    -45.5731548 -0.319422E-03  0.134E-01    8.98       1.0  T
   4    -45.5731958 -0.409687E-04  0.339E-02    8.99       1.0  T
   5    -45.5731973 -0.157421E-05  0.109E-02    8.99       1.9  T
   6    -45.5731975 -0.106738E-06  0.549E-03    8.99       3.8  T
   7    -45.5731975 -0.415825E-07  0.150E-03    8.99      13.9  T
speedup  0.96
cpu  time for SCC    0.01 s
wall time for SCC    0.01 s
speedup  1.03
cpu  time for grad    0.01 s
wall time for grad    0.01 s
 E :    -45.34142654  G :  0.040551    pred/act E change: -0.218D-02 -0.387D-02
Maxdispl :   0.2601   ||displ|| :   0.4895   Lambda : -0.506D-02
Largest |displ|/coords:  0.2601 (  11)  0.1599 (  14)  0.1597 (   7)
................................................................................
.............................. CYCLE    7 ......................................
................................................................................
   1    -45.5720492 -0.455720E+02  0.619E-01    8.77       0.0  T
   2    -45.5724167 -0.367418E-03  0.463E-01    8.82       1.0  T
   3    -45.5725769 -0.160231E-03  0.107E-01    8.92       1.0  T
   4    -45.5726305 -0.535866E-04  0.300E-02    8.91       1.0  T
   5    -45.5726317 -0.125905E-05  0.896E-03    8.91       2.3  T
   6    -45.5726318 -0.452280E-07  0.453E-03    8.91       4.6  T
   7    -45.5726318 -0.231274E-07  0.109E-03    8.91      19.1  T
speedup  0.98
cpu  time for SCC    0.00 s
wall time for SCC    0.01 s
speedup  1.03
cpu  time for grad    0.01 s
wall time for grad    0.01 s
 E :    -45.34320056  G :  0.060327    pred/act E change: -0.441D-02 -0.177D-02
Maxdispl :   0.1836   ||displ|| :   0.3073   Lambda : -0.534D-02
Largest |displ|/coords:  0.1836 (  11)  0.1071 (   9)  0.1040 (   1)
................................................................................
.............................. CYCLE    8 ......................................
................................................................................
   1    -45.5811908 -0.455812E+02  0.441E-01    9.04       0.0  T
   2    -45.5813023 -0.111456E-03  0.334E-01    9.06       1.0  T
   3    -45.5813580 -0.557248E-04  0.637E-02    9.09       1.0  T
   4    -45.5813766 -0.186364E-04  0.159E-02    9.08       1.3  T
   5    -45.5813772 -0.535317E-06  0.539E-03    9.08       3.9  T
   6    -45.5813772 -0.144019E-07  0.271E-03    9.08       7.7  T
speedup  0.89
cpu  time for SCC    0.00 s
wall time for SCC    0.00 s
speedup  0.91
cpu  time for grad    0.01 s
wall time for grad    0.01 s
 E :    -45.34504744  G :  0.046004    pred/act E change: -0.313D-02 -0.185D-02
Maxdispl :   0.0576   ||displ|| :   0.2064   Lambda : -0.268D-02
Largest |displ|/coords:  0.0576 (  25)  0.0526 (   5)  0.0506 (   2)
................................................................................
.............................. CYCLE    9 ......................................
................................................................................
   1    -45.5879142 -0.455879E+02  0.151E-01    9.08       0.0  T
   2    -45.5879526 -0.384408E-04  0.111E-01    9.09       1.0  T
   3    -45.5879779 -0.252807E-04  0.351E-02    9.09       1.0  T
   4    -45.5879817 -0.378550E-05  0.976E-03    9.09       2.1  T
   5    -45.5879818 -0.118833E-06  0.368E-03    9.09       5.7  T
   6    -45.5879818 -0.119596E-07  0.162E-03    9.09      12.9  T
speedup  0.91
cpu  time for SCC    0.00 s
wall time for SCC    0.00 s
speedup  0.99
cpu  time for grad    0.01 s
wall time for grad    0.01 s
 E :    -45.34733533  G :  0.044490    pred/act E change: -0.292D-02 -0.229D-02
Maxdispl :   0.2271   ||displ|| :   0.6282   Lambda : -0.101D-01
Largest |displ|/coords:  0.2271 (  25)  0.1993 (  18)  0.1883 (   7)
................................................................................
.............................. CYCLE   10 ......................................
................................................................................
   1    -45.6030944 -0.456031E+02  0.534E-01    9.01       0.0  T
   2    -45.6034358 -0.341436E-03  0.397E-01    9.00       1.0  T
   3    -45.6037202 -0.284461E-03  0.117E-01    8.98       1.0  T
   4    -45.6037554 -0.351098E-04  0.309E-02    8.98       1.0  T
   5    -45.6037565 -0.109398E-05  0.125E-02    8.98       1.7  T
   6    -45.6037566 -0.118040E-06  0.495E-03    8.98       4.2  T
   7    -45.6037566 -0.430851E-07  0.161E-03    8.98      13.0  T
speedup  0.96
cpu  time for SCC    0.00 s
wall time for SCC    0.01 s
speedup  0.94
cpu  time for grad    0.01 s
wall time for grad    0.01 s
 E :    -45.35262900  G :  0.050246    pred/act E change: -0.140D-02 -0.529D-02
Maxdispl :   0.1152   ||displ|| :   0.3227   Lambda : -0.755D-02
Largest |displ|/coords:  0.1152 (  17)  0.1131 (  18)  0.1063 (  22)
................................................................................
.............................. CYCLE   11 ......................................
................................................................................
   1    -45.5968244 -0.455968E+02  0.293E-01    9.11       0.0  T
   2    -45.5970301 -0.205692E-03  0.216E-01    9.11       1.0  T
   3    -45.5971601 -0.130009E-03  0.760E-02    9.10       1.0  T
   4    -45.5971773 -0.171871E-04  0.235E-02    9.10       1.0  T
   5    -45.5971780 -0.700938E-06  0.752E-03    9.10       2.8  T
   6    -45.5971781 -0.809615E-07  0.383E-03    9.10       5.4  T
   7    -45.5971781 -0.189218E-07  0.107E-03    9.10      19.4  T
speedup  1.15
cpu  time for SCC    0.01 s
wall time for SCC    0.01 s
speedup  1.03
cpu  time for grad    0.01 s
wall time for grad    0.01 s
 E :    -45.35300013  G :  0.047421    pred/act E change: -0.706D-02 -0.371D-03
Maxdispl :   0.1318   ||displ|| :   0.3676   Lambda : -0.511D-02
Largest |displ|/coords:  0.1318 (   1)  0.1135 (  25)  0.1133 (  14)
................................................................................
.............................. CYCLE   12 ......................................
................................................................................
   1    -45.5980841 -0.455981E+02  0.335E-01    9.05       0.0  T
   2    -45.5983223 -0.238201E-03  0.243E-01    9.05       1.0  T
   3    -45.5984295 -0.107204E-03  0.829E-02    9.05       1.0  T
   4    -45.5984496 -0.200852E-04  0.235E-02    9.05       1.0  T
   5    -45.5984506 -0.938818E-06  0.777E-03    9.05       2.7  T
   6    -45.5984506 -0.570291E-07  0.379E-03    9.05       5.5  T
   7    -45.5984506 -0.200085E-07  0.983E-04    9.05      21.2  T
speedup  0.96
cpu  time for SCC    0.01 s
wall time for SCC    0.01 s
speedup  0.85
cpu  time for grad    0.01 s
wall time for grad    0.01 s
 E :    -45.35649351  G :  0.034534    pred/act E change: -0.417D-02 -0.349D-02
Maxdispl :   0.1570   ||displ|| :   0.4536   Lambda : -0.616D-02
Largest |displ|/coords:  0.1570 (   8)  0.1466 (   1)  0.1339 (  42)
................................................................................
.............................. CYCLE   13 ......................................
................................................................................
   1    -45.6236647 -0.456237E+02  0.395E-01    9.04       0.0  T
   2    -45.6240169 -0.352198E-03  0.286E-01    9.04       1.0  T
   3    -45.6241856 -0.168721E-03  0.103E-01    9.04       1.0  T
   4    -45.6242134 -0.277269E-04  0.302E-02    9.04       1.0  T
   5    -45.6242148 -0.146197E-05  0.992E-03    9.04       2.1  T
   6    -45.6242149 -0.974853E-07  0.471E-03    9.04       4.4  T
   7    -45.6242149 -0.249377E-07  0.142E-03    9.04      14.7  T
speedup  0.96
cpu  time for SCC    0.00 s
wall time for SCC    0.01 s
speedup  0.95
cpu  time for grad    0.01 s
wall time for grad    0.01 s
 E :    -45.35498393  G :  0.086468    pred/act E change: -0.290D-02  0.151D-02
Maxdispl :   0.1301   ||displ|| :   0.3514   Lambda : -0.200D-01
Largest |displ|/coords:  0.1301 (  19)  0.1129 (   2)  0.1023 (  13)
................................................................................
.............................. CYCLE   14 ......................................
................................................................................
   1    -45.5941835 -0.455942E+02  0.383E-01    9.09       0.0  T
   2    -45.5944347 -0.251226E-03  0.273E-01    9.08       1.0  T
   3    -45.5945791 -0.144357E-03  0.853E-02    9.07       1.0  T
   4    -45.5945973 -0.182521E-04  0.246E-02    9.08       1.0  T
   5    -45.5945983 -0.943853E-06  0.866E-03    9.07       2.4  T
   6    -45.5945984 -0.107553E-06  0.493E-03    9.07       4.2  T
   7    -45.5945984 -0.325383E-07  0.102E-03    9.07      20.5  T
speedup  0.96
cpu  time for SCC    0.00 s
wall time for SCC    0.01 s
speedup  0.95
cpu  time for grad    0.01 s
wall time for grad    0.01 s
 E :    -45.35518219  G :  0.071335    pred/act E change: -0.371D-02 -0.198D-03
Maxdispl :   0.1587   ||displ|| :   0.3795   Lambda : -0.138D-01
Largest |displ|/coords:  0.1587 (  19)  0.1341 (   7)  0.1124 (  13)
................................................................................
.............................. CYCLE   15 ......................................
................................................................................
   1    -45.6101769 -0.456102E+02  0.443E-01    9.09       0.0  T
   2    -45.6105165 -0.339648E-03  0.318E-01    9.09       1.0  T
   3    -45.6106651 -0.148570E-03  0.964E-02    9.09       1.0  T
   4    -45.6106916 -0.264950E-04  0.259E-02    9.09       1.0  T
   5    -45.6106931 -0.151027E-05  0.910E-03    9.09       2.3  T
   6    -45.6106931 -0.516673E-07  0.433E-03    9.09       4.8  T
   7    -45.6106932 -0.331356E-07  0.987E-04    9.09      21.1  T
speedup  0.96
cpu  time for SCC    0.00 s
wall time for SCC    0.01 s
speedup  0.95
cpu  time for grad    0.01 s
wall time for grad    0.01 s
 E :    -45.35707738  G :  0.079184    pred/act E change: -0.112D-01 -0.190D-02
Maxdispl :   0.2053   ||displ|| :   0.4868   Lambda : -0.155D-01
Largest |displ|/coords:  0.2053 (  15)  0.1896 (  13)  0.1345 (  10)
................................................................................
.............................. CYCLE   16 ......................................
................................................................................
   1    -45.6203475 -0.456203E+02  0.501E-01    9.20       0.0  T
   2    -45.6205270 -0.179514E-03  0.369E-01    9.19       1.0  T
   3    -45.6206606 -0.133559E-03  0.754E-02    9.19       1.0  T
   4    -45.6206779 -0.172881E-04  0.225E-02    9.19       1.0  T
   5    -45.6206786 -0.717470E-06  0.896E-03    9.19       2.3  T
   6    -45.6206787 -0.995844E-07  0.430E-03    9.19       4.8  T
   7    -45.6206787 -0.398950E-07  0.119E-03    9.19      17.5  T
speedup  0.96
cpu  time for SCC    0.00 s
wall time for SCC    0.01 s
speedup  1.03
cpu  time for grad    0.01 s
wall time for grad    0.01 s
 E :    -45.35670849  G :  0.085583    pred/act E change: -0.788D-02  0.369D-03
Maxdispl :   0.1617   ||displ|| :   0.4099   Lambda : -0.158D-01
Largest |displ|/coords:  0.1617 (  14)  0.1480 (  15)  0.1360 (  16)
................................................................................
.............................. CYCLE   17 ......................................
................................................................................
   1    -45.6048407 -0.456048E+02  0.401E-01    9.08       0.0  T
   2    -45.6049777 -0.136985E-03  0.293E-01    9.08       1.0  T
   3    -45.6050748 -0.971135E-04  0.632E-02    9.09       1.0  T
   4    -45.6050871 -0.122423E-04  0.193E-02    9.09       1.1  T
   5    -45.6050876 -0.494849E-06  0.811E-03    9.09       2.6  T
   6    -45.6050877 -0.111214E-06  0.316E-03    9.09       6.6  T
   7    -45.6050877 -0.253450E-07  0.108E-03    9.09      19.3  T
speedup  0.96
cpu  time for SCC    0.00 s
wall time for SCC    0.01 s
speedup  1.03
cpu  time for grad    0.01 s
wall time for grad    0.01 s
 E :    -45.35969003  G :  0.050248    pred/act E change: -0.956D-02 -0.298D-02
Maxdispl :   0.1185   ||displ|| :   0.3182   Lambda : -0.794D-02
Largest |displ|/coords:  0.1185 (  20)  0.1138 (  21)  0.0914 (  16)
................................................................................
.............................. CYCLE   18 ......................................
................................................................................
   1    -45.6227042 -0.456227E+02  0.308E-01    9.18       0.0  T
   2    -45.6229175 -0.213367E-03  0.225E-01    9.18       1.0  T
   3    -45.6230153 -0.977105E-04  0.740E-02    9.18       1.0  T
   4    -45.6230316 -0.163076E-04  0.179E-02    9.18       1.2  T
   5    -45.6230322 -0.607061E-06  0.684E-03    9.17       3.0  T
   6    -45.6230322 -0.363964E-07  0.303E-03    9.17       6.9  T
   7    -45.6230322 -0.170738E-07  0.850E-04    9.18      24.5  T
speedup  1.15
cpu  time for SCC    0.01 s
wall time for SCC    0.01 s
speedup  1.03
cpu  time for grad    0.01 s
wall time for grad    0.01 s
 E :    -45.36136969  G :  0.035112    pred/act E change: -0.925D-02 -0.168D-02
Maxdispl :   0.1143   ||displ|| :   0.2311   Lambda : -0.366D-02
Largest |displ|/coords:  0.1143 (   8)  0.0764 (  16)  0.0741 (  19)
................................................................................
.............................. CYCLE   19 ......................................
................................................................................
   1    -45.6171587 -0.456172E+02  0.149E-01    9.13       0.0  T
   2    -45.6172251 -0.663605E-04  0.106E-01    9.13       1.0  T
   3    -45.6172494 -0.243210E-04  0.392E-02    9.14       1.0  T
   4    -45.6172526 -0.320332E-05  0.767E-03    9.14       2.7  T
   5    -45.6172528 -0.151760E-06  0.226E-03    9.14       9.2  T
   6    -45.6172528 -0.387110E-08  0.137E-03    9.14      15.2  T
speedup  0.89
cpu  time for SCC    0.00 s
wall time for SCC    0.00 s
speedup  0.92
cpu  time for grad    0.01 s
wall time for grad    0.01 s
 E :    -45.36272597  G :  0.030742    pred/act E change: -0.437D-02 -0.136D-02
Maxdispl :   0.1101   ||displ|| :   0.1993   Lambda : -0.215D-02
Largest |displ|/coords:  0.1101 (  14)  0.0644 (  15)  0.0569 (   4)
................................................................................
.............................. CYCLE   20 ......................................
................................................................................
   1    -45.6163709 -0.456164E+02  0.167E-01    9.11       0.0  T
   2    -45.6164194 -0.484604E-04  0.120E-01    9.11       1.0  T
   3    -45.6164363 -0.169065E-04  0.365E-02    9.11       1.0  T
   4    -45.6164408 -0.452091E-05  0.865E-03    9.11       2.4  T
   5    -45.6164409 -0.989012E-07  0.289E-03    9.11       7.2  T
   6    -45.6164409 -0.823673E-08  0.136E-03    9.11      15.4  T
speedup  0.91
cpu  time for SCC    0.00 s
wall time for SCC    0.00 s
speedup  1.02
cpu  time for grad    0.01 s
wall time for grad    0.01 s
 E :    -45.36358096  G :  0.025827    pred/act E change: -0.193D-02 -0.855D-03
Maxdispl :   0.1157   ||displ|| :   0.2608   Lambda : -0.175D-02
Largest |displ|/coords:  0.1157 (   5)  0.1019 (   8)  0.0802 (   6)
................................................................................
.............................. CYCLE   21 ......................................
................................................................................
   1    -45.6177827 -0.456178E+02  0.185E-01    9.09       0.0  T
   2    -45.6178517 -0.690261E-04  0.136E-01    9.08       1.0  T
   3    -45.6178774 -0.257160E-04  0.443E-02    9.08       1.0  T
   4    -45.6178832 -0.583815E-05  0.109E-02    9.08       1.9  T
   5    -45.6178835 -0.237249E-06  0.338E-03    9.08       6.2  T
   6    -45.6178835 -0.114573E-07  0.162E-03    9.08      12.8  T
speedup  1.11
cpu  time for SCC    0.01 s
wall time for SCC    0.00 s
speedup  1.02
cpu  time for grad    0.01 s
wall time for grad    0.01 s
 E :    -45.36454969  G :  0.026031    pred/act E change: -0.112D-02 -0.969D-03
Maxdispl :   0.1152   ||displ|| :   0.3377   Lambda : -0.247D-02
Largest |displ|/coords:  0.1152 (   8)  0.1140 (   3)  0.1036 (   1)
................................................................................
.............................. CYCLE   22 ......................................
................................................................................
   1    -45.6300093 -0.456300E+02  0.152E-01    9.16       0.0  T
   2    -45.6300411 -0.317698E-04  0.113E-01    9.16       1.0  T
   3    -45.6300559 -0.147843E-04  0.314E-02    9.16       1.0  T
   4    -45.6300593 -0.344439E-05  0.883E-03    9.16       2.4  T
   5    -45.6300594 -0.129140E-06  0.289E-03    9.16       7.2  T
   6    -45.6300594 -0.103359E-07  0.149E-03    9.16      14.0  T
speedup  0.89
cpu  time for SCC    0.00 s
wall time for SCC    0.00 s
speedup  0.92
cpu  time for grad    0.01 s
wall time for grad    0.01 s
 E :    -45.36589507  G :  0.018025    pred/act E change: -0.933D-03 -0.135D-02
Maxdispl :   0.1497   ||displ|| :   0.3427   Lambda : -0.154D-02
Largest |displ|/coords:  0.1497 (   5)  0.1467 (   8)  0.1059 (   4)
................................................................................
.............................. CYCLE   23 ......................................
................................................................................
   1    -45.6257084 -0.456257E+02  0.175E-01    9.14       0.0  T
   2    -45.6257187 -0.102938E-04  0.131E-01    9.14       1.0  T
   3    -45.6257245 -0.576733E-05  0.200E-02    9.14       1.0  T
   4    -45.6257261 -0.163943E-05  0.611E-03    9.14       3.4  T
   5    -45.6257261 -0.477491E-07  0.222E-03    9.14       9.4  T
   6    -45.6257261 -0.741804E-08  0.113E-03    9.14      18.5  T
speedup  1.11
cpu  time for SCC    0.00 s
wall time for SCC    0.00 s
speedup  1.01
cpu  time for grad    0.01 s
wall time for grad    0.01 s
 E :    -45.36683054  G :  0.016360    pred/act E change: -0.137D-02 -0.935D-03
Maxdispl :   0.1184   ||displ|| :   0.3245   Lambda : -0.106D-02
Largest |displ|/coords:  0.1184 (   9)  0.0985 (  11)  0.0984 (   3)
................................................................................
.............................. CYCLE   24 ......................................
................................................................................
   1    -45.6253021 -0.456253E+02  0.151E-01    9.15       0.0  T
   2    -45.6253106 -0.851055E-05  0.114E-01    9.15       1.0  T
   3    -45.6253175 -0.695469E-05  0.174E-02    9.16       1.2  T
   4    -45.6253186 -0.102388E-05  0.550E-03    9.16       3.8  T
   5    -45.6253186 -0.602186E-07  0.217E-03    9.16       9.6  T
   6    -45.6253186 -0.634260E-08  0.111E-03    9.16      18.8  T
speedup  1.14
cpu  time for SCC    0.00 s
wall time for SCC    0.00 s
speedup  1.01
cpu  time for grad    0.01 s
wall time for grad    0.01 s
 E :    -45.36719199  G :  0.019772    pred/act E change: -0.862D-03 -0.361D-03
Maxdispl :   0.0936   ||displ|| :   0.1891   Lambda : -0.730D-03
Largest |displ|/coords:  0.0936 (   4)  0.0935 (   9)  0.0607 (   8)
................................................................................
.............................. CYCLE   25 ......................................
................................................................................
   1    -45.6281774 -0.456282E+02  0.123E-01    9.16       0.0  T
   2    -45.6281876 -0.101335E-04  0.920E-02    9.16       1.0  T
   3    -45.6281925 -0.494177E-05  0.183E-02    9.16       1.1  T
   4    -45.6281942 -0.169247E-05  0.546E-03    9.16       3.8  T
   5    -45.6281942 -0.474689E-07  0.194E-03    9.16      10.7  T
   6    -45.6281942 -0.332217E-08  0.975E-04    9.16      21.4  T
speedup  1.11
cpu  time for SCC    0.00 s
wall time for SCC    0.00 s
speedup  1.01
cpu  time for grad    0.01 s
wall time for grad    0.01 s
 E :    -45.36755864  G :  0.016031    pred/act E change: -0.586D-03 -0.367D-03
Maxdispl :   0.0883   ||displ|| :   0.1711   Lambda : -0.612D-03
Largest |displ|/coords:  0.0883 (   5)  0.0846 (   9)  0.0475 (   4)

generating ANC from model Hessian ...
 Shifting diagonal of input Hessian by   4.871119449642887E-003
 Lowest  eigenvalues of input Hessian
   -0.000000   -0.000000    0.000000    0.000000    0.000000    0.000000
    0.005000    0.005372    0.005589    0.006028    0.006367    0.007173
    0.007542    0.009488    0.010306    0.010936    0.011534    0.012361
 Highest eigenvalues
    1.400030    1.414718    1.441695    2.550783    3.493234    3.531187
 
cpu  time for ANC gen    0.02 s
wall time for ANC gen    0.02 s
................................................................................
.............................. CYCLE   26 ......................................
................................................................................
   1    -45.6271284 -0.456271E+02  0.118E-01    9.13       0.0  T
   2    -45.6271374 -0.893261E-05  0.876E-02    9.13       1.0  T
   3    -45.6271416 -0.423123E-05  0.176E-02    9.13       1.2  T
   4    -45.6271428 -0.125928E-05  0.539E-03    9.13       3.9  T
   5    -45.6271429 -0.432363E-07  0.171E-03    9.13      12.2  T
   6    -45.6271429 -0.328949E-08  0.929E-04    9.13      22.4  T
   7    -45.6271429 -0.121030E-08  0.296E-04    9.13      70.4  T
speedup  0.94
cpu  time for SCC    0.01 s
wall time for SCC    0.01 s
speedup  0.98
cpu  time for grad    0.01 s
wall time for grad    0.01 s
 E :    -45.36786902  G :  0.015467    pred/act E change:  0.000D+00 -0.310D-03
Maxdispl :   0.0932   ||displ|| :   0.1718   Lambda : -0.580D-03
Largest |displ|/coords:  0.0932 (  17)  0.0737 (   7)  0.0691 (   6)
................................................................................
.............................. CYCLE   27 ......................................
................................................................................
   1    -45.6289075 -0.456289E+02  0.109E-01    9.17       0.0  T
   2    -45.6289113 -0.374253E-05  0.809E-02    9.17       1.0  T
   3    -45.6289135 -0.219073E-05  0.144E-02    9.17       1.5  T
   4    -45.6289140 -0.536514E-06  0.395E-03    9.17       5.3  T
   5    -45.6289140 -0.266658E-07  0.125E-03    9.17      16.6  T
   6    -45.6289140 -0.209663E-08  0.743E-04    9.17      28.1  T
speedup  0.89
cpu  time for SCC    0.00 s
wall time for SCC    0.00 s
speedup  1.00
cpu  time for grad    0.01 s
wall time for grad    0.01 s
 E :    -45.36831217  G :  0.009160    pred/act E change:  0.000D+00 -0.443D-03
Maxdispl :   0.2417   ||displ|| :   0.4083   Lambda : -0.901D-03
Largest |displ|/coords:  0.2417 (   6)  0.1803 (  17)  0.1331 (   2)
................................................................................
.............................. CYCLE   28 ......................................
................................................................................
   1    -45.6300219 -0.456300E+02  0.260E-01    9.18       0.0  T
   2    -45.6300348 -0.129079E-04  0.194E-01    9.18       1.0  T
   3    -45.6300449 -0.101219E-04  0.280E-02    9.18       1.0  T
   4    -45.6300465 -0.159660E-05  0.747E-03    9.18       2.8  T
   5    -45.6300466 -0.934038E-07  0.269E-03    9.18       7.8  T
   6    -45.6300466 -0.101210E-07  0.154E-03    9.18      13.5  T
speedup  1.11
cpu  time for SCC    0.00 s
wall time for SCC    0.00 s
speedup  1.00
cpu  time for grad    0.01 s
wall time for grad    0.01 s
 E :    -45.36891761  G :  0.009890    pred/act E change: -0.298D-03 -0.605D-03
Maxdispl :   0.2508   ||displ|| :   0.4216   Lambda : -0.590D-03
Largest |displ|/coords:  0.2508 (   6)  0.1750 (   2)  0.1558 (  17)
................................................................................
.............................. CYCLE   29 ......................................
................................................................................
   1    -45.6268032 -0.456268E+02  0.288E-01    9.09       0.0  T
   2    -45.6268146 -0.114427E-04  0.216E-01    9.09       1.0  T
   3    -45.6268261 -0.115303E-04  0.255E-02    9.09       1.0  T
   4    -45.6268272 -0.107844E-05  0.785E-03    9.09       2.7  T
   5    -45.6268273 -0.869041E-07  0.284E-03    9.09       7.4  T
   6    -45.6268273 -0.864874E-08  0.165E-03    9.09      12.6  T
speedup  0.89
cpu  time for SCC    0.00 s
wall time for SCC    0.00 s
speedup  1.00
cpu  time for grad    0.01 s
wall time for grad    0.01 s
 E :    -45.36927740  G :  0.014285    pred/act E change: -0.526D-03 -0.360D-03
Maxdispl :   0.1476   ||displ|| :   0.2610   Lambda : -0.424D-03
Largest |displ|/coords:  0.1476 (   6)  0.0929 (   2)  0.0873 (   4)
................................................................................
.............................. CYCLE   30 ......................................
................................................................................
   1    -45.6262153 -0.456262E+02  0.164E-01    9.05       0.0  T
   2    -45.6262199 -0.463167E-05  0.123E-01    9.06       1.0  T
   3    -45.6262240 -0.411326E-05  0.148E-02    9.06       1.4  T
   4    -45.6262246 -0.556370E-06  0.540E-03    9.06       3.9  T
   5    -45.6262246 -0.348710E-07  0.175E-03    9.06      11.9  T
   6    -45.6262246 -0.345692E-08  0.102E-03    9.06      20.4  T
speedup  0.89
cpu  time for SCC    0.00 s
wall time for SCC    0.00 s
speedup  1.00
cpu  time for grad    0.01 s
wall time for grad    0.01 s
 E :    -45.36952385  G :  0.012199    pred/act E change: -0.348D-03 -0.246D-03
Maxdispl :   0.0752   ||displ|| :   0.1996   Lambda : -0.516D-03
Largest |displ|/coords:  0.0752 (   3)  0.0653 (   2)  0.0614 (   1)
................................................................................
.............................. CYCLE   31 ......................................
................................................................................
   1    -45.6296836 -0.456297E+02  0.153E-01    9.16       0.0  T
   2    -45.6296916 -0.801917E-05  0.114E-01    9.16       1.0  T
   3    -45.6296965 -0.482459E-05  0.199E-02    9.16       1.0  T
   4    -45.6296977 -0.119625E-05  0.609E-03    9.15       3.4  T
   5    -45.6296977 -0.392719E-07  0.167E-03    9.16      12.5  T
   6    -45.6296977 -0.222315E-08  0.937E-04    9.16      22.3  T
speedup  1.11
cpu  time for SCC    0.00 s
wall time for SCC    0.00 s
speedup  0.98
cpu  time for grad    0.01 s
wall time for grad    0.01 s
 E :    -45.36973569  G :  0.008898    pred/act E change: -0.226D-03 -0.212D-03
Maxdispl :   0.0818   ||displ|| :   0.1522   Lambda : -0.167D-03
Largest |displ|/coords:  0.0818 (   2)  0.0657 (   6)  0.0448 (   4)
................................................................................
.............................. CYCLE   32 ......................................
................................................................................
   1    -45.6291709 -0.456292E+02  0.889E-02    9.13       0.0  T
   2    -45.6291721 -0.117983E-05  0.664E-02    9.13       1.0  T
   3    -45.6291732 -0.114148E-05  0.911E-03    9.13       2.3  T
   4    -45.6291733 -0.118880E-06  0.242E-03    9.13       8.6  T
   5    -45.6291734 -0.868049E-08  0.890E-04    9.13      23.4  T
speedup  1.08
cpu  time for SCC    0.00 s
wall time for SCC    0.00 s
speedup  0.97
cpu  time for grad    0.01 s
wall time for grad    0.01 s
 E :    -45.36985841  G :  0.006353    pred/act E change: -0.268D-03 -0.123D-03
Maxdispl :   0.1308   ||displ|| :   0.2121   Lambda : -0.180D-03
Largest |displ|/coords:  0.1308 (   2)  0.0891 (   4)  0.0725 (   3)
................................................................................
.............................. CYCLE   33 ......................................
................................................................................
   1    -45.6302860 -0.456303E+02  0.959E-02    9.14       0.0  T
   2    -45.6302874 -0.137799E-05  0.710E-02    9.14       1.0  T
   3    -45.6302888 -0.136097E-05  0.115E-02    9.14       1.8  T
   4    -45.6302889 -0.126000E-06  0.248E-03    9.14       8.4  T
   5    -45.6302889 -0.117776E-07  0.106E-03    9.14      19.7  T
speedup  0.79
cpu  time for SCC    0.00 s
wall time for SCC    0.00 s
speedup  0.97
cpu  time for grad    0.01 s
wall time for grad    0.01 s
 E :    -45.36997657  G :  0.005166    pred/act E change: -0.854D-04 -0.118D-03
Maxdispl :   0.1743   ||displ|| :   0.2765   Lambda : -0.127D-03
Largest |displ|/coords:  0.1743 (   2)  0.0927 (   6)  0.0917 (   3)
................................................................................
.............................. CYCLE   34 ......................................
................................................................................
   1    -45.6291986 -0.456292E+02  0.151E-01    9.11       0.0  T
   2    -45.6292016 -0.291846E-05  0.113E-01    9.11       1.0  T
   3    -45.6292047 -0.314280E-05  0.151E-02    9.12       1.4  T
   4    -45.6292049 -0.230565E-06  0.352E-03    9.12       5.9  T
   5    -45.6292050 -0.190003E-07  0.157E-03    9.12      13.3  T
   6    -45.6292050 -0.267473E-08  0.872E-04    9.12      23.9  T
speedup  0.91
cpu  time for SCC    0.00 s
wall time for SCC    0.00 s
speedup  1.01
cpu  time for grad    0.01 s
wall time for grad    0.01 s
 E :    -45.37004972  G :  0.007215    pred/act E change: -0.939D-04 -0.732D-04
Maxdispl :   0.1317   ||displ|| :   0.2197   Lambda : -0.147D-03
Largest |displ|/coords:  0.1317 (   2)  0.1062 (   3)  0.0869 (   4)
................................................................................
.............................. CYCLE   35 ......................................
................................................................................
   1    -45.6318040 -0.456318E+02  0.101E-01    9.16       0.0  T
   2    -45.6318057 -0.166241E-05  0.748E-02    9.16       1.0  T
   3    -45.6318072 -0.149125E-05  0.132E-02    9.16       1.6  T
   4    -45.6318073 -0.158212E-06  0.360E-03    9.16       5.8  T
   5    -45.6318074 -0.197427E-07  0.113E-03    9.16      18.4  T
   6    -45.6318074 -0.151248E-08  0.742E-04    9.16      28.1  T
speedup  1.11
cpu  time for SCC    0.00 s
wall time for SCC    0.00 s
speedup  1.00
cpu  time for grad    0.01 s
wall time for grad    0.01 s
 E :    -45.37012601  G :  0.004524    pred/act E change: -0.686D-04 -0.763D-04
Maxdispl :   0.0754   ||displ|| :   0.1372   Lambda : -0.642D-04
Largest |displ|/coords:  0.0754 (   2)  0.0452 (   6)  0.0375 (   5)
................................................................................
.............................. CYCLE   36 ......................................
................................................................................
   1    -45.6314680 -0.456315E+02  0.905E-02    9.17       0.0  T
   2    -45.6314693 -0.127813E-05  0.679E-02    9.17       1.0  T
   3    -45.6314707 -0.141297E-05  0.912E-03    9.17       2.3  T
   4    -45.6314708 -0.104800E-06  0.259E-03    9.17       8.0  T
   5    -45.6314708 -0.918907E-08  0.970E-04    9.17      21.5  T
speedup  0.79
cpu  time for SCC    0.00 s
wall time for SCC    0.00 s
speedup  0.97
cpu  time for grad    0.01 s
wall time for grad    0.01 s
 E :    -45.37015940  G :  0.003814    pred/act E change: -0.770D-04 -0.334D-04
Maxdispl :   0.0888   ||displ|| :   0.1638   Lambda : -0.669D-04
Largest |displ|/coords:  0.0888 (   2)  0.0652 (   3)  0.0519 (   8)
................................................................................
.............................. CYCLE   37 ......................................
................................................................................
   1    -45.6308334 -0.456308E+02  0.110E-01    9.14       0.0  T
   2    -45.6308349 -0.144183E-05  0.819E-02    9.14       1.0  T
   3    -45.6308362 -0.136958E-05  0.106E-02    9.14       2.0  T
   4    -45.6308364 -0.139477E-06  0.288E-03    9.14       7.2  T
   5    -45.6308364 -0.111162E-07  0.969E-04    9.14      21.5  T
   6    -45.6308364 -0.934349E-09  0.603E-04    9.14      34.6  T
speedup  0.91
cpu  time for SCC    0.00 s
wall time for SCC    0.00 s
speedup  0.96
cpu  time for grad    0.01 s
wall time for grad    0.01 s
 E :    -45.37017918  G :  0.005469    pred/act E change: -0.327D-04 -0.198D-04
Maxdispl :   0.0208   ||displ|| :   0.0422   Lambda : -0.400D-04
Largest |displ|/coords:  0.0208 (  10)  0.0171 (   1)  0.0161 (   4)
................................................................................
.............................. CYCLE   38 ......................................
................................................................................
   1    -45.6318552 -0.456319E+02  0.268E-02    9.17       0.0  T
   2    -45.6318555 -0.284032E-06  0.199E-02    9.17       1.0  T
   3    -45.6318556 -0.159654E-06  0.367E-03    9.17       5.7  T
   4    -45.6318557 -0.386259E-07  0.111E-03    9.17      18.8  T
   5    -45.6318557 -0.184218E-08  0.311E-04    9.17      67.1  T
speedup  0.79
cpu  time for SCC    0.00 s
wall time for SCC    0.00 s
speedup  0.97
cpu  time for grad    0.01 s
wall time for grad    0.01 s
 E :    -45.37020247  G :  0.002711    pred/act E change: -0.343D-04 -0.233D-04
Maxdispl :   0.0456   ||displ|| :   0.0784   Lambda : -0.340D-04
Largest |displ|/coords:  0.0456 (   2)  0.0273 (   1)  0.0254 (  11)
................................................................................
.............................. CYCLE   39 ......................................
................................................................................
   1    -45.6320890 -0.456321E+02  0.672E-02    9.20       0.0  T
   2    -45.6320897 -0.675200E-06  0.508E-02    9.20       1.0  T
   3    -45.6320902 -0.500332E-06  0.597E-03    9.20       3.5  T
   4    -45.6320903 -0.984130E-07  0.153E-03    9.20      13.7  T
   5    -45.6320903 -0.366224E-08  0.572E-04    9.20      36.4  T
   6    -45.6320903 -0.337998E-09  0.324E-04    9.20      64.4  T
speedup  0.91
cpu  time for SCC    0.00 s
wall time for SCC    0.00 s
speedup  0.96
cpu  time for grad    0.01 s
wall time for grad    0.01 s
 E :    -45.37021635  G :  0.003540    pred/act E change: -0.200D-04 -0.139D-04
Maxdispl :   0.0693   ||displ|| :   0.1139   Lambda : -0.311D-04
Largest |displ|/coords:  0.0693 (   2)  0.0379 (   3)  0.0335 (   8)
................................................................................
.............................. CYCLE   40 ......................................
................................................................................
   1    -45.6312353 -0.456312E+02  0.865E-02    9.18       0.0  T
   2    -45.6312361 -0.839880E-06  0.650E-02    9.19       1.0  T
   3    -45.6312369 -0.786307E-06  0.742E-03    9.19       2.8  T
   4    -45.6312370 -0.909203E-07  0.226E-03    9.19       9.2  T
   5    -45.6312370 -0.565158E-08  0.700E-04    9.19      29.8  T
   6    -45.6312370 -0.442583E-09  0.424E-04    9.19      49.2  T
speedup  1.11
cpu  time for SCC    0.00 s
wall time for SCC    0.00 s
speedup  1.04
cpu  time for grad    0.01 s
wall time for grad    0.01 s
 E :    -45.37023265  G :  0.004076    pred/act E change: -0.171D-04 -0.163D-04
Maxdispl :   0.0316   ||displ|| :   0.0690   Lambda : -0.343D-04
Largest |displ|/coords:  0.0316 (   1)  0.0275 (   2)  0.0268 (  12)
................................................................................
.............................. CYCLE   41 ......................................
................................................................................
   1    -45.6318486 -0.456318E+02  0.594E-02    9.19       0.0  T
   2    -45.6318492 -0.537258E-06  0.448E-02    9.19       1.0  T
   3    -45.6318496 -0.463238E-06  0.458E-03    9.19       4.6  T
   4    -45.6318497 -0.693795E-07  0.187E-03    9.19      11.1  T
   5    -45.6318497 -0.379913E-08  0.493E-04    9.19      42.3  T
speedup  1.08
cpu  time for SCC    0.00 s
wall time for SCC    0.00 s
speedup  0.97
cpu  time for grad    0.01 s
wall time for grad    0.01 s
 E :    -45.37025162  G :  0.003154    pred/act E change: -0.158D-04 -0.190D-04
Maxdispl :   0.0745   ||displ|| :   0.1254   Lambda : -0.344D-04
Largest |displ|/coords:  0.0745 (   2)  0.0456 (   8)  0.0428 (  11)
................................................................................
.............................. CYCLE   42 ......................................
................................................................................
   1    -45.6312449 -0.456312E+02  0.127E-01    9.19       0.0  T
   2    -45.6312465 -0.167769E-05  0.954E-02    9.19       1.0  T
   3    -45.6312480 -0.152010E-05  0.833E-03    9.19       2.5  T
   4    -45.6312482 -0.183839E-06  0.313E-03    9.19       6.7  T
   5    -45.6312482 -0.106585E-07  0.896E-04    9.19      23.3  T
   6    -45.6312482 -0.459110E-09  0.524E-04    9.19      39.8  T
speedup  1.11
cpu  time for SCC    0.01 s
wall time for SCC    0.00 s
speedup  1.05
cpu  time for grad    0.01 s
wall time for grad    0.01 s
 E :    -45.37026637  G :  0.005303    pred/act E change: -0.172D-04 -0.147D-04
Maxdispl :   0.0190   ||displ|| :   0.0496   Lambda : -0.468D-04
Largest |displ|/coords:  0.0190 (   8)  0.0181 (   1)  0.0143 (  15)
................................................................................
.............................. CYCLE   43 ......................................
................................................................................
   1    -45.6313489 -0.456313E+02  0.440E-02    9.19       0.0  T
   2    -45.6313495 -0.506247E-06  0.326E-02    9.19       1.0  T
   3    -45.6313498 -0.369934E-06  0.563E-03    9.19       3.7  T
   4    -45.6313499 -0.619375E-07  0.172E-03    9.19      12.1  T
   5    -45.6313499 -0.396530E-08  0.527E-04    9.19      39.6  T
speedup  1.08
cpu  time for SCC    0.00 s
wall time for SCC    0.00 s
speedup  1.07
cpu  time for grad    0.01 s
wall time for grad    0.01 s
 E :    -45.37028836  G :  0.003654    pred/act E change: -0.174D-04 -0.220D-04
Maxdispl :   0.0412   ||displ|| :   0.1071   Lambda : -0.571D-04
Largest |displ|/coords:  0.0412 (   6)  0.0346 (  11)  0.0335 (  17)
................................................................................
.............................. CYCLE   44 ......................................
................................................................................
   1    -45.6315375 -0.456315E+02  0.124E-01    9.22       0.0  T
   2    -45.6315396 -0.211147E-05  0.940E-02    9.22       1.0  T
   3    -45.6315415 -0.193125E-05  0.905E-03    9.22       2.3  T
   4    -45.6315417 -0.232020E-06  0.254E-03    9.22       8.2  T
   5    -45.6315417 -0.771449E-08  0.916E-04    9.22      22.8  T
   6    -45.6315417 -0.597574E-09  0.450E-04    9.22      46.4  T
speedup  1.11
cpu  time for SCC    0.00 s
wall time for SCC    0.00 s
speedup  1.04
cpu  time for grad    0.01 s
wall time for grad    0.01 s
 E :    -45.37031722  G :  0.004195    pred/act E change: -0.234D-04 -0.289D-04
Maxdispl :   0.0596   ||displ|| :   0.0864   Lambda : -0.411D-04
Largest |displ|/coords:  0.0596 (   2)  0.0316 (  11)  0.0166 (   3)
................................................................................
.............................. CYCLE   45 ......................................
................................................................................
   1    -45.6312176 -0.456312E+02  0.664E-02    9.21       0.0  T
   2    -45.6312179 -0.297051E-06  0.499E-02    9.21       1.0  T
   3    -45.6312182 -0.319216E-06  0.382E-03    9.21       5.5  T
   4    -45.6312182 -0.223863E-07  0.126E-03    9.21      16.5  T
   5    -45.6312182 -0.127336E-08  0.408E-04    9.21      51.1  T
speedup  1.05
cpu  time for SCC    0.00 s
wall time for SCC    0.00 s
speedup  1.06
cpu  time for grad    0.01 s
wall time for grad    0.01 s
 E :    -45.37034736  G :  0.003262    pred/act E change: -0.289D-04 -0.301D-04
Maxdispl :   0.1005   ||displ|| :   0.1737   Lambda : -0.604D-04
Largest |displ|/coords:  0.1005 (   2)  0.0602 (  11)  0.0400 (  21)
................................................................................
.............................. CYCLE   46 ......................................
................................................................................
   1    -45.6299793 -0.456300E+02  0.153E-01    9.20       0.0  T
   2    -45.6299810 -0.166009E-05  0.115E-01    9.20       1.0  T
   3    -45.6299826 -0.165010E-05  0.848E-03    9.20       2.5  T
   4    -45.6299828 -0.154339E-06  0.313E-03    9.20       6.7  T
   5    -45.6299828 -0.694786E-08  0.966E-04    9.20      21.6  T
   6    -45.6299828 -0.340982E-09  0.486E-04    9.20      42.9  T
speedup  0.89
cpu  time for SCC    0.00 s
wall time for SCC    0.00 s
speedup  0.96
cpu  time for grad    0.01 s
wall time for grad    0.01 s
 E :    -45.37038523  G :  0.005746    pred/act E change: -0.207D-04 -0.379D-04
Maxdispl :   0.1006   ||displ|| :   0.2040   Lambda : -0.105D-03
Largest |displ|/coords:  0.1006 (   1)  0.0648 (   6)  0.0590 (   5)
................................................................................
.............................. CYCLE   47 ......................................
................................................................................
   1    -45.6316036 -0.456316E+02  0.112E-01    9.20       0.0  T
   2    -45.6316077 -0.411637E-05  0.830E-02    9.20       1.0  T
   3    -45.6316104 -0.267776E-05  0.132E-02    9.20       1.6  T
   4    -45.6316109 -0.518491E-06  0.383E-03    9.20       5.4  T
   5    -45.6316109 -0.266812E-07  0.151E-03    9.20      13.8  T
   6    -45.6316109 -0.211513E-08  0.839E-04    9.20      24.9  T
speedup  0.89
cpu  time for SCC    0.00 s
wall time for SCC    0.00 s
speedup  1.00
cpu  time for grad    0.01 s
wall time for grad    0.01 s
 E :    -45.37034699  G :  0.011326    pred/act E change: -0.311D-04  0.382D-04
Maxdispl :   0.0653   ||displ|| :   0.1109   Lambda : -0.168D-03
Largest |displ|/coords:  0.0653 (   2)  0.0372 (   8)  0.0351 (  11)
................................................................................
.............................. CYCLE   48 ......................................
................................................................................
   1    -45.6296608 -0.456297E+02  0.114E-01    9.19       0.0  T
   2    -45.6296649 -0.409189E-05  0.859E-02    9.19       1.0  T
   3    -45.6296673 -0.241199E-05  0.129E-02    9.19       1.6  T
   4    -45.6296679 -0.587591E-06  0.408E-03    9.19       5.1  T
   5    -45.6296679 -0.390543E-07  0.112E-03    9.19      18.6  T
   6    -45.6296679 -0.674881E-09  0.681E-04    9.19      30.6  T
speedup  1.11
cpu  time for SCC    0.00 s
wall time for SCC    0.00 s
speedup  1.00
cpu  time for grad    0.01 s
wall time for grad    0.01 s
 E :    -45.37043689  G :  0.005682    pred/act E change: -0.549D-04 -0.899D-04
Maxdispl :   0.0198   ||displ|| :   0.0454   Lambda : -0.344D-04
Largest |displ|/coords:  0.0198 (  11)  0.0181 (   2)  0.0162 (   5)
................................................................................
.............................. CYCLE   49 ......................................
................................................................................
   1    -45.6304789 -0.456305E+02  0.376E-02    9.21       0.0  T
   2    -45.6304792 -0.330041E-06  0.282E-02    9.21       1.0  T
   3    -45.6304794 -0.228275E-06  0.411E-03    9.21       5.1  T
   4    -45.6304795 -0.437803E-07  0.166E-03    9.21      12.6  T
   5    -45.6304795 -0.247164E-08  0.355E-04    9.21      58.8  T
speedup  1.05
cpu  time for SCC    0.00 s
wall time for SCC    0.00 s
speedup  0.96
cpu  time for grad    0.01 s
wall time for grad    0.01 s
 E :    -45.37045616  G :  0.002868    pred/act E change: -0.851D-04 -0.193D-04
Maxdispl :   0.0504   ||displ|| :   0.1158   Lambda : -0.373D-04
Largest |displ|/coords:  0.0504 (   2)  0.0409 (   1)  0.0335 (  15)
................................................................................
.............................. CYCLE   50 ......................................
................................................................................
   1    -45.6302635 -0.456303E+02  0.959E-02    9.21       0.0  T
   2    -45.6302653 -0.174364E-05  0.717E-02    9.21       1.0  T
   3    -45.6302659 -0.621771E-06  0.115E-02    9.21       1.8  T
   4    -45.6302662 -0.340071E-06  0.248E-03    9.21       8.4  T
   5    -45.6302663 -0.519202E-08  0.669E-04    9.21      31.2  T
   6    -45.6302663 -0.194063E-09  0.364E-04    9.21      57.3  T
speedup  1.11
cpu  time for SCC    0.00 s
wall time for SCC    0.00 s
speedup  1.05
cpu  time for grad    0.01 s
wall time for grad    0.01 s
 E :    -45.37048506  G :  0.003003    pred/act E change: -0.173D-04 -0.289D-04
Maxdispl :   0.0945   ||displ|| :   0.1979   Lambda : -0.481D-04
Largest |displ|/coords:  0.0945 (   1)  0.0643 (   2)  0.0574 (   6)
................................................................................
.............................. CYCLE   51 ......................................
................................................................................
   1    -45.6301185 -0.456301E+02  0.144E-01    9.21       0.0  T
   2    -45.6301220 -0.356558E-05  0.108E-01    9.21       1.0  T
   3    -45.6301235 -0.145256E-05  0.163E-02    9.21       1.3  T
   4    -45.6301242 -0.688795E-06  0.372E-03    9.21       5.6  T
   5    -45.6301242 -0.918133E-08  0.107E-03    9.21      19.5  T
   6    -45.6301242 -0.645002E-09  0.538E-04    9.21      38.7  T
   7    -45.6301242 -0.339540E-09  0.991E-05    9.21     210.3  T
speedup  1.13
cpu  time for SCC    0.01 s
wall time for SCC    0.01 s
speedup  1.07
cpu  time for grad    0.01 s
wall time for grad    0.01 s
 E :    -45.37051499  G :  0.004002    pred/act E change: -0.189D-04 -0.299D-04
Maxdispl :   0.0546   ||displ|| :   0.0822   Lambda : -0.210D-04
Largest |displ|/coords:  0.0546 (   1)  0.0300 (   7)  0.0168 (   3)
................................................................................
.............................. CYCLE   52 ......................................
................................................................................
   1    -45.6308594 -0.456309E+02  0.433E-02    9.21       0.0  T
   2    -45.6308600 -0.576567E-06  0.323E-02    9.21       1.0  T
   3    -45.6308602 -0.211964E-06  0.612E-03    9.22       3.4  T
   4    -45.6308603 -0.922521E-07  0.142E-03    9.21      14.6  T
   5    -45.6308603 -0.477251E-08  0.350E-04    9.21      59.6  T
speedup  1.05
cpu  time for SCC    0.00 s
wall time for SCC    0.00 s
speedup  0.97
cpu  time for grad    0.01 s
wall time for grad    0.01 s
 E :    -45.37052724  G :  0.002464    pred/act E change: -0.250D-04 -0.122D-04
Maxdispl :   0.1011   ||displ|| :   0.2010   Lambda : -0.290D-04
Largest |displ|/coords:  0.1011 (   1)  0.0587 (   2)  0.0582 (   7)

generating ANC from model Hessian ...
 Shifting diagonal of input Hessian by   4.883437295890214E-003
 Lowest  eigenvalues of input Hessian
   -0.000000   -0.000000   -0.000000    0.000000    0.000000    0.000000
    0.005000    0.005264    0.005478    0.005845    0.006672    0.006802
    0.007345    0.010120    0.010452    0.011550    0.012800    0.013263
 Highest eigenvalues
    1.395683    1.407440    1.452923    2.505204    3.487905    3.619710
 
cpu  time for ANC gen    0.02 s
wall time for ANC gen    0.02 s
................................................................................
.............................. CYCLE   53 ......................................
................................................................................
   1    -45.6298323 -0.456298E+02  0.141E-01    9.22       0.0  T
   2    -45.6298344 -0.204668E-05  0.106E-01    9.22       1.0  T
   3    -45.6298361 -0.166655E-05  0.101E-02    9.22       2.1  T
   4    -45.6298364 -0.287601E-06  0.359E-03    9.22       5.8  T
   5    -45.6298364 -0.949387E-08  0.973E-04    9.22      21.4  T
   6    -45.6298364 -0.662411E-09  0.535E-04    9.22      39.0  T
speedup  0.89
cpu  time for SCC    0.00 s
wall time for SCC    0.00 s
speedup  0.96
cpu  time for grad    0.01 s
wall time for grad    0.01 s
 E :    -45.37053154  G :  0.004499    pred/act E change:  0.000D+00 -0.430D-05
Maxdispl :   0.0237   ||displ|| :   0.0462   Lambda : -0.465D-04
Largest |displ|/coords:  0.0237 (   9)  0.0176 (   2)  0.0164 (  11)
................................................................................
.............................. CYCLE   54 ......................................
................................................................................
   1    -45.6305682 -0.456306E+02  0.500E-02    9.22       0.0  T
   2    -45.6305685 -0.359326E-06  0.378E-02    9.22       1.0  T
   3    -45.6305690 -0.427048E-06  0.387E-03    9.22       5.4  T
   4    -45.6305690 -0.193331E-07  0.118E-03    9.22      17.6  T
   5    -45.6305690 -0.122269E-08  0.402E-04    9.22      51.9  T
speedup  1.08
cpu  time for SCC    0.00 s
wall time for SCC    0.00 s
speedup  0.96
cpu  time for grad    0.01 s
wall time for grad    0.01 s
 E :    -45.37056290  G :  0.001491    pred/act E change:  0.000D+00 -0.314D-04
Maxdispl :   0.0372   ||displ|| :   0.0800   Lambda : -0.372D-04
Largest |displ|/coords:  0.0372 (  11)  0.0302 (   5)  0.0287 (   1)
................................................................................
.............................. CYCLE   55 ......................................
................................................................................
   1    -45.6310807 -0.456311E+02  0.765E-02    9.23       0.0  T
   2    -45.6310812 -0.516706E-06  0.575E-02    9.23       1.0  T
   3    -45.6310818 -0.602166E-06  0.504E-03    9.23       4.1  T
   4    -45.6310819 -0.362070E-07  0.157E-03    9.23      13.3  T
   5    -45.6310819 -0.348994E-08  0.658E-04    9.23      31.7  T
   6    -45.6310819 -0.556604E-09  0.313E-04    9.23      66.6  T
speedup  1.11
cpu  time for SCC    0.01 s
wall time for SCC    0.00 s
speedup  0.96
cpu  time for grad    0.01 s
wall time for grad    0.01 s
 E :    -45.37058658  G :  0.001616    pred/act E change: -0.233D-04 -0.237D-04
Maxdispl :   0.0475   ||displ|| :   0.0889   Lambda : -0.242D-04
Largest |displ|/coords:  0.0475 (   1)  0.0397 (  11)  0.0390 (   9)
................................................................................
.............................. CYCLE   56 ......................................
................................................................................
   1    -45.6307837 -0.456308E+02  0.864E-02    9.23       0.0  T
   2    -45.6307848 -0.103509E-05  0.651E-02    9.23       1.0  T
   3    -45.6307857 -0.940944E-06  0.613E-03    9.23       3.4  T
   4    -45.6307858 -0.118246E-06  0.165E-03    9.23      12.6  T
   5    -45.6307858 -0.374959E-08  0.772E-04    9.23      27.0  T
   6    -45.6307858 -0.728114E-09  0.331E-04    9.23      63.1  T
speedup  1.09
cpu  time for SCC    0.00 s
wall time for SCC    0.00 s
speedup  1.04
cpu  time for grad    0.01 s
wall time for grad    0.01 s
 E :    -45.37060142  G :  0.002077    pred/act E change: -0.187D-04 -0.148D-04
Maxdispl :   0.0338   ||displ|| :   0.0501   Lambda : -0.959D-05
Largest |displ|/coords:  0.0338 (   1)  0.0221 (  11)  0.0138 (   9)
................................................................................
.............................. CYCLE   57 ......................................
................................................................................
   1    -45.6305621 -0.456306E+02  0.389E-02    9.23       0.0  T
   2    -45.6305624 -0.218752E-06  0.293E-02    9.23       1.0  T
   3    -45.6305625 -0.176102E-06  0.276E-03    9.23       7.6  T
   4    -45.6305626 -0.317420E-07  0.883E-04    9.23      23.6  T
   5    -45.6305626 -0.938080E-09  0.371E-04    9.23      56.2  T
speedup  0.81
cpu  time for SCC    0.00 s
wall time for SCC    0.00 s
speedup  0.93
cpu  time for grad    0.01 s
wall time for grad    0.01 s
 E :    -45.37060815  G :  0.001543    pred/act E change: -0.122D-04 -0.673D-05
Maxdispl :   0.0390   ||displ|| :   0.0486   Lambda : -0.786D-05
Largest |displ|/coords:  0.0390 (   1)  0.0134 (  11)  0.0132 (   7)
................................................................................
.............................. CYCLE   58 ......................................
................................................................................
   1    -45.6305005 -0.456305E+02  0.283E-02    9.23       0.0  T
   2    -45.6305006 -0.106044E-06  0.212E-02    9.23       1.0  T
   3    -45.6305007 -0.852081E-07  0.217E-03    9.23       9.6  T
   4    -45.6305007 -0.148691E-07  0.664E-04    9.23      31.4  T
   5    -45.6305007 -0.635680E-09  0.253E-04    9.23      82.5  T
speedup  1.08
cpu  time for SCC    0.00 s
wall time for SCC    0.00 s
speedup  1.03
cpu  time for grad    0.01 s
wall time for grad    0.01 s
 E :    -45.37061290  G :  0.000841    pred/act E change: -0.481D-05 -0.475D-05
Maxdispl :   0.0433   ||displ|| :   0.0537   Lambda : -0.450D-05
Largest |displ|/coords:  0.0433 (   1)  0.0156 (   7)  0.0150 (   3)
................................................................................
.............................. CYCLE   59 ......................................
................................................................................
   1    -45.6303224 -0.456303E+02  0.354E-02    9.23       0.0  T
   2    -45.6303226 -0.163353E-06  0.267E-02    9.23       1.0  T
   3    -45.6303228 -0.194463E-06  0.231E-03    9.23       9.0  T
   4    -45.6303228 -0.119836E-07  0.863E-04    9.23      24.2  T
   5    -45.6303228 -0.700140E-09  0.304E-04    9.23      68.7  T
speedup  0.79
cpu  time for SCC    0.00 s
wall time for SCC    0.00 s
speedup  0.93
cpu  time for grad    0.01 s
wall time for grad    0.01 s
 E :    -45.37061593  G :  0.001072    pred/act E change: -0.394D-05 -0.303D-05
Maxdispl :   0.0384   ||displ|| :   0.0468   Lambda : -0.402D-05
Largest |displ|/coords:  0.0384 (   1)  0.0146 (   7)  0.0127 (   3)
................................................................................
.............................. CYCLE   60 ......................................
................................................................................
   1    -45.6304309 -0.456304E+02  0.237E-02    9.23       0.0  T
   2    -45.6304310 -0.978846E-07  0.179E-02    9.23       1.2  T
   3    -45.6304311 -0.880577E-07  0.206E-03    9.23      10.1  T
   4    -45.6304311 -0.124180E-07  0.611E-04    9.23      34.1  T
   5    -45.6304311 -0.423704E-09  0.206E-04    9.23     101.3  T
speedup  1.05
cpu  time for SCC    0.00 s
wall time for SCC    0.00 s
speedup  1.03
cpu  time for grad    0.01 s
wall time for grad    0.01 s
 E :    -45.37061873  G :  0.000776    pred/act E change: -0.225D-05 -0.280D-05
Maxdispl :   0.0357   ||displ|| :   0.0454   Lambda : -0.278D-05
Largest |displ|/coords:  0.0357 (   1)  0.0156 (   3)  0.0115 (   7)
................................................................................
.............................. CYCLE   61 ......................................
................................................................................
   1    -45.6304863 -0.456305E+02  0.266E-02    9.23       0.0  T
   2    -45.6304864 -0.102243E-06  0.201E-02    9.23       1.0  T
   3    -45.6304865 -0.107444E-06  0.207E-03    9.23      10.1  T
   4    -45.6304865 -0.102525E-07  0.649E-04    9.23      32.1  T
   5    -45.6304865 -0.391019E-09  0.205E-04    9.23     101.7  T
speedup  1.05
cpu  time for SCC    0.00 s
wall time for SCC    0.00 s
speedup  1.03
cpu  time for grad    0.01 s
wall time for grad    0.01 s
 E :    -45.37062062  G :  0.000758    pred/act E change: -0.201D-05 -0.189D-05
Maxdispl :   0.0245   ||displ|| :   0.0407   Lambda : -0.275D-05
Largest |displ|/coords:  0.0245 (   1)  0.0158 (   7)  0.0144 (   3)
................................................................................
.............................. CYCLE   62 ......................................
................................................................................
   1    -45.6307175 -0.456307E+02  0.234E-02    9.23       0.0  T
   2    -45.6307176 -0.998980E-07  0.176E-02    9.23       1.2  T
   3    -45.6307177 -0.784709E-07  0.219E-03    9.23       9.5  T
   4    -45.6307177 -0.133551E-07  0.487E-04    9.23      42.8  T
   5    -45.6307177 -0.505331E-09  0.178E-04    9.23     117.2  T
speedup  1.05
cpu  time for SCC    0.00 s
wall time for SCC    0.00 s
speedup  1.01
cpu  time for grad    0.01 s
wall time for grad    0.01 s
 E :    -45.37062227  G :  0.000700    pred/act E change: -0.139D-05 -0.164D-05
Maxdispl :   0.0295   ||displ|| :   0.0479   Lambda : -0.248D-05
Largest |displ|/coords:  0.0295 (   1)  0.0196 (   3)  0.0147 (   7)
................................................................................
.............................. CYCLE   63 ......................................
................................................................................
   1    -45.6306266 -0.456306E+02  0.336E-02    9.23       0.0  T
   2    -45.6306268 -0.129843E-06  0.253E-02    9.23       1.0  T
   3    -45.6306269 -0.153763E-06  0.257E-03    9.23       8.1  T
   4    -45.6306269 -0.834527E-08  0.802E-04    9.23      26.0  T
   5    -45.6306269 -0.594106E-09  0.242E-04    9.23      86.2  T
speedup  1.05
cpu  time for SCC    0.00 s
wall time for SCC    0.00 s
speedup  1.03
cpu  time for grad    0.01 s
wall time for grad    0.01 s
 E :    -45.37062399  G :  0.000688    pred/act E change: -0.138D-05 -0.173D-05
Maxdispl :   0.0159   ||displ|| :   0.0377   Lambda : -0.242D-05
Largest |displ|/coords:  0.0159 (   3)  0.0146 (   7)  0.0131 (  16)
................................................................................
.............................. CYCLE   64 ......................................
................................................................................
   1    -45.6305637 -0.456306E+02  0.302E-02    9.23       0.0  T
   2    -45.6305639 -0.105538E-06  0.227E-02    9.23       1.0  T
   3    -45.6305640 -0.113852E-06  0.268E-03    9.23       7.8  T
   4    -45.6305640 -0.774713E-08  0.758E-04    9.23      27.5  T
   5    -45.6305640 -0.603166E-09  0.190E-04    9.23     109.9  T
speedup  0.79
cpu  time for SCC    0.00 s
wall time for SCC    0.00 s
speedup  0.93
cpu  time for grad    0.01 s
wall time for grad    0.01 s
 E :    -45.37062575  G :  0.000518    pred/act E change: -0.124D-05 -0.175D-05
Maxdispl :   0.0157   ||displ|| :   0.0380   Lambda : -0.193D-05
Largest |displ|/coords:  0.0157 (   7)  0.0154 (   3)  0.0149 (  16)
................................................................................
.............................. CYCLE   65 ......................................
................................................................................
   1    -45.6304595 -0.456305E+02  0.315E-02    9.23       0.0  T
   2    -45.6304596 -0.121189E-06  0.235E-02    9.23       1.0  T
   3    -45.6304597 -0.131238E-06  0.306E-03    9.23       6.8  T
   4    -45.6304598 -0.840582E-08  0.738E-04    9.23      28.3  T
   5    -45.6304598 -0.731276E-09  0.195E-04    9.23     106.7  T
speedup  1.05
cpu  time for SCC    0.00 s
wall time for SCC    0.00 s
speedup  1.03
cpu  time for grad    0.01 s
wall time for grad    0.01 s
 E :    -45.37062718  G :  0.000560    pred/act E change: -0.121D-05 -0.143D-05
Maxdispl :   0.0186   ||displ|| :   0.0434   Lambda : -0.191D-05
Largest |displ|/coords:  0.0186 (  16)  0.0177 (   7)  0.0175 (   3)
................................................................................
.............................. CYCLE   66 ......................................
................................................................................
   1    -45.6303692 -0.456304E+02  0.361E-02    9.23       0.0  T
   2    -45.6303694 -0.155682E-06  0.269E-02    9.23       1.0  T
   3    -45.6303696 -0.178014E-06  0.370E-03    9.23       5.6  T
   4    -45.6303696 -0.893525E-08  0.792E-04    9.23      26.3  T
   5    -45.6303696 -0.923293E-09  0.218E-04    9.23      95.5  T
speedup  1.05
cpu  time for SCC    0.00 s
wall time for SCC    0.00 s
speedup  1.03
cpu  time for grad    0.01 s
wall time for grad    0.01 s
 E :    -45.37062859  G :  0.000633    pred/act E change: -0.967D-06 -0.141D-05
Maxdispl :   0.0210   ||displ|| :   0.0460   Lambda : -0.174D-05
Largest |displ|/coords:  0.0210 (  16)  0.0193 (   7)  0.0172 (   3)
................................................................................
.............................. CYCLE   67 ......................................
................................................................................
   1    -45.6303015 -0.456303E+02  0.375E-02    9.23       0.0  T
   2    -45.6303016 -0.176143E-06  0.279E-02    9.23       1.0  T
   3    -45.6303018 -0.203107E-06  0.393E-03    9.23       5.3  T
   4    -45.6303019 -0.982494E-08  0.886E-04    9.23      23.5  T
   5    -45.6303019 -0.103471E-08  0.222E-04    9.23      94.0  T
speedup  1.08
cpu  time for SCC    0.00 s
wall time for SCC    0.00 s
speedup  1.04
cpu  time for grad    0.01 s
wall time for grad    0.01 s
 E :    -45.37062981  G :  0.000582    pred/act E change: -0.959D-06 -0.122D-05
Maxdispl :   0.0116   ||displ|| :   0.0245   Lambda : -0.127D-05
Largest |displ|/coords:  0.0116 (  16)  0.0096 (  13)  0.0093 (   7)
................................................................................
.............................. CYCLE   68 ......................................
................................................................................
   1    -45.6303998 -0.456304E+02  0.193E-02    9.24       0.0  T
   2    -45.6303998 -0.557787E-07  0.143E-02    9.24       1.5  T
   3    -45.6303999 -0.561079E-07  0.227E-03    9.24       9.2  T
   4    -45.6303999 -0.430716E-08  0.595E-04    9.24      35.1  T
   5    -45.6303999 -0.463359E-09  0.127E-04    9.24     164.4  T
speedup  1.05
cpu  time for SCC    0.00 s
wall time for SCC    0.00 s
speedup  1.03
cpu  time for grad    0.01 s
wall time for grad    0.01 s
 E :    -45.37063062  G :  0.000683    pred/act E change: -0.874D-06 -0.810D-06
Maxdispl :   0.0140   ||displ|| :   0.0301   Lambda : -0.947D-06
Largest |displ|/coords:  0.0140 (   7)  0.0137 (  16)  0.0101 (   1)
................................................................................
.............................. CYCLE   69 ......................................
................................................................................
   1    -45.6303437 -0.456303E+02  0.228E-02    9.24       0.0  T
   2    -45.6303438 -0.835808E-07  0.171E-02    9.24       1.2  T
   3    -45.6303439 -0.848087E-07  0.244E-03    9.24       8.5  T
   4    -45.6303439 -0.733385E-08  0.705E-04    9.24      29.6  T
   5    -45.6303439 -0.505395E-09  0.156E-04    9.24     133.8  T
speedup  1.05
cpu  time for SCC    0.00 s
wall time for SCC    0.00 s
speedup  1.03
cpu  time for grad    0.01 s
wall time for grad    0.01 s
 E :    -45.37063119  G :  0.000439    pred/act E change: -0.636D-06 -0.566D-06
Maxdispl :   0.0051   ||displ|| :   0.0128   Lambda : -0.766D-06
Largest |displ|/coords:  0.0051 (  13)  0.0050 (   6)  0.0043 (   7)
................................................................................
.............................. CYCLE   70 ......................................
................................................................................
   1    -45.6304619 -0.456305E+02  0.978E-03    9.25       0.0  T
   2    -45.6304619 -0.200752E-07  0.729E-03    9.25       2.9  T
   3    -45.6304619 -0.125490E-07  0.111E-03    9.25      18.7  T
   4    -45.6304619 -0.299109E-08  0.326E-04    9.25      63.9  T
   5    -45.6304619 -0.122022E-09  0.815E-05    9.25     255.9  T
speedup  1.05
cpu  time for SCC    0.00 s
wall time for SCC    0.00 s
speedup  1.01
cpu  time for grad    0.01 s
wall time for grad    0.01 s
 E :    -45.37063174  G :  0.000460    pred/act E change: -0.474D-06 -0.552D-06
Maxdispl :   0.0195   ||displ|| :   0.0361   Lambda : -0.120D-05
Largest |displ|/coords:  0.0195 (   7)  0.0160 (  13)  0.0152 (  16)
................................................................................
.............................. CYCLE   71 ......................................
................................................................................
   1    -45.6304162 -0.456304E+02  0.271E-02    9.25       0.0  T
   2    -45.6304163 -0.122511E-06  0.201E-02    9.25       1.0  T
   3    -45.6304164 -0.113951E-06  0.314E-03    9.25       6.7  T
   4    -45.6304164 -0.125152E-07  0.902E-04    9.25      23.1  T
   5    -45.6304164 -0.820187E-09  0.196E-04    9.25     106.2  T
speedup  1.05
cpu  time for SCC    0.00 s
wall time for SCC    0.00 s
speedup  1.03
cpu  time for grad    0.01 s
wall time for grad    0.01 s
 E :    -45.37063261  G :  0.000489    pred/act E change: -0.383D-06 -0.869D-06
Maxdispl :   0.0234   ||displ|| :   0.0457   Lambda : -0.132D-05
Largest |displ|/coords:  0.0234 (   7)  0.0199 (   6)  0.0197 (  13)
................................................................................
.............................. CYCLE   72 ......................................
................................................................................
   1    -45.6303635 -0.456304E+02  0.335E-02    9.25       0.0  T
   2    -45.6303637 -0.176944E-06  0.248E-02    9.25       1.0  T
   3    -45.6303639 -0.167501E-06  0.387E-03    9.25       5.4  T
   4    -45.6303639 -0.169740E-07  0.112E-03    9.25      18.6  T
   5    -45.6303639 -0.137130E-08  0.244E-04    9.25      85.3  T
   6    -45.6303639 -0.466045E-10  0.168E-04    9.25     124.4  T
speedup  1.09
cpu  time for SCC    0.00 s
wall time for SCC    0.00 s
speedup  1.04
cpu  time for grad    0.01 s
wall time for grad    0.01 s
 E :    -45.37063357  G :  0.000492    pred/act E change: -0.600D-06 -0.959D-06
Maxdispl :   0.0205   ||displ|| :   0.0406   Lambda : -0.101D-05
Largest |displ|/coords:  0.0205 (   7)  0.0182 (   6)  0.0169 (  13)
................................................................................
.............................. CYCLE   73 ......................................
................................................................................
   1    -45.6302664 -0.456303E+02  0.294E-02    9.25       0.0  T
   2    -45.6302665 -0.126622E-06  0.218E-02    9.25       1.0  T
   3    -45.6302667 -0.127641E-06  0.333E-03    9.25       6.3  T
   4    -45.6302667 -0.106718E-07  0.958E-04    9.25      21.8  T
   5    -45.6302667 -0.108810E-08  0.218E-04    9.25      95.5  T
speedup  0.53
cpu  time for SCC    0.00 s
wall time for SCC    0.00 s
speedup  0.84
cpu  time for grad    0.01 s
wall time for grad    0.01 s
 E :    -45.37063426  G :  0.000496    pred/act E change: -0.663D-06 -0.698D-06
Maxdispl :   0.0091   ||displ|| :   0.0202   Lambda : -0.560D-06
Largest |displ|/coords:  0.0091 (   6)  0.0080 (   7)  0.0067 (  13)
................................................................................
.............................. CYCLE   74 ......................................
................................................................................
   1    -45.6302638 -0.456303E+02  0.131E-02    9.25       0.0  T
   2    -45.6302638 -0.216230E-07  0.971E-03    9.25       2.1  T
   3    -45.6302638 -0.229851E-07  0.136E-03    9.25      15.3  T
   4    -45.6302639 -0.161160E-08  0.351E-04    9.25      59.3  T
   5    -45.6302639 -0.179149E-09  0.978E-05    9.25     213.1  T
speedup  0.00
cpu  time for SCC    0.00 s
wall time for SCC    0.00 s
speedup  0.65
cpu  time for grad    0.01 s
wall time for grad    0.01 s
 E :    -45.37063465  G :  0.000357    pred/act E change: -0.507D-06 -0.388D-06
Maxdispl :   0.0067   ||displ|| :   0.0130   Lambda : -0.333D-06
Largest |displ|/coords:  0.0067 (   7)  0.0053 (   6)  0.0044 (   5)
................................................................................
.............................. CYCLE   75 ......................................
................................................................................
   1    -45.6302537 -0.456303E+02  0.912E-03    9.25       0.0  T
   2    -45.6302537 -0.108884E-07  0.677E-03    9.25       3.1  T
   3    -45.6302537 -0.126056E-07  0.973E-04    9.25      21.4  T
   4    -45.6302537 -0.656193E-09  0.224E-04    9.25      93.2  T
speedup  0.97
cpu  time for SCC    0.00 s
wall time for SCC    0.00 s
speedup  1.00
cpu  time for grad    0.01 s
wall time for grad    0.01 s
 E :    -45.37063486  G :  0.000203    pred/act E change: -0.280D-06 -0.208D-06
Maxdispl :   0.0040   ||displ|| :   0.0105   Lambda : -0.158D-06
Largest |displ|/coords:  0.0040 (  16)  0.0039 (   2)  0.0039 (   7)
................................................................................
.............................. CYCLE   76 ......................................
................................................................................
   1    -45.6303216 -0.456303E+02  0.806E-03    9.25       0.0  T
   2    -45.6303216 -0.909136E-08  0.602E-03    9.25       3.5  T
   3    -45.6303216 -0.893401E-08  0.774E-04    9.25      27.0  T
   4    -45.6303216 -0.882778E-09  0.222E-04    9.25      94.1  T
speedup  0.97
cpu  time for SCC    0.00 s
wall time for SCC    0.00 s
speedup  1.00
cpu  time for grad    0.01 s
wall time for grad    0.01 s
 E :    -45.37063494  G :  0.000146    pred/act E change: -0.166D-06 -0.817D-07
Maxdispl :   0.0053   ||displ|| :   0.0098   Lambda : -0.124D-06
Largest |displ|/coords:  0.0053 (   7)  0.0044 (  16)  0.0031 (   5)

   *** GEOMETRY OPTIMIZATION CONVERGED AFTER 76 ITERATIONS ***

------------------------------------------------------------------------
 total energy gain (kcal):     -0.0649
------------------------------------------------------------------------
================
 final structure:
================
$coord
       -2.18386277841585       -3.51213040711255       -1.40750061209042      S 
       -3.79954523905928       -1.30221898662723       -1.35122513084133      O 
       -1.02133663829493       -3.96357196604679       -3.84064309712105      O 
       -0.38721997899539       -3.48220347917099        0.69921471632946      O 
       -3.93983740282562       -5.90697424628575       -0.89088201973975      O 
       -4.43862903628223       -6.36933320300683       -2.55609319557475      H 
        2.29483413302883        3.17551415584770       -1.80614390762376      O 
        3.08999027165197        4.07230080561465       -3.16361584569149      H 
        3.64409930145404        3.07407287383889        3.13540843955705      O 
        3.80672945164784        4.77940186283819        3.72263166881808      H 
        3.37304890907037        3.17357239510065        1.30477794425832      H 
       -2.66473120519076        3.34303183920872       -0.06614737489284      O 
       -1.75478730382621        1.80787529620063        2.28732922166952      H 
       -1.07626551226757        3.59244678554819       -0.95462427350188      H 
       -3.40648118153792        1.81694546963734       -0.82031420721949      H 
        3.12791599887682       -1.60430159862324       -2.60805702212449      O 
        2.57242774866267        1.34239085742775       -2.17949905698432      H 
        3.14010809734198       -2.40406985999369       -0.97195751481484      H 
        1.70510625566251       -2.43993744773921       -3.46160065481567      H 
       -0.77307229212400        0.51922275365726        3.51093154391204      N 
       -0.64156609133107       -1.21142227504411        2.47009792619920      H 
       -1.69521050238725        0.23965734633536        5.16548592793591      H 
        1.02828503292918        1.25973100948200        3.78242650546471      H 
$end
 
 Bond Distances (Angstroems)
 ---------------------------
S1-O2=1.4490         S1-O3=1.4468         S1-O4=1.4653         S1-O5=1.5951         O2-S1=1.4490         O3-S1=1.4468         
O4-S1=1.4653         O5-S1=1.5951         O5-H6=0.9519         H6-O5=0.9519         O7-H8=0.9583         O7-H17=1.0008        
H8-O7=0.9583         O9-H10=0.9583        O9-H11=0.9807        H10-O9=0.9583        H11-O9=0.9807        O12-H14=0.9721       
O12-H15=0.9826       H13-N20=1.0743       H14-O12=0.9721       H15-O12=0.9826       O16-H18=0.9637       O16-H19=0.9831       
H17-O7=1.0008        H18-O16=0.9637       H19-O16=0.9831       N20-H13=1.0743       N20-H21=1.0709       N20-H22=1.0132       
N20-H23=1.0406       H21-N20=1.0709       H22-N20=1.0132       H23-N20=1.0406       
 N  H  Rav=1.0498 sigma=0.0249  Rmin=1.0132  Rmax=1.0743     4
 O  H  Rav=0.9724 sigma=0.0149  Rmin=0.9519  Rmax=1.0008     9
 S  O  Rav=1.4890 sigma=0.0616  Rmin=1.4468  Rmax=1.5951     4
 
 selected bond angles (degree)
 --------------------
O3-S1-O2=113.73                O4-S1-O2=111.01                O4-S1-O3=113.76                O5-S1-O2=107.10                
O5-S1-O3=105.61                O5-S1-O4=104.84                H6-O5-S1=101.95                H17-O7-H8=105.52               
H11-O9-H10=106.43              
 
 selected dihedral angles (degree)
 ---------------------------------
H6-O5-S1-O2= 90.12            H6-O5-S1-O3=328.58            H6-O5-S1-O4=208.13            
 
 CMA Distance (Angstroems)
 ---------------------------
R(CMA):  3.4709

========================================================================
 FINAL SINGLEPOINT CALCULATION ON OPTIMIZED GEOMETRY
========================================================================

 Ncao       : 59
 Nao        : 58
 Nshell     : 34
 Nel        : 72
 T(el)      :   300.0
 intcut     :    25.0
 scfconv/Eh :  0.100E-05
   qconv/e  :  0.100E-03
 intneglect :  0.100E-07
 broydamp   :      0.250
 iter      E             dE          RMSdq      gap      omega  full diag
   1    -45.6303216 -0.456303E+02  0.798E-05    9.25       0.0  T
   2    -45.6303216 -0.294165E-11  0.518E-05    9.25     402.4  T
   3    -45.6303216 -0.154898E-11  0.971E-06    9.25    2146.9  T
speedup  0.87
cpu  time for SCC    0.00 s
wall time for SCC    0.00 s

   *** convergence criteria satisfied after 3 iterations ***

          eigenvalues
 #    :          24         25         26         27         28         29         30         31
 occ. :        2.000      2.000      2.000      2.000      2.000      2.000      2.000      2.000
 eps  :       -13.642    -13.632    -12.952    -12.566    -12.420    -12.254    -12.033    -11.957
 #    :          32         33         34         35         36         37         38         39
 occ. :        2.000      2.000      2.000      2.000      2.000      0.000      0.000      0.000
 eps  :       -11.902    -11.840    -11.691    -11.614    -11.401     -2.149     -0.862     -0.236
 #    :          40         41         42         43         44         45         46         47
 occ. :        0.000      0.000      0.000      0.000      0.000      0.000      0.000      0.000
 eps  :         0.820      1.326      1.529      2.421      3.249      4.451      4.679      5.610


   #   Z            q   n(s)   n(p)   n(d)      C6AA      α(0)
   1  16 S      1.634  1.588  1.813  0.965    90.287    15.992
   2   8 O     -0.733  1.763  4.970  0.000    29.635     7.299
   3   8 O     -0.730  1.774  4.956  0.000    29.535     7.286
   4   8 O     -0.725  1.760  4.965  0.000    29.402     7.270
   5   8 O     -0.589  1.751  4.838  0.000    24.890     6.735
   6   1 H      0.341  0.659  0.000  0.000     0.600     1.213
   7   8 O     -0.636  1.751  4.885  0.000    26.072     6.891
   8   1 H      0.287  0.713  0.000  0.000     0.763     1.372
   9   8 O     -0.604  1.745  4.860  0.000    25.295     6.788
  10   1 H      0.285  0.715  0.000  0.000     0.769     1.378
  11   1 H      0.333  0.667  0.000  0.000     0.630     1.247
  12   8 O     -0.610  1.754  4.856  0.000    25.428     6.806
  13   1 H      0.297  0.703  0.000  0.000     0.724     1.333
  14   1 H      0.319  0.681  0.000  0.000     0.667     1.283
  15   1 H      0.335  0.665  0.000  0.000     0.624     1.241
  16   8 O     -0.615  1.744  4.871  0.000    25.542     6.821
  17   1 H      0.341  0.659  0.000  0.000     0.610     1.227
  18   1 H      0.304  0.696  0.000  0.000     0.709     1.322
  19   1 H      0.324  0.676  0.000  0.000     0.652     1.269
  20   7 N     -0.353  1.279  4.075  0.000    29.083     8.010
  21   1 H      0.294  0.706  0.000  0.000     0.729     1.338
  22   1 H      0.223  0.777  0.000  0.000     0.995     1.562
  23   1 H      0.279  0.721  0.000  0.000     0.779     1.383

 Mol. C6AA /au·bohr⁶  :       4494.514755
 Mol. C8AA /au·bohr⁸  :      99071.824575
 Mol. α(0) /au        :         97.065544

 
 Wiberg/Mayer (AO) data. WBOs > 0.1 written file <wbo>
 largest (>0.05) Wiberg bond orders for each atom
           total WBO             WBO to atom ...
     1  S   4.896    O    2 1.345    O    3 1.344    O    4 1.285    O    5 0.885
     2  O   1.720    S    1 1.345    O    3 0.113    O    4 0.113    O    5 0.074    H   15 0.054
     3  O   1.738    S    1 1.344    O    2 0.113    O    4 0.105    O    5 0.078    H   19 0.063
     4  O   1.763    S    1 1.285    H   21 0.126    O    2 0.113    O    3 0.105    O    5 0.060    N   20 0.050
     5  O   1.969    S    1 0.885    H    6 0.867    O    3 0.078    O    2 0.074    O    4 0.060
     6  H   0.883    O    5 0.867
     7  O   1.869    H    8 0.910    H   17 0.782    H   11 0.055
     8  H   0.918    O    7 0.910
     9  O   1.882    H   10 0.915    H   11 0.832    H   23 0.069
    10  H   0.919    O    9 0.915
    11  H   0.889    O    9 0.832    O    7 0.055
    12  O   1.947    H   14 0.862    H   15 0.829    H   13 0.138    N   20 0.067
    13  H   0.912    N   20 0.768    O   12 0.138
    14  H   0.898    O   12 0.862
    15  H   0.888    O   12 0.829    O    2 0.054
    16  O   1.901    H   18 0.893    H   19 0.825    H   17 0.100
    17  H   0.884    O    7 0.782    O   16 0.100
    18  H   0.908    O   16 0.893
    19  H   0.895    O   16 0.825    O    3 0.063
    20  N   3.517    H   22 0.947    H   23 0.849    H   21 0.780    H   13 0.768    O   12 0.067    O    4 0.050
    21  H   0.913    N   20 0.780    O    4 0.126
    22  H   0.950    N   20 0.947
    23  H   0.922    N   20 0.849    O    9 0.069
 MOs/occ written to file <molden.input>
 
molecular dipole:
                 x           y           z       tot (Debye)
 q only:        0.554       1.684       1.757
   full:        0.408       1.221       1.285       4.623
molecular quadrupole (traceless):
                xx          xy          yy          xz          yz          zz
 q only:       -5.079       6.452      -1.702      -1.990       0.302       6.781
  q+dip:       -7.127      11.337       1.060      -1.060       1.348       6.068
   full:       -7.425      12.014       1.250      -1.027       1.498       6.175

SCC energy    :     -45.6303216
rep           :       0.2594881
ES            :       0.2375363
AES           :      -0.0643345
AXC           :      -0.0076841
disp          :      -0.0162550
XB            :       0.0000000
fix           :       0.0000000
total E       :     -45.3706349
atomizationE  :       4.4536974     2794.74
(atE without considering molecular charge,
 total energy contains solvation terms)
H-L gap (eV)  :          9.2521
optimized geometry written to: xtbopt.xyz


------------------------------------------------------------------------
 * finished run on 2019/09/16 at 11:14:44.104     
------------------------------------------------------------------------
 total:
 * wall-time:     0 d,  0 h,  0 min,  1.617 sec
 *  cpu-time:     0 d,  0 h,  0 min,  1.539 sec
 * ratio c/w:     0.952 speedup
 SCF:
 * wall-time:     0 d,  0 h,  0 min,  0.116 sec
 *  cpu-time:     0 d,  0 h,  0 min,  0.113 sec
 * ratio c/w:     0.971 speedup
 ANC optimizer:
 * wall-time:     0 d,  0 h,  0 min,  1.478 sec
 *  cpu-time:     0 d,  0 h,  0 min,  1.406 sec
 * ratio c/w:     0.951 speedup

