      -----------------------------------------------------------      
     |                   =====================                   |     
     |                           x T B                           |     
     |                   =====================                   |     
     |                         S. Grimme                         |     
     |          Mulliken Center for Theoretical Chemistry        |     
     |                    University of Bonn                     |     
     |                 Version 6.0.1 (SAW181210)                 |     
      -----------------------------------------------------------      

   This program is distributed in the hope that it will be useful,
   but WITHOUT ANY WARRANTY; without even the implied warranty of
   MERCHANTABILITY or FITNESS FOR A PARTICULAR PURPOSE.
   
   FOR NON-COMMERCIAL, ACADEMIA USE ONLY.
   
   Cite this work as:
   S. Grimme, C. Bannwarth, P. Shushkov, J. Comput. Theory Chem., 2017,
   13, 1989-2009.
   C. Bannwarth, S. Ehlert and S. Grimme., ChemRxiv, 2018, preprint.
   http://doi.org/10.26434/chemrxiv.7246238.v1
   
   for sTDA-xTB:
   S. Grimme and C. Bannwarth, J. Chem. Phys., 2016, 145, 054103.
   
   in the mass-spec context:
   V. Asgeirsson, C. Bauer and S. Grimme, Chem. Sci., 2017, 8, 4879.
   
   if GBSA is used:
   P. Shushkov, F. März and S. Grimme, unpublished.
   
   for ANC optimizer:
   S. Grimme, unpublished.
   Rational Function algorithm used in ANCopt:
   F. Eckert, P. Pulay, H.-J. Werner, J. Comput. Chem., 1997, 18, 1473.
   
   with help from (in alphabetical order)
   C. Bannwarth, F. Bohle, G. Brandenburg, E. Caldeweyher, M. Checinski,
   S. Dohm, S. Ehlert, S. Ehrlich, F. März, H. Neugebauer, J. Pisarek,
   P. Pracht, P. Shushkov, and S. Spicher.
   
 * started run on 2019/09/16 at 11:44:37.623     
========================================================================
 # omp threads = 1
========================================================================
number of atoms            : 23
number of electrons        : 72
charge                     : 0
spin                       : .0
first test random number   : .7058

########################################################################
# WARNING! Please study the warnings concerning your input carefully
#  - XTBPATH is not set, using XTBHOME instead
#  - the use of '-opt' is discouraged, please use '--opt' next time
#  - the use of '-chrg' is discouraged, please use '--chrg' next time
#  - the use of '-uhf' is discouraged, please use '--uhf' next time
########################################################################

           ------------------------------------------------- 
          |                 G F N 2 - x T B                 |
          | Geometry, Frequencies, Noncovalent interactions |
          |            JCTC 2018 parametrisation            |
           ------------------------------------------------- 
      method parameters     
 k(s)        :  1.8500
 k(p)        :  2.2300
 k(d)        :  2.2300
 k(f)        :  2.0000
 kEN (H0ij)  : -2.0000
 D4 a1       :  0.5200
 D4 a2       :  5.0000
 D4 s6       :  1.0000
 D4 s8       :  2.7000
 D4 s9       :  5.0000
 alphaj      :  2.0000


            Z     q(EN)     CN     RAES       Cart. coordinates
     1  S   6.0    0.64    4.29    4.22    -4.14805    -1.64344    -1.70759
     2  O   6.0   -0.31    1.21    1.80    -3.07107    -3.84860    -0.32719
     3  O   6.0   -0.31    1.21    1.80    -5.33196     0.12867     0.13254
     4  O   6.0   -0.31    1.18    1.80    -2.09413    -0.31472    -3.10189
     5  O   6.0   -0.25    2.08    1.84    -6.06837    -2.52684    -3.50883
     6  H   1.0    0.15    1.21    1.47    -7.39213    -3.38309    -2.61128
     7  O   6.0   -0.38    1.63    1.81     1.46433     0.64461     3.57380
     8  H   1.0    0.17    0.94    1.42     2.10784     0.87888     5.31011
     9  O   6.0   -0.29    2.04    1.83     2.91265    -1.24510    -2.93684
    10  H   1.0    0.17    1.02    1.43     1.22020    -0.92894    -3.52868
    11  H   1.0    0.15    1.02    1.43     3.59004     0.39215    -2.51827
    12  O   6.0   -0.22    2.92    2.59     1.53521    -3.28862     1.32226
    13  H   1.0    0.16    1.20    1.47     1.57568    -1.81498     2.46968
    14  H   1.0    0.16    1.05    1.44    -0.20557    -3.89928     1.02765
    15  H   1.0    0.14    1.04    1.43     2.43842    -2.95324    -0.27876
    16  O   6.0   -0.22    2.92    2.58    -1.60626     3.12041     1.36504
    17  H   1.0    0.12    0.96    1.43    -0.90666     3.41280    -0.34227
    18  H   1.0    0.15    1.07    1.44    -3.26132     2.25600     1.30516
    19  H   1.0    0.16    1.22    1.47    -0.39365     2.23195     2.47487
    20  N   5.0   -0.22    2.99    1.92     4.16307     3.09105    -0.02658
    21  H   1.0    0.10    0.99    1.43     6.01694     2.56942     0.01960
    22  H   1.0    0.13    1.06    1.44     3.32205     2.16358     1.43751
    23  H   1.0    0.10    0.99    1.43     4.13274     4.95735     0.44996

  Z AO/shell   Hii/eV     exponent
  1     Wed Apr 25 08:07:45 CEST 2018   EN: 2.200 GM2: 0.406  GM3: 0.0800  RAES: 1.40
     1s    -10.707211    1.230000
  7     Wed Apr 25 08:07:45 CEST 2018   EN: 3.040 GM2: 0.461  GM3:-0.0640  RAES: 1.90
     2s    -16.686243    2.339881
     2p    -12.523956    2.014332
  8     Wed Apr 25 08:07:45 CEST 2018   EN: 3.440 GM2: 0.452  GM3:-0.0517  RAES: 1.80
     2s    -20.229985    2.439742
     2p    -15.503117    2.137023
 16     Tue Apr 24 11:44:34 CEST 2018   EN: 2.580 GM2: 0.340  GM3:-0.0502  RAES: 3.10
     3s    -20.029654    1.981333
     3p    -11.377694    2.025643
     3d     -0.420282    1.702555
 no old-style atom pair restraining (fixing) potential

molecular fragmentation (1/2 indicates fragments):
11111122222222222222222
# atoms in fragment 1/2:     6    17
 fragment masses (1/2) :       97.07       90.10
CMA distance (Bohr)    :   6.624
constraining FC (au)   :  0.0500
           ------------------------------------------------- 
          |        Self-Consistent Charge Iterations        |
           ------------------------------------------------- 

 Ncao       : 59
 Nao        : 58
 Nshell     : 34
 Nel        : 72
 T(el)      :   300.0
 intcut     :    25.0
 scfconv/Eh :  0.100E-05
   qconv/e  :  0.100E-03
 intneglect :  0.100E-07
 broydamp   :      0.250
 iter      E             dE          RMSdq      gap      omega  full diag
   1    -45.4589661 -0.454590E+02  0.716E+00   10.21       0.0  T
   2    -45.5048592 -0.458932E-01  0.516E+00    9.42       1.0  T
   3    -45.5377797 -0.329205E-01  0.139E+00    7.63       1.0  T
   4    -45.5430928 -0.531304E-02  0.548E-01    8.04       1.0  T
   5    -45.5436624 -0.569668E-03  0.313E-01    8.04       1.0  T
   6    -45.5440614 -0.398938E-03  0.137E-01    8.11       1.0  T
   7    -45.5441525 -0.911468E-04  0.502E-02    8.10       1.0  T
   8    -45.5441630 -0.105232E-04  0.314E-02    8.09       1.0  T
   9    -45.5441687 -0.567396E-05  0.934E-03    8.11       2.2  T
  10    -45.5441691 -0.442484E-06  0.226E-03    8.11       9.2  T
  11    -45.5441692 -0.115795E-07  0.124E-03    8.11      16.8  T
  12    -45.5441692 -0.693555E-08  0.524E-04    8.11      39.8  T
  13    -45.5441692 -0.146306E-08  0.158E-04    8.11     132.2  T
speedup  0.99
cpu  time for SCC    0.01 s
wall time for SCC    0.01 s

   *** convergence criteria satisfied after 13 iterations ***

          eigenvalues
 #    :          24         25         26         27         28         29         30         31
 occ. :        2.000      2.000      2.000      2.000      2.000      2.000      2.000      2.000
 eps  :       -13.158    -12.968    -12.830    -12.037    -11.901    -11.787    -11.696    -11.267
 #    :          32         33         34         35         36         37         38         39
 occ. :        2.000      2.000      2.000      2.000      2.000      0.000      0.000      0.000
 eps  :       -11.201    -11.010    -10.724    -10.677    -10.033     -1.925     -0.713     -0.165
 #    :          40         41         42         43         44         45         46         47
 occ. :        0.000      0.000      0.000      0.000      0.000      0.000      0.000      0.000
 eps  :         0.711      0.953      1.383      2.283      3.265      3.735      5.114      5.566


   #   Z            q   n(s)   n(p)   n(d)      C6AA      α(0)
   1  16 S      1.587  1.585  1.848  0.980    91.386    16.090
   2   8 O     -0.757  1.774  4.983  0.000    30.320     7.383
   3   8 O     -0.760  1.777  4.983  0.000    30.411     7.394
   4   8 O     -0.738  1.768  4.970  0.000    29.763     7.314
   5   8 O     -0.540  1.719  4.821  0.000    23.757     6.580
   6   1 H      0.360  0.640  0.000  0.000     0.556     1.167
   7   8 O     -0.856  1.824  5.032  0.000    33.238     7.733
   8   1 H      0.209  0.791  0.000  0.000     1.076     1.630
   9   8 O     -0.620  1.740  4.881  0.000    25.680     6.840
  10   1 H      0.323  0.677  0.000  0.000     0.655     1.271
  11   1 H      0.313  0.687  0.000  0.000     0.684     1.299
  12   8 O     -0.457  1.657  4.800  0.000    21.933     6.325
  13   1 H      0.403  0.597  0.000  0.000     0.473     1.076
  14   1 H      0.394  0.606  0.000  0.000     0.496     1.106
  15   1 H      0.395  0.605  0.000  0.000     0.494     1.104
  16   8 O     -0.427  1.650  4.778  0.000    21.331     6.238
  17   1 H      0.388  0.612  0.000  0.000     0.507     1.118
  18   1 H      0.401  0.599  0.000  0.000     0.483     1.092
  19   1 H      0.415  0.585  0.000  0.000     0.452     1.052
  20   7 N     -0.496  1.411  4.085  0.000    33.207     8.558
  21   1 H      0.131  0.869  0.000  0.000     1.540     1.944
  22   1 H      0.206  0.794  0.000  0.000     1.078     1.627
  23   1 H      0.128  0.872  0.000  0.000     1.560     1.956

 Mol. C6AA /au·bohr⁶  :       4570.972617
 Mol. C8AA /au·bohr⁸  :     100707.394269
 Mol. α(0) /au        :         97.897061

 
 Wiberg/Mayer (AO) data. WBOs > 0.1 written file <wbo>
 largest (>0.05) Wiberg bond orders for each atom
           total WBO             WBO to atom ...
     1  S   4.926    O    4 1.337    O    2 1.281    O    3 1.275    O    5 1.001
     2  O   1.686    S    1 1.281    O    4 0.116    O    3 0.111    H   14 0.076    O    5 0.072
     3  O   1.688    S    1 1.275    O    4 0.113    O    2 0.111    H   18 0.083    O    5 0.072
     4  O   1.692    S    1 1.337    O    2 0.116    O    3 0.113    O    5 0.055
     5  O   2.052    S    1 1.001    H    6 0.846    O    2 0.072    O    3 0.072    O    4 0.055
     6  H   0.870    O    5 0.846
     7  O   1.595    H    8 0.944    H   19 0.207    H   13 0.194    H   22 0.069    O   16 0.062    O   12 0.060
     8  H   0.957    O    7 0.944
     9  O   1.889    H   11 0.869    H   10 0.855    H   15 0.088
    10  H   0.895    O    9 0.855
    11  H   0.902    O    9 0.869
    12  O   2.285    H   14 0.760    H   15 0.751    H   13 0.638    O    7 0.060
    13  H   0.837    O   12 0.638    O    7 0.194
    14  H   0.845    O   12 0.760    O    2 0.076
    15  H   0.844    O   12 0.751    O    9 0.088
    16  O   2.305    H   17 0.836    H   18 0.748    H   19 0.614    O    7 0.062
    17  H   0.849    O   16 0.836
    18  H   0.839    O   16 0.748    O    3 0.083
    19  H   0.828    O   16 0.614    O    7 0.207
    20  N   2.935    H   21 0.979    H   23 0.977    H   22 0.884
    21  H   0.983    N   20 0.979
    22  H   0.958    N   20 0.884    O    7 0.069
    23  H   0.984    N   20 0.977
 MOs/occ written to file <molden.input>
 
molecular dipole:
                 x           y           z       tot (Debye)
 q only:        0.465       0.585       0.510
   full:        0.034       0.654       0.561       2.192
molecular quadrupole (traceless):
                xx          xy          yy          xz          yz          zz
 q only:        1.265       0.799       6.471       1.736      -0.383      -7.736
  q+dip:        6.487       8.195       2.297       7.605       1.566      -8.784
   full:        6.795       8.501       2.158       7.864       1.703      -8.953

SCC energy    :     -45.5441692
rep           :       0.2562215
ES            :       0.2645858
AES           :      -0.0601669
AXC           :      -0.0064628
disp          :      -0.0163268
XB            :       0.0000000
fix           :       0.0000000
total E       :     -45.2877545
atomizationE  :       4.3708170     2742.73
(atE without considering molecular charge,
 total energy contains solvation terms)
H-L gap (eV)  :          8.1079
           ------------------------------------------------- 
          |                 ===============                 |
          |                   A N C O P T                   |
          |                 ===============                 |
          |          Approximate Normal Coordinate          |
          |           Rational Function Optimizer           |
           ------------------------------------------------- 
dumping coords to <xtbopt.coord> and <xtbopt.log>
 optlevel               2
 Maxcycle             460
 Maxmicro              25
 Econv         1.000000000000000E-007
 Gconv         2.000000000000000E-004
 Maxdispl       1.00000000000000     
 Hlow          5.000000000000000E-003
 S6             20.0000000000000     
 Nvar               63

generating ANC from model Hessian ...
 Shifting diagonal of input Hessian by   4.879315585454977E-003
 Lowest  eigenvalues of input Hessian
   -0.000000   -0.000000   -0.000000    0.000000    0.000000    0.000000
    0.005000    0.005803    0.006240    0.006543    0.007111    0.007345
    0.007915    0.008656    0.009382    0.009548    0.011219    0.011857
 Highest eigenvalues
    1.556983    1.585263    1.586134    3.137832    3.216062    3.310907
 
cpu  time for ANC gen    0.02 s
wall time for ANC gen    0.02 s
................................................................................
.............................. CYCLE    1 ......................................
................................................................................
   1    -45.5441692 -0.455442E+02  0.734E-05    8.11       0.0  T
   2    -45.5441692 -0.101750E-10  0.563E-05    8.11     370.5  T
   3    -45.5441692 -0.990497E-11  0.265E-05    8.11     786.3  T
speedup  1.25
cpu  time for SCC    0.00 s
wall time for SCC    0.00 s
speedup  1.05
cpu  time for grad    0.01 s
wall time for grad    0.01 s
 E :    -45.28775443  G :  0.203628    pred/act E change:  0.000D+00  0.431D-07
Maxdispl :   0.1187   ||displ|| :   0.3309   Lambda : -0.329D-01
Largest |displ|/coords:  0.1187 (  25)  0.1154 (  20)  0.1067 (  47)
................................................................................
.............................. CYCLE    2 ......................................
................................................................................
   1    -45.5578130 -0.455578E+02  0.319E-01    8.14       0.0  T
   2    -45.5580284 -0.215410E-03  0.242E-01    8.18       1.0  T
   3    -45.5581245 -0.961638E-04  0.878E-02    8.24       1.0  T
   4    -45.5581392 -0.146843E-04  0.219E-02    8.23       1.0  T
   5    -45.5581406 -0.139374E-05  0.680E-03    8.23       3.1  T
   6    -45.5581407 -0.689514E-07  0.358E-03    8.23       5.8  T
   7    -45.5581407 -0.329544E-07  0.149E-03    8.23      14.0  T
speedup  1.13
cpu  time for SCC    0.01 s
wall time for SCC    0.01 s
speedup  1.01
cpu  time for grad    0.01 s
wall time for grad    0.01 s
 E :    -45.31433133  G :  0.126959    pred/act E change:  0.000D+00 -0.266D-01
Maxdispl :   0.1484   ||displ|| :   0.3651   Lambda : -0.183D-01
Largest |displ|/coords:  0.1484 (  23)  0.1317 (  25)  0.1281 (  11)
................................................................................
.............................. CYCLE    3 ......................................
................................................................................
   1    -45.5646491 -0.455646E+02  0.295E-01    8.23       0.0  T
   2    -45.5649757 -0.326614E-03  0.217E-01    8.25       1.0  T
   3    -45.5651164 -0.140741E-03  0.963E-02    8.28       1.0  T
   4    -45.5651258 -0.940664E-05  0.218E-02    8.28       1.0  T
   5    -45.5651270 -0.112386E-05  0.695E-03    8.28       3.0  T
   6    -45.5651270 -0.712443E-07  0.375E-03    8.28       5.6  T
   7    -45.5651271 -0.366705E-07  0.148E-03    8.28      14.1  T
speedup  0.96
cpu  time for SCC    0.00 s
wall time for SCC    0.01 s
speedup  1.02
cpu  time for grad    0.01 s
wall time for grad    0.01 s
 E :    -45.32911655  G :  0.081834    pred/act E change: -0.182D-01 -0.148D-01
Maxdispl :   0.2040   ||displ|| :   0.3739   Lambda : -0.954D-02
Largest |displ|/coords:  0.2040 (  11)  0.1176 (  10)  0.1136 (  23)
................................................................................
.............................. CYCLE    4 ......................................
................................................................................
   1    -45.5670618 -0.455671E+02  0.316E-01    8.25       0.0  T
   2    -45.5674102 -0.348446E-03  0.225E-01    8.28       1.0  T
   3    -45.5675577 -0.147497E-03  0.901E-02    8.32       1.0  T
   4    -45.5675699 -0.121709E-04  0.182E-02    8.32       1.1  T
   5    -45.5675706 -0.710304E-06  0.669E-03    8.32       3.1  T
   6    -45.5675707 -0.549632E-07  0.369E-03    8.32       5.7  T
   7    -45.5675707 -0.286573E-07  0.125E-03    8.32      16.7  T
speedup  1.13
cpu  time for SCC    0.01 s
wall time for SCC    0.01 s
speedup  1.01
cpu  time for grad    0.01 s
wall time for grad    0.01 s
 E :    -45.33669166  G :  0.056782    pred/act E change: -0.104D-01 -0.758D-02
Maxdispl :   0.1880   ||displ|| :   0.3308   Lambda : -0.509D-02
Largest |displ|/coords:  0.1880 (  11)  0.1483 (   4)  0.1152 (  10)
................................................................................
.............................. CYCLE    5 ......................................
................................................................................
   1    -45.5687044 -0.455687E+02  0.270E-01    8.32       0.0  T
   2    -45.5689021 -0.197723E-03  0.192E-01    8.37       1.0  T
   3    -45.5689859 -0.838221E-04  0.670E-02    8.45       1.0  T
   4    -45.5689962 -0.102824E-04  0.131E-02    8.45       1.6  T
   5    -45.5689965 -0.320407E-06  0.501E-03    8.45       4.2  T
   6    -45.5689965 -0.276508E-07  0.272E-03    8.45       7.7  T
speedup  0.87
cpu  time for SCC    0.00 s
wall time for SCC    0.00 s
speedup  0.98
cpu  time for grad    0.01 s
wall time for grad    0.01 s
 E :    -45.34100042  G :  0.045449    pred/act E change: -0.543D-02 -0.431D-02
Maxdispl :   0.1933   ||displ|| :   0.4759   Lambda : -0.877D-02
Largest |displ|/coords:  0.1933 (  11)  0.1773 (  10)  0.1619 (   4)
................................................................................
.............................. CYCLE    6 ......................................
................................................................................
   1    -45.5812646 -0.455813E+02  0.398E-01    8.45       0.0  T
   2    -45.5820027 -0.738109E-03  0.278E-01    8.53       1.0  T
   3    -45.5823324 -0.329677E-03  0.117E-01    8.65       1.0  T
   4    -45.5823505 -0.181281E-04  0.242E-02    8.69       1.0  T
   5    -45.5823516 -0.104104E-05  0.886E-03    8.69       2.4  T
   6    -45.5823517 -0.880174E-07  0.458E-03    8.69       4.6  T
   7    -45.5823517 -0.381791E-07  0.134E-03    8.69      15.6  T
speedup  0.94
cpu  time for SCC    0.00 s
wall time for SCC    0.01 s
speedup  0.92
cpu  time for grad    0.01 s
wall time for grad    0.01 s
 E :    -45.34589918  G :  0.040368    pred/act E change: -0.283D-02 -0.490D-02
Maxdispl :   0.4654   ||displ|| :   0.6205   Lambda : -0.711D-02
Largest |displ|/coords:  0.4654 (  11)  0.1658 (   4)  0.1615 (  17)
................................................................................
.............................. CYCLE    7 ......................................
................................................................................
   1    -45.5697870 -0.455698E+02  0.638E-01    8.42       0.0  T
   2    -45.5707339 -0.946928E-03  0.453E-01    8.49       1.0  T
   3    -45.5711475 -0.413608E-03  0.157E-01    8.61       1.0  T
   4    -45.5712093 -0.617729E-04  0.347E-02    8.62       1.0  T
   5    -45.5712109 -0.162927E-05  0.154E-02    8.62       1.4  T
   6    -45.5712117 -0.751404E-06  0.739E-03    8.62       2.8  T
   7    -45.5712118 -0.743321E-07  0.154E-03    8.62      13.6  T
   8    -45.5712118 -0.491507E-08  0.533E-04    8.62      39.2  T
speedup  1.02
cpu  time for SCC    0.01 s
wall time for SCC    0.01 s
speedup  1.04
cpu  time for grad    0.01 s
wall time for grad    0.01 s
 E :    -45.34500001  G :  0.091487    pred/act E change: -0.538D-02  0.899D-03
Maxdispl :   0.1959   ||displ|| :   0.4136   Lambda : -0.168D-01
Largest |displ|/coords:  0.1959 (  11)  0.1778 (  17)  0.1373 (  25)
................................................................................
.............................. CYCLE    8 ......................................
................................................................................
   1    -45.5838516 -0.455839E+02  0.595E-01    8.86       0.0  T
   2    -45.5846245 -0.772861E-03  0.428E-01    8.85       1.0  T
   3    -45.5850495 -0.425073E-03  0.142E-01    8.82       1.0  T
   4    -45.5851033 -0.537502E-04  0.296E-02    8.80       1.0  T
   5    -45.5851050 -0.168537E-05  0.151E-02    8.80       1.4  T
   6    -45.5851052 -0.227190E-06  0.647E-03    8.80       3.2  T
   7    -45.5851053 -0.121122E-06  0.169E-03    8.80      12.4  T
   8    -45.5851053 -0.901702E-08  0.424E-04    8.80      49.1  T
speedup  1.02
cpu  time for SCC    0.01 s
wall time for SCC    0.01 s
speedup  1.03
cpu  time for grad    0.01 s
wall time for grad    0.01 s
 E :    -45.34699078  G :  0.071230    pred/act E change: -0.492D-02 -0.199D-02
Maxdispl :   0.1372   ||displ|| :   0.3411   Lambda : -0.974D-02
Largest |displ|/coords:  0.1372 (   9)  0.1058 (  17)  0.1017 (  11)
................................................................................
.............................. CYCLE    9 ......................................
................................................................................
   1    -45.5867051 -0.455867E+02  0.430E-01    8.75       0.0  T
   2    -45.5870565 -0.351400E-03  0.305E-01    8.73       1.0  T
   3    -45.5872167 -0.160279E-03  0.963E-02    8.69       1.0  T
   4    -45.5872411 -0.243257E-04  0.176E-02    8.72       1.2  T
   5    -45.5872416 -0.524719E-06  0.788E-03    8.72       2.6  T
   6    -45.5872417 -0.119235E-06  0.408E-03    8.72       5.1  T
   7    -45.5872417 -0.239615E-07  0.902E-04    8.72      23.1  T
speedup  1.13
cpu  time for SCC    0.01 s
wall time for SCC    0.01 s
speedup  1.01
cpu  time for grad    0.01 s
wall time for grad    0.01 s
 E :    -45.34999905  G :  0.053176    pred/act E change: -0.984D-02 -0.301D-02
Maxdispl :   0.2374   ||displ|| :   0.3961   Lambda : -0.550D-02
Largest |displ|/coords:  0.2374 (   8)  0.1405 (   7)  0.1399 (   4)
................................................................................
.............................. CYCLE   10 ......................................
................................................................................
   1    -45.5781751 -0.455782E+02  0.421E-01    8.63       0.0  T
   2    -45.5783510 -0.175927E-03  0.299E-01    8.71       1.0  T
   3    -45.5784132 -0.622164E-04  0.683E-02    8.83       1.0  T
   4    -45.5784308 -0.175290E-04  0.139E-02    8.79       1.5  T
   5    -45.5784309 -0.148274E-06  0.591E-03    8.79       3.5  T
   6    -45.5784309 -0.468421E-07  0.182E-03    8.79      11.5  T
speedup  0.89
cpu  time for SCC    0.00 s
wall time for SCC    0.00 s
speedup  0.99
cpu  time for grad    0.01 s
wall time for grad    0.01 s
 E :    -45.35061162  G :  0.057091    pred/act E change: -0.544D-02 -0.613D-03
Maxdispl :   0.2124   ||displ|| :   0.3723   Lambda : -0.724D-02
Largest |displ|/coords:  0.2124 (   8)  0.1206 (   7)  0.1163 (   4)
................................................................................
.............................. CYCLE   11 ......................................
................................................................................
   1    -45.5974023 -0.455974E+02  0.380E-01    8.99       0.0  T
   2    -45.5975381 -0.135740E-03  0.270E-01    8.91       1.0  T
   3    -45.5975902 -0.521771E-04  0.599E-02    8.78       1.0  T
   4    -45.5976043 -0.140153E-04  0.113E-02    8.82       1.8  T
   5    -45.5976043 -0.858809E-07  0.555E-03    8.82       3.8  T
   6    -45.5976044 -0.146937E-07  0.142E-03    8.82      14.7  T
speedup  0.89
cpu  time for SCC    0.00 s
wall time for SCC    0.00 s
speedup  0.99
cpu  time for grad    0.01 s
wall time for grad    0.01 s
 E :    -45.35224156  G :  0.047779    pred/act E change: -0.318D-02 -0.163D-02
Maxdispl :   0.0801   ||displ|| :   0.1930   Lambda : -0.268D-02
Largest |displ|/coords:  0.0801 (   4)  0.0657 (   5)  0.0563 (  10)
................................................................................
.............................. CYCLE   12 ......................................
................................................................................
   1    -45.5936902 -0.455937E+02  0.184E-01    8.74       0.0  T
   2    -45.5937186 -0.284263E-04  0.133E-01    8.76       1.0  T
   3    -45.5937327 -0.140857E-04  0.293E-02    8.81       1.0  T
   4    -45.5937359 -0.316521E-05  0.740E-03    8.80       2.8  T
   5    -45.5937359 -0.688077E-07  0.314E-03    8.80       6.6  T
   6    -45.5937359 -0.107360E-07  0.137E-03    8.80      15.2  T
speedup  1.11
cpu  time for SCC    0.00 s
wall time for SCC    0.00 s
speedup  0.99
cpu  time for grad    0.01 s
wall time for grad    0.01 s
 E :    -45.35428017  G :  0.036396    pred/act E change: -0.412D-02 -0.204D-02
Maxdispl :   0.1405   ||displ|| :   0.3535   Lambda : -0.456D-02
Largest |displ|/coords:  0.1405 (   7)  0.1299 (   4)  0.1235 (   6)
................................................................................
.............................. CYCLE   13 ......................................
................................................................................
   1    -45.5913850 -0.455914E+02  0.322E-01    8.75       0.0  T
   2    -45.5914917 -0.106688E-03  0.234E-01    8.80       1.0  T
   3    -45.5915456 -0.539543E-04  0.597E-02    8.89       1.0  T
   4    -45.5915574 -0.118099E-04  0.155E-02    8.87       1.3  T
   5    -45.5915577 -0.296403E-06  0.587E-03    8.87       3.6  T
   6    -45.5915578 -0.486914E-07  0.248E-03    8.87       8.4  T
speedup  1.11
cpu  time for SCC    0.00 s
wall time for SCC    0.00 s
speedup  0.99
cpu  time for grad    0.01 s
wall time for grad    0.01 s
 E :    -45.35690111  G :  0.044180    pred/act E change: -0.139D-02 -0.262D-02
Maxdispl :   0.0915   ||displ|| :   0.2444   Lambda : -0.339D-02
Largest |displ|/coords:  0.0915 (   2)  0.0797 (  24)  0.0779 (  59)
................................................................................
.............................. CYCLE   14 ......................................
................................................................................
   1    -45.6006371 -0.456006E+02  0.193E-01    8.92       0.0  T
   2    -45.6006659 -0.288021E-04  0.144E-01    8.92       1.0  T
   3    -45.6006883 -0.224568E-04  0.377E-02    8.92       1.0  T
   4    -45.6006913 -0.301703E-05  0.124E-02    8.92       1.7  T
   5    -45.6006915 -0.179353E-06  0.383E-03    8.92       5.4  T
   6    -45.6006915 -0.149042E-07  0.206E-03    8.92      10.1  T
speedup  0.89
cpu  time for SCC    0.00 s
wall time for SCC    0.00 s
speedup  0.99
cpu  time for grad    0.01 s
wall time for grad    0.01 s
 E :    -45.35912380  G :  0.035463    pred/act E change: -0.257D-02 -0.222D-02
Maxdispl :   0.1122   ||displ|| :   0.3004   Lambda : -0.305D-02
Largest |displ|/coords:  0.1122 (   1)  0.1024 (   2)  0.0876 (  24)
................................................................................
.............................. CYCLE   15 ......................................
................................................................................
   1    -45.6089206 -0.456089E+02  0.213E-01    9.03       0.0  T
   2    -45.6089529 -0.322814E-04  0.157E-01    9.01       1.0  T
   3    -45.6089744 -0.215540E-04  0.364E-02    8.99       1.0  T
   4    -45.6089784 -0.401192E-05  0.118E-02    9.00       1.8  T
   5    -45.6089786 -0.155986E-06  0.404E-03    9.00       5.2  T
   6    -45.6089786 -0.186843E-07  0.195E-03    9.00      10.7  T
speedup  1.11
cpu  time for SCC    0.00 s
wall time for SCC    0.00 s
speedup  0.99
cpu  time for grad    0.01 s
wall time for grad    0.01 s
 E :    -45.36047779  G :  0.028140    pred/act E change: -0.180D-02 -0.135D-02
Maxdispl :   0.0845   ||displ|| :   0.1468   Lambda : -0.127D-02
Largest |displ|/coords:  0.0845 (   2)  0.0450 (   7)  0.0403 (  12)
................................................................................
.............................. CYCLE   16 ......................................
................................................................................
   1    -45.6106460 -0.456106E+02  0.982E-02    9.04       0.0  T
   2    -45.6106620 -0.159745E-04  0.736E-02    9.03       1.0  T
   3    -45.6106755 -0.134728E-04  0.230E-02    9.03       1.0  T
   4    -45.6106770 -0.150834E-05  0.654E-03    9.03       3.2  T
   5    -45.6106770 -0.501924E-07  0.243E-03    9.03       8.6  T
   6    -45.6106771 -0.552085E-08  0.102E-03    9.03      20.4  T
speedup  1.11
cpu  time for SCC    0.01 s
wall time for SCC    0.00 s
speedup  1.00
cpu  time for grad    0.01 s
wall time for grad    0.01 s
 E :    -45.36081512  G :  0.017270    pred/act E change: -0.167D-02 -0.337D-03
Maxdispl :   0.0684   ||displ|| :   0.1516   Lambda : -0.801D-03
Largest |displ|/coords:  0.0684 (   4)  0.0641 (  10)  0.0539 (   5)
................................................................................
.............................. CYCLE   17 ......................................
................................................................................
   1    -45.6086753 -0.456087E+02  0.118E-01    9.00       0.0  T
   2    -45.6086897 -0.144170E-04  0.869E-02    9.02       1.0  T
   3    -45.6086980 -0.826456E-05  0.212E-02    9.05       1.0  T
   4    -45.6086996 -0.156036E-05  0.683E-03    9.05       3.1  T
   5    -45.6086996 -0.687485E-07  0.235E-03    9.05       8.9  T
   6    -45.6086996 -0.638491E-08  0.118E-03    9.05      17.7  T
speedup  0.85
cpu  time for SCC    0.00 s
wall time for SCC    0.00 s
speedup  0.97
cpu  time for grad    0.01 s
wall time for grad    0.01 s
 E :    -45.36121505  G :  0.008627    pred/act E change: -0.647D-03 -0.400D-03
Maxdispl :   0.0598   ||displ|| :   0.1474   Lambda : -0.368D-03
Largest |displ|/coords:  0.0598 (   7)  0.0513 (   1)  0.0505 (   3)
................................................................................
.............................. CYCLE   18 ......................................
................................................................................
   1    -45.6055135 -0.456055E+02  0.103E-01    9.07       0.0  T
   2    -45.6055182 -0.472530E-05  0.759E-02    9.08       1.0  T
   3    -45.6055214 -0.316118E-05  0.124E-02    9.10       1.7  T
   4    -45.6055220 -0.630136E-06  0.440E-03    9.09       4.7  T
   5    -45.6055220 -0.172702E-07  0.138E-03    9.09      15.1  T
   6    -45.6055220 -0.271502E-08  0.609E-04    9.09      34.3  T
speedup  0.87
cpu  time for SCC    0.00 s
wall time for SCC    0.00 s
speedup  0.99
cpu  time for grad    0.01 s
wall time for grad    0.01 s
 E :    -45.36135603  G :  0.013175    pred/act E change: -0.410D-03 -0.141D-03
Maxdispl :   0.0448   ||displ|| :   0.0760   Lambda : -0.184D-03
Largest |displ|/coords:  0.0448 (   2)  0.0223 (  14)  0.0203 (   1)
................................................................................
.............................. CYCLE   19 ......................................
................................................................................
   1    -45.6082815 -0.456083E+02  0.414E-02    9.11       0.0  T
   2    -45.6082833 -0.176475E-05  0.302E-02    9.10       1.0  T
   3    -45.6082843 -0.103923E-05  0.787E-03    9.10       2.7  T
   4    -45.6082845 -0.171312E-06  0.191E-03    9.10      10.9  T
   5    -45.6082845 -0.761987E-08  0.786E-04    9.10      26.5  T
speedup  1.05
cpu  time for SCC    0.00 s
wall time for SCC    0.00 s
speedup  1.06
cpu  time for grad    0.01 s
wall time for grad    0.01 s
 E :    -45.36147515  G :  0.007699    pred/act E change: -0.188D-03 -0.119D-03
Maxdispl :   0.0405   ||displ|| :   0.1073   Lambda : -0.176D-03
Largest |displ|/coords:  0.0405 (   2)  0.0397 (   5)  0.0395 (   6)
................................................................................
.............................. CYCLE   20 ......................................
................................................................................
   1    -45.6094397 -0.456094E+02  0.629E-02    9.12       0.0  T
   2    -45.6094418 -0.208064E-05  0.465E-02    9.12       1.0  T
   3    -45.6094429 -0.113962E-05  0.905E-03    9.11       2.3  T
   4    -45.6094432 -0.295509E-06  0.227E-03    9.12       9.2  T
   5    -45.6094432 -0.681906E-08  0.830E-04    9.12      25.1  T
speedup  1.05
cpu  time for SCC    0.00 s
wall time for SCC    0.00 s
speedup  1.05
cpu  time for grad    0.01 s
wall time for grad    0.01 s
 E :    -45.36156870  G :  0.004689    pred/act E change: -0.927D-04 -0.936D-04
Maxdispl :   0.0507   ||displ|| :   0.1037   Lambda : -0.127D-03
Largest |displ|/coords:  0.0507 (   5)  0.0388 (  14)  0.0286 (  17)
................................................................................
.............................. CYCLE   21 ......................................
................................................................................
   1    -45.6092178 -0.456092E+02  0.843E-02    9.11       0.0  T
   2    -45.6092192 -0.140281E-05  0.626E-02    9.12       1.0  T
   3    -45.6092207 -0.144264E-05  0.727E-03    9.13       2.9  T
   4    -45.6092207 -0.925872E-07  0.273E-03    9.12       7.6  T
   5    -45.6092208 -0.688691E-08  0.839E-04    9.12      24.9  T
speedup  1.05
cpu  time for SCC    0.00 s
wall time for SCC    0.00 s
speedup  1.06
cpu  time for grad    0.01 s
wall time for grad    0.01 s
 E :    -45.36165884  G :  0.004178    pred/act E change: -0.890D-04 -0.901D-04
Maxdispl :   0.0595   ||displ|| :   0.1439   Lambda : -0.153D-03
Largest |displ|/coords:  0.0595 (   5)  0.0530 (  14)  0.0397 (   6)
................................................................................
.............................. CYCLE   22 ......................................
................................................................................
   1    -45.6081363 -0.456081E+02  0.126E-01    9.11       0.0  T
   2    -45.6081393 -0.300372E-05  0.938E-02    9.12       1.0  T
   3    -45.6081424 -0.308490E-05  0.109E-02    9.13       1.9  T
   4    -45.6081426 -0.204300E-06  0.412E-03    9.13       5.1  T
   5    -45.6081426 -0.148710E-07  0.126E-03    9.13      16.6  T
   6    -45.6081426 -0.200863E-08  0.659E-04    9.13      31.6  T
speedup  1.11
cpu  time for SCC    0.00 s
wall time for SCC    0.00 s
speedup  0.99
cpu  time for grad    0.01 s
wall time for grad    0.01 s
 E :    -45.36175234  G :  0.005697    pred/act E change: -0.643D-04 -0.935D-04
Maxdispl :   0.0729   ||displ|| :   0.1206   Lambda : -0.114D-03
Largest |displ|/coords:  0.0729 (   5)  0.0436 (   2)  0.0385 (  14)
................................................................................
.............................. CYCLE   23 ......................................
................................................................................
   1    -45.6085590 -0.456086E+02  0.986E-02    9.13       0.0  T
   2    -45.6085608 -0.172929E-05  0.733E-02    9.13       1.0  T
   3    -45.6085624 -0.164853E-05  0.869E-03    9.14       2.4  T
   4    -45.6085626 -0.132269E-06  0.271E-03    9.14       7.7  T
   5    -45.6085626 -0.670185E-08  0.938E-04    9.14      22.2  T
speedup  1.03
cpu  time for SCC    0.00 s
wall time for SCC    0.00 s
speedup  0.95
cpu  time for grad    0.01 s
wall time for grad    0.01 s
 E :    -45.36181097  G :  0.006870    pred/act E change: -0.780D-04 -0.586D-04
Maxdispl :   0.0686   ||displ|| :   0.1093   Lambda : -0.985D-04
Largest |displ|/coords:  0.0686 (   2)  0.0380 (   6)  0.0325 (   5)
................................................................................
.............................. CYCLE   24 ......................................
................................................................................
   1    -45.6083720 -0.456084E+02  0.700E-02    9.13       0.0  T
   2    -45.6083730 -0.104729E-05  0.520E-02    9.13       1.0  T
   3    -45.6083740 -0.932390E-06  0.707E-03    9.13       2.9  T
   4    -45.6083741 -0.104125E-06  0.218E-03    9.13       9.5  T
   5    -45.6083741 -0.610708E-08  0.776E-04    9.13      26.9  T
speedup  1.08
cpu  time for SCC    0.00 s
wall time for SCC    0.00 s
speedup  0.97
cpu  time for grad    0.01 s
wall time for grad    0.01 s
 E :    -45.36187075  G :  0.005522    pred/act E change: -0.579D-04 -0.598D-04
Maxdispl :   0.0734   ||displ|| :   0.1287   Lambda : -0.110D-03
Largest |displ|/coords:  0.0734 (   2)  0.0547 (   5)  0.0498 (   1)
................................................................................
.............................. CYCLE   25 ......................................
................................................................................
   1    -45.6085258 -0.456085E+02  0.951E-02    9.11       0.0  T
   2    -45.6085277 -0.186396E-05  0.694E-02    9.12       1.0  T
   3    -45.6085293 -0.157335E-05  0.108E-02    9.13       1.9  T
   4    -45.6085294 -0.140980E-06  0.297E-03    9.13       7.0  T
   5    -45.6085294 -0.125959E-07  0.962E-04    9.13      21.7  T
speedup  1.05
cpu  time for SCC    0.00 s
wall time for SCC    0.00 s
speedup  1.05
cpu  time for grad    0.01 s
wall time for grad    0.01 s
 E :    -45.36194243  G :  0.004782    pred/act E change: -0.498D-04 -0.717D-04
Maxdispl :   0.0896   ||displ|| :   0.1620   Lambda : -0.109D-03
Largest |displ|/coords:  0.0896 (   2)  0.0653 (   5)  0.0613 (   1)

generating ANC from model Hessian ...
 Shifting diagonal of input Hessian by   4.862613192389049E-003
 Lowest  eigenvalues of input Hessian
   -0.000000   -0.000000   -0.000000   -0.000000    0.000000    0.000000
    0.005000    0.005325    0.006007    0.006330    0.007241    0.007368
    0.008004    0.008612    0.010034    0.014316    0.014563    0.016055
 Highest eigenvalues
    1.357262    1.393871    1.408552    2.571013    3.446030    3.634436
 
cpu  time for ANC gen    0.02 s
wall time for ANC gen    0.02 s
................................................................................
.............................. CYCLE   26 ......................................
................................................................................
   1    -45.6088206 -0.456088E+02  0.117E-01    9.12       0.0  T
   2    -45.6088230 -0.243502E-05  0.852E-02    9.12       1.0  T
   3    -45.6088253 -0.224602E-05  0.138E-02    9.12       1.5  T
   4    -45.6088254 -0.170843E-06  0.376E-03    9.12       5.5  T
   5    -45.6088255 -0.213760E-07  0.121E-03    9.12      17.3  T
   6    -45.6088255 -0.152931E-08  0.705E-04    9.12      29.6  T
   7    -45.6088255 -0.484320E-09  0.163E-04    9.12     127.6  T
speedup  0.96
cpu  time for SCC    0.00 s
wall time for SCC    0.01 s
speedup  0.98
cpu  time for grad    0.01 s
wall time for grad    0.01 s
 E :    -45.36200972  G :  0.005616    pred/act E change:  0.000D+00 -0.673D-04
Maxdispl :   0.0733   ||displ|| :   0.1048   Lambda : -0.130D-03
Largest |displ|/coords:  0.0733 (   6)  0.0435 (   1)  0.0414 (   5)
................................................................................
.............................. CYCLE   27 ......................................
................................................................................
   1    -45.6089662 -0.456090E+02  0.714E-02    9.14       0.0  T
   2    -45.6089669 -0.678212E-06  0.534E-02    9.14       1.0  T
   3    -45.6089674 -0.459393E-06  0.512E-03    9.14       4.1  T
   4    -45.6089675 -0.101209E-06  0.154E-03    9.14      13.5  T
   5    -45.6089675 -0.243882E-08  0.627E-04    9.14      33.2  T
speedup  1.08
cpu  time for SCC    0.00 s
wall time for SCC    0.00 s
speedup  0.96
cpu  time for grad    0.01 s
wall time for grad    0.01 s
 E :    -45.36209719  G :  0.003028    pred/act E change:  0.000D+00 -0.875D-04
Maxdispl :   0.1227   ||displ|| :   0.2006   Lambda : -0.161D-03
Largest |displ|/coords:  0.1227 (   1)  0.0998 (   6)  0.0704 (   7)
................................................................................
.............................. CYCLE   28 ......................................
................................................................................
   1    -45.6086429 -0.456086E+02  0.140E-01    9.14       0.0  T
   2    -45.6086458 -0.288258E-05  0.105E-01    9.14       1.0  T
   3    -45.6086483 -0.257370E-05  0.106E-02    9.15       2.0  T
   4    -45.6086487 -0.324655E-06  0.409E-03    9.15       5.1  T
   5    -45.6086487 -0.102523E-07  0.127E-03    9.15      16.4  T
   6    -45.6086487 -0.141237E-08  0.599E-04    9.15      34.8  T
   7    -45.6086487 -0.625867E-09  0.157E-04    9.15     132.6  T
speedup  0.96
cpu  time for SCC    0.00 s
wall time for SCC    0.01 s
speedup  0.98
cpu  time for grad    0.01 s
wall time for grad    0.01 s
 E :    -45.36216552  G :  0.004693    pred/act E change: -0.657D-04 -0.683D-04
Maxdispl :   0.0695   ||displ|| :   0.1000   Lambda : -0.688D-04
Largest |displ|/coords:  0.0695 (   1)  0.0375 (   6)  0.0314 (   3)
................................................................................
.............................. CYCLE   29 ......................................
................................................................................
   1    -45.6086353 -0.456086E+02  0.619E-02    9.16       0.0  T
   2    -45.6086357 -0.401516E-06  0.459E-02    9.16       1.0  T
   3    -45.6086360 -0.317453E-06  0.392E-03    9.17       5.3  T
   4    -45.6086361 -0.440610E-07  0.145E-03    9.16      14.4  T
   5    -45.6086361 -0.153847E-08  0.499E-04    9.16      41.8  T
speedup  1.05
cpu  time for SCC    0.00 s
wall time for SCC    0.00 s
speedup  0.96
cpu  time for grad    0.01 s
wall time for grad    0.01 s
 E :    -45.36221932  G :  0.003187    pred/act E change: -0.837D-04 -0.538D-04
Maxdispl :   0.1959   ||displ|| :   0.2601   Lambda : -0.120D-03
Largest |displ|/coords:  0.1959 (   1)  0.0885 (   3)  0.0869 (   2)
................................................................................
.............................. CYCLE   30 ......................................
................................................................................
   1    -45.6083674 -0.456084E+02  0.140E-01    9.17       0.0  T
   2    -45.6083699 -0.254785E-05  0.104E-01    9.18       1.0  T
   3    -45.6083720 -0.206261E-05  0.940E-03    9.19       2.2  T
   4    -45.6083723 -0.273205E-06  0.382E-03    9.18       5.5  T
   5    -45.6083723 -0.102111E-07  0.123E-03    9.18      16.9  T
   6    -45.6083723 -0.214892E-08  0.604E-04    9.18      34.5  T
   7    -45.6083723 -0.663896E-09  0.174E-04    9.18     119.7  T
speedup  0.96
cpu  time for SCC    0.00 s
wall time for SCC    0.01 s
speedup  0.98
cpu  time for grad    0.01 s
wall time for grad    0.01 s
 E :    -45.36229176  G :  0.004809    pred/act E change: -0.347D-04 -0.724D-04
Maxdispl :   0.1409   ||displ|| :   0.2004   Lambda : -0.683D-04
Largest |displ|/coords:  0.1409 (   1)  0.0969 (   2)  0.0581 (   6)
................................................................................
.............................. CYCLE   31 ......................................
................................................................................
   1    -45.6081037 -0.456081E+02  0.106E-01    9.18       0.0  T
   2    -45.6081050 -0.133225E-05  0.790E-02    9.18       1.0  T
   3    -45.6081063 -0.131547E-05  0.692E-03    9.19       3.0  T
   4    -45.6081064 -0.121471E-06  0.309E-03    9.19       6.7  T
   5    -45.6081064 -0.853510E-08  0.906E-04    9.19      23.0  T
   6    -45.6081064 -0.117023E-08  0.485E-04    9.19      43.0  T
speedup  1.09
cpu  time for SCC    0.00 s
wall time for SCC    0.00 s
speedup  0.98
cpu  time for grad    0.01 s
wall time for grad    0.01 s
 E :    -45.36233905  G :  0.005668    pred/act E change: -0.641D-04 -0.473D-04
Maxdispl :   0.1646   ||displ|| :   0.2341   Lambda : -0.973D-04
Largest |displ|/coords:  0.1646 (   1)  0.1267 (   2)  0.0749 (   3)
................................................................................
.............................. CYCLE   32 ......................................
................................................................................
   1    -45.6093903 -0.456094E+02  0.106E-01    9.18       0.0  T
   2    -45.6093919 -0.156385E-05  0.793E-02    9.18       1.0  T
   3    -45.6093934 -0.150773E-05  0.781E-03    9.18       2.7  T
   4    -45.6093935 -0.170158E-06  0.317E-03    9.18       6.6  T
   5    -45.6093935 -0.101008E-07  0.105E-03    9.18      19.8  T
   6    -45.6093935 -0.166161E-08  0.510E-04    9.18      40.9  T
speedup  1.06
cpu  time for SCC    0.01 s
wall time for SCC    0.00 s
speedup  0.97
cpu  time for grad    0.01 s
wall time for grad    0.01 s
 E :    -45.36239730  G :  0.004882    pred/act E change: -0.355D-04 -0.583D-04
Maxdispl :   0.2747   ||displ|| :   0.4080   Lambda : -0.113D-03
Largest |displ|/coords:  0.2747 (   1)  0.1941 (   2)  0.1612 (   3)
................................................................................
.............................. CYCLE   33 ......................................
................................................................................
   1    -45.6058514 -0.456059E+02  0.215E-01    9.12       0.0  T
   2    -45.6058580 -0.667264E-05  0.161E-01    9.13       1.0  T
   3    -45.6058639 -0.586315E-05  0.152E-02    9.14       1.4  T
   4    -45.6058647 -0.794778E-06  0.618E-03    9.14       3.4  T
   5    -45.6058647 -0.365128E-07  0.224E-03    9.14       9.3  T
   6    -45.6058647 -0.719643E-08  0.101E-03    9.14      20.6  T
speedup  0.89
cpu  time for SCC    0.00 s
wall time for SCC    0.00 s
speedup  0.99
cpu  time for grad    0.01 s
wall time for grad    0.01 s
 E :    -45.36240347  G :  0.010427    pred/act E change: -0.513D-04 -0.617D-05
Maxdispl :   0.1104   ||displ|| :   0.1483   Lambda : -0.169D-03
Largest |displ|/coords:  0.1104 (   1)  0.0552 (   6)  0.0520 (   2)
................................................................................
.............................. CYCLE   34 ......................................
................................................................................
   1    -45.6096228 -0.456096E+02  0.862E-02    9.16       0.0  T
   2    -45.6096257 -0.290491E-05  0.635E-02    9.15       1.0  T
   3    -45.6096269 -0.121582E-05  0.103E-02    9.14       2.0  T
   4    -45.6096274 -0.455558E-06  0.302E-03    9.14       6.9  T
   5    -45.6096274 -0.116971E-07  0.106E-03    9.14      19.6  T
   6    -45.6096274 -0.937341E-09  0.517E-04    9.14      40.3  T
speedup  0.89
cpu  time for SCC    0.00 s
wall time for SCC    0.00 s
speedup  0.99
cpu  time for grad    0.01 s
wall time for grad    0.01 s
 E :    -45.36248045  G :  0.002150    pred/act E change: -0.659D-04 -0.770D-04
Maxdispl :   0.0664   ||displ|| :   0.1107   Lambda : -0.383D-04
Largest |displ|/coords:  0.0664 (   3)  0.0614 (   2)  0.0469 (   1)
................................................................................
.............................. CYCLE   35 ......................................
................................................................................
   1    -45.6095810 -0.456096E+02  0.640E-02    9.13       0.0  T
   2    -45.6095816 -0.545587E-06  0.477E-02    9.13       1.0  T
   3    -45.6095821 -0.503010E-06  0.530E-03    9.13       3.9  T
   4    -45.6095822 -0.637582E-07  0.173E-03    9.13      12.0  T
   5    -45.6095822 -0.376031E-08  0.678E-04    9.13      30.8  T
   6    -45.6095822 -0.605034E-09  0.339E-04    9.13      61.5  T
speedup  0.89
cpu  time for SCC    0.00 s
wall time for SCC    0.00 s
speedup  0.95
cpu  time for grad    0.01 s
wall time for grad    0.01 s
 E :    -45.36251247  G :  0.002655    pred/act E change: -0.865D-04 -0.320D-04
Maxdispl :   0.2374   ||displ|| :   0.3960   Lambda : -0.118D-03
Largest |displ|/coords:  0.2374 (   3)  0.2213 (   2)  0.1414 (   1)
................................................................................
.............................. CYCLE   36 ......................................
................................................................................
   1    -45.6067798 -0.456068E+02  0.236E-01    9.07       0.0  T
   2    -45.6067878 -0.800310E-05  0.176E-01    9.07       1.0  T
   3    -45.6067956 -0.780655E-05  0.197E-02    9.08       1.1  T
   4    -45.6067965 -0.918713E-06  0.695E-03    9.07       3.0  T
   5    -45.6067966 -0.584344E-07  0.286E-03    9.07       7.3  T
   6    -45.6067966 -0.108869E-07  0.138E-03    9.08      15.1  T
   7    -45.6067966 -0.323669E-08  0.347E-04    9.08      60.1  T
   8    -45.6067966 -0.301235E-09  0.976E-05    9.08     213.7  T
speedup  1.00
cpu  time for SCC    0.01 s
wall time for SCC    0.01 s
speedup  1.00
cpu  time for grad    0.01 s
wall time for grad    0.01 s
 E :    -45.36254660  G :  0.008195    pred/act E change: -0.194D-04 -0.341D-04
Maxdispl :   0.0903   ||displ|| :   0.1416   Lambda : -0.972D-04
Largest |displ|/coords:  0.0903 (   1)  0.0752 (   2)  0.0559 (   3)
................................................................................
.............................. CYCLE   37 ......................................
................................................................................
   1    -45.6097269 -0.456097E+02  0.713E-02    9.11       0.0  T
   2    -45.6097279 -0.100938E-05  0.533E-02    9.11       1.0  T
   3    -45.6097287 -0.722315E-06  0.605E-03    9.10       3.4  T
   4    -45.6097288 -0.157237E-06  0.208E-03    9.10      10.0  T
   5    -45.6097288 -0.597142E-08  0.861E-04    9.10      24.2  T
speedup  0.81
cpu  time for SCC    0.00 s
wall time for SCC    0.00 s
speedup  0.96
cpu  time for grad    0.01 s
wall time for grad    0.01 s
 E :    -45.36259363  G :  0.002901    pred/act E change: -0.681D-04 -0.470D-04
Maxdispl :   0.0710   ||displ|| :   0.1068   Lambda : -0.458D-04
Largest |displ|/coords:  0.0710 (   3)  0.0359 (   2)  0.0327 (   8)
................................................................................
.............................. CYCLE   38 ......................................
................................................................................
   1    -45.6100400 -0.456100E+02  0.668E-02    9.09       0.0  T
   2    -45.6100407 -0.739317E-06  0.498E-02    9.09       1.0  T
   3    -45.6100414 -0.702027E-06  0.628E-03    9.09       3.3  T
   4    -45.6100415 -0.816689E-07  0.221E-03    9.09       9.4  T
   5    -45.6100415 -0.596965E-08  0.776E-04    9.09      26.9  T
   6    -45.6100415 -0.785917E-09  0.430E-04    9.09      48.5  T
speedup  0.89
cpu  time for SCC    0.00 s
wall time for SCC    0.00 s
speedup  0.95
cpu  time for grad    0.01 s
wall time for grad    0.01 s
 E :    -45.36262345  G :  0.004548    pred/act E change: -0.496D-04 -0.298D-04
Maxdispl :   0.1820   ||displ|| :   0.2851   Lambda : -0.989D-04
Largest |displ|/coords:  0.1820 (   3)  0.1340 (   2)  0.0748 (  11)
................................................................................
.............................. CYCLE   39 ......................................
................................................................................
   1    -45.6085835 -0.456086E+02  0.183E-01    9.05       0.0  T
   2    -45.6085889 -0.530385E-05  0.137E-01    9.06       1.0  T
   3    -45.6085942 -0.538493E-05  0.171E-02    9.06       1.2  T
   4    -45.6085948 -0.580496E-06  0.653E-03    9.05       3.2  T
   5    -45.6085949 -0.485838E-07  0.214E-03    9.05       9.7  T
   6    -45.6085949 -0.507199E-08  0.124E-03    9.05      16.9  T
speedup  0.89
cpu  time for SCC    0.00 s
wall time for SCC    0.00 s
speedup  0.99
cpu  time for grad    0.01 s
wall time for grad    0.01 s
 E :    -45.36268013  G :  0.006195    pred/act E change: -0.232D-04 -0.567D-04
Maxdispl :   0.0239   ||displ|| :   0.0529   Lambda : -0.549D-04
Largest |displ|/coords:  0.0239 (   4)  0.0220 (   3)  0.0174 (   1)
................................................................................
.............................. CYCLE   40 ......................................
................................................................................
   1    -45.6097252 -0.456097E+02  0.366E-02    9.07       0.0  T
   2    -45.6097256 -0.477996E-06  0.269E-02    9.07       1.0  T
   3    -45.6097259 -0.249362E-06  0.548E-03    9.07       3.8  T
   4    -45.6097260 -0.646641E-07  0.176E-03    9.07      11.9  T
   5    -45.6097260 -0.310197E-08  0.449E-04    9.07      46.4  T
speedup  1.05
cpu  time for SCC    0.00 s
wall time for SCC    0.00 s
speedup  0.96
cpu  time for grad    0.01 s
wall time for grad    0.01 s
 E :    -45.36271780  G :  0.004067    pred/act E change: -0.535D-04 -0.377D-04
Maxdispl :   0.1347   ||displ|| :   0.2187   Lambda : -0.770D-04
Largest |displ|/coords:  0.1347 (   3)  0.0836 (   2)  0.0790 (   4)
................................................................................
.............................. CYCLE   41 ......................................
................................................................................
   1    -45.6089743 -0.456090E+02  0.146E-01    9.05       0.0  T
   2    -45.6089774 -0.308337E-05  0.109E-01    9.05       1.0  T
   3    -45.6089798 -0.236365E-05  0.143E-02    9.05       1.5  T
   4    -45.6089802 -0.433163E-06  0.556E-03    9.05       3.7  T
   5    -45.6089802 -0.262517E-07  0.142E-03    9.05      14.7  T
   6    -45.6089802 -0.182226E-08  0.914E-04    9.05      22.8  T
speedup  1.11
cpu  time for SCC    0.00 s
wall time for SCC    0.00 s
speedup  0.99
cpu  time for grad    0.01 s
wall time for grad    0.01 s
 E :    -45.36276796  G :  0.005477    pred/act E change: -0.275D-04 -0.502D-04
Maxdispl :   0.0767   ||displ|| :   0.1733   Lambda : -0.117D-03
Largest |displ|/coords:  0.0767 (   3)  0.0660 (   4)  0.0555 (  11)
................................................................................
.............................. CYCLE   42 ......................................
................................................................................
   1    -45.6103306 -0.456103E+02  0.134E-01    9.07       0.0  T
   2    -45.6103345 -0.394304E-05  0.995E-02    9.06       1.0  T
   3    -45.6103368 -0.228912E-05  0.158E-02    9.05       1.3  T
   4    -45.6103374 -0.627455E-06  0.601E-03    9.05       3.5  T
   5    -45.6103375 -0.290663E-07  0.150E-03    9.05      13.9  T
   6    -45.6103375 -0.307480E-08  0.899E-04    9.05      23.2  T
speedup  0.89
cpu  time for SCC    0.00 s
wall time for SCC    0.00 s
speedup  0.99
cpu  time for grad    0.01 s
wall time for grad    0.01 s
 E :    -45.36280061  G :  0.007464    pred/act E change: -0.404D-04 -0.327D-04
Maxdispl :   0.0801   ||displ|| :   0.1288   Lambda : -0.102D-03
Largest |displ|/coords:  0.0801 (   4)  0.0574 (   3)  0.0452 (   1)
................................................................................
.............................. CYCLE   43 ......................................
................................................................................
   1    -45.6100101 -0.456100E+02  0.813E-02    9.04       0.0  T
   2    -45.6100112 -0.106958E-05  0.604E-02    9.05       1.0  T
   3    -45.6100119 -0.674606E-06  0.801E-03    9.06       2.6  T
   4    -45.6100120 -0.159774E-06  0.230E-03    9.05       9.1  T
   5    -45.6100120 -0.565287E-08  0.778E-04    9.05      26.8  T
speedup  0.79
cpu  time for SCC    0.00 s
wall time for SCC    0.00 s
speedup  0.96
cpu  time for grad    0.01 s
wall time for grad    0.01 s
 E :    -45.36284563  G :  0.006917    pred/act E change: -0.604D-04 -0.450D-04
Maxdispl :   0.0257   ||displ|| :   0.0490   Lambda : -0.598D-04
Largest |displ|/coords:  0.0257 (   3)  0.0233 (   1)  0.0148 (   5)
................................................................................
.............................. CYCLE   44 ......................................
................................................................................
   1    -45.6108952 -0.456109E+02  0.310E-02    9.06       0.0  T
   2    -45.6108958 -0.566730E-06  0.228E-02    9.06       1.0  T
   3    -45.6108960 -0.243058E-06  0.521E-03    9.05       4.0  T
   4    -45.6108961 -0.767767E-07  0.171E-03    9.05      12.2  T
   5    -45.6108961 -0.318777E-08  0.502E-04    9.06      41.5  T
speedup  0.81
cpu  time for SCC    0.00 s
wall time for SCC    0.00 s
speedup  0.96
cpu  time for grad    0.01 s
wall time for grad    0.01 s
 E :    -45.36287798  G :  0.004776    pred/act E change: -0.521D-04 -0.323D-04
Maxdispl :   0.1037   ||displ|| :   0.2158   Lambda : -0.794D-04
Largest |displ|/coords:  0.1037 (   3)  0.0978 (   2)  0.0788 (   4)
................................................................................
.............................. CYCLE   45 ......................................
................................................................................
   1    -45.6076990 -0.456077E+02  0.149E-01    9.01       0.0  T
   2    -45.6077023 -0.326187E-05  0.112E-01    9.01       1.0  T
   3    -45.6077059 -0.361363E-05  0.116E-02    9.01       1.8  T
   4    -45.6077062 -0.326650E-06  0.451E-03    9.01       4.6  T
   5    -45.6077062 -0.221482E-07  0.166E-03    9.01      12.6  T
   6    -45.6077062 -0.351180E-08  0.723E-04    9.01      28.8  T
speedup  0.89
cpu  time for SCC    0.00 s
wall time for SCC    0.00 s
speedup  0.98
cpu  time for grad    0.01 s
wall time for grad    0.01 s
 E :    -45.36287699  G :  0.009274    pred/act E change: -0.300D-04  0.991D-06
Maxdispl :   0.0525   ||displ|| :   0.0893   Lambda : -0.144D-03
Largest |displ|/coords:  0.0525 (   2)  0.0390 (   3)  0.0390 (   8)
................................................................................
.............................. CYCLE   46 ......................................
................................................................................
   1    -45.6116186 -0.456116E+02  0.585E-02    9.04       0.0  T
   2    -45.6116205 -0.187984E-05  0.432E-02    9.04       1.0  T
   3    -45.6116214 -0.948480E-06  0.904E-03    9.03       2.3  T
   4    -45.6116217 -0.261223E-06  0.311E-03    9.04       6.7  T
   5    -45.6116217 -0.139421E-07  0.971E-04    9.04      21.5  T
   6    -45.6116217 -0.133085E-08  0.459E-04    9.04      45.4  T
speedup  0.89
cpu  time for SCC    0.00 s
wall time for SCC    0.00 s
speedup  0.99
cpu  time for grad    0.01 s
wall time for grad    0.01 s
 E :    -45.36291724  G :  0.006276    pred/act E change: -0.416D-04 -0.402D-04
Maxdispl :   0.0617   ||displ|| :   0.1075   Lambda : -0.111D-03
Largest |displ|/coords:  0.0617 (   1)  0.0397 (   4)  0.0258 (  17)
................................................................................
.............................. CYCLE   47 ......................................
................................................................................
   1    -45.6118869 -0.456119E+02  0.889E-02    9.04       0.0  T
   2    -45.6118883 -0.140145E-05  0.653E-02    9.04       1.0  T
   3    -45.6118892 -0.994962E-06  0.873E-03    9.04       2.4  T
   4    -45.6118894 -0.139079E-06  0.322E-03    9.04       6.5  T
   5    -45.6118894 -0.681350E-08  0.749E-04    9.04      27.9  T
   6    -45.6118894 -0.469839E-09  0.456E-04    9.04      45.7  T
speedup  1.11
cpu  time for SCC    0.00 s
wall time for SCC    0.00 s
speedup  1.08
cpu  time for grad    0.01 s
wall time for grad    0.01 s
 E :    -45.36294141  G :  0.007006    pred/act E change: -0.725D-04 -0.242D-04
Maxdispl :   0.0452   ||displ|| :   0.1043   Lambda : -0.707D-04
Largest |displ|/coords:  0.0452 (   4)  0.0418 (   2)  0.0403 (   3)
................................................................................
.............................. CYCLE   48 ......................................
................................................................................
   1    -45.6102799 -0.456103E+02  0.737E-02    9.02       0.0  T
   2    -45.6102806 -0.761281E-06  0.552E-02    9.02       1.0  T
   3    -45.6102814 -0.713336E-06  0.597E-03    9.03       3.5  T
   4    -45.6102814 -0.828719E-07  0.222E-03    9.03       9.4  T
   5    -45.6102814 -0.541399E-08  0.744E-04    9.03      28.0  T
speedup  1.05
cpu  time for SCC    0.00 s
wall time for SCC    0.00 s
speedup  1.06
cpu  time for grad    0.01 s
wall time for grad    0.01 s
 E :    -45.36298401  G :  0.004249    pred/act E change: -0.562D-04 -0.426D-04
Maxdispl :   0.0336   ||displ|| :   0.0705   Lambda : -0.353D-04
Largest |displ|/coords:  0.0336 (   4)  0.0208 (   2)  0.0194 (  36)
................................................................................
.............................. CYCLE   49 ......................................
................................................................................
   1    -45.6103590 -0.456104E+02  0.524E-02    9.02       0.0  T
   2    -45.6103594 -0.479125E-06  0.393E-02    9.02       1.0  T
   3    -45.6103599 -0.442764E-06  0.475E-03    9.02       4.4  T
   4    -45.6103599 -0.587723E-07  0.189E-03    9.02      11.0  T
   5    -45.6103600 -0.333760E-08  0.563E-04    9.02      37.0  T
speedup  1.05
cpu  time for SCC    0.00 s
wall time for SCC    0.00 s
speedup  1.06
cpu  time for grad    0.01 s
wall time for grad    0.01 s
 E :    -45.36300691  G :  0.003222    pred/act E change: -0.357D-04 -0.229D-04
Maxdispl :   0.0798   ||displ|| :   0.1688   Lambda : -0.505D-04
Largest |displ|/coords:  0.0798 (   4)  0.0501 (  36)  0.0492 (   3)
................................................................................
.............................. CYCLE   50 ......................................
................................................................................
   1    -45.6098414 -0.456098E+02  0.122E-01    9.00       0.0  T
   2    -45.6098430 -0.163072E-05  0.912E-02    9.01       1.0  T
   3    -45.6098445 -0.148871E-05  0.105E-02    9.01       2.0  T
   4    -45.6098447 -0.173595E-06  0.385E-03    9.01       5.4  T
   5    -45.6098447 -0.129071E-07  0.108E-03    9.01      19.2  T
   6    -45.6098447 -0.889294E-09  0.655E-04    9.01      31.8  T
   7    -45.6098447 -0.412946E-09  0.135E-04    9.01     154.3  T
speedup  0.96
cpu  time for SCC    0.00 s
wall time for SCC    0.01 s
speedup  0.98
cpu  time for grad    0.01 s
wall time for grad    0.01 s
 E :    -45.36303590  G :  0.005166    pred/act E change: -0.177D-04 -0.290D-04
Maxdispl :   0.0350   ||displ|| :   0.0903   Lambda : -0.566D-04
Largest |displ|/coords:  0.0350 (   7)  0.0339 (   1)  0.0320 (   4)
................................................................................
.............................. CYCLE   51 ......................................
................................................................................
   1    -45.6115612 -0.456116E+02  0.675E-02    9.02       0.0  T
   2    -45.6115621 -0.869891E-06  0.498E-02    9.02       1.0  T
   3    -45.6115627 -0.615505E-06  0.735E-03    9.02       2.8  T
   4    -45.6115628 -0.104763E-06  0.258E-03    9.03       8.1  T
   5    -45.6115628 -0.574491E-08  0.694E-04    9.02      30.0  T
speedup  0.79
cpu  time for SCC    0.00 s
wall time for SCC    0.00 s
speedup  0.96
cpu  time for grad    0.01 s
wall time for grad    0.01 s
 E :    -45.36306572  G :  0.003285    pred/act E change: -0.260D-04 -0.298D-04
Maxdispl :   0.1186   ||displ|| :   0.2615   Lambda : -0.642D-04
Largest |displ|/coords:  0.1186 (   4)  0.0891 (   1)  0.0869 (   3)
................................................................................
.............................. CYCLE   52 ......................................
................................................................................
   1    -45.6086859 -0.456087E+02  0.190E-01    8.98       0.0  T
   2    -45.6086904 -0.448775E-05  0.141E-01    8.99       1.0  T
   3    -45.6086942 -0.376306E-05  0.164E-02    9.00       1.3  T
   4    -45.6086947 -0.544002E-06  0.579E-03    9.00       3.6  T
   5    -45.6086947 -0.304195E-07  0.187E-03    9.00      11.1  T
   6    -45.6086947 -0.354764E-08  0.106E-03    9.00      19.6  T
   7    -45.6086947 -0.131352E-08  0.251E-04    9.00      83.1  T
   8    -45.6086947 -0.213618E-09  0.655E-05    9.00     318.5  T
speedup  1.00
cpu  time for SCC    0.01 s
wall time for SCC    0.01 s
speedup  1.00
cpu  time for grad    0.01 s
wall time for grad    0.01 s
 E :    -45.36302111  G :  0.009943    pred/act E change: -0.285D-04  0.446D-04
Maxdispl :   0.0849   ||displ|| :   0.1665   Lambda : -0.173D-03
Largest |displ|/coords:  0.0849 (   4)  0.0566 (   1)  0.0491 (  36)

generating ANC from model Hessian ...
 Shifting diagonal of input Hessian by   4.952195991218724E-003
 Lowest  eigenvalues of input Hessian
   -0.000000   -0.000000   -0.000000    0.000000    0.000000    0.000000
    0.005000    0.005430    0.005934    0.006261    0.006638    0.006907
    0.007700    0.008750    0.010354    0.012373    0.014257    0.015140
 Highest eigenvalues
    1.369920    1.388583    1.410617    2.585317    3.426449    3.644043
 
cpu  time for ANC gen    0.02 s
wall time for ANC gen    0.02 s
................................................................................
.............................. CYCLE   53 ......................................
................................................................................
   1    -45.6116598 -0.456117E+02  0.122E-01    9.03       0.0  T
   2    -45.6116622 -0.238307E-05  0.908E-02    9.02       1.0  T
   3    -45.6116637 -0.150683E-05  0.116E-02    9.01       1.8  T
   4    -45.6116640 -0.353308E-06  0.381E-03    9.02       5.5  T
   5    -45.6116640 -0.130940E-07  0.117E-03    9.02      17.8  T
   6    -45.6116640 -0.152750E-08  0.661E-04    9.02      31.6  T
   7    -45.6116640 -0.515371E-09  0.196E-04    9.02     106.5  T
speedup  0.96
cpu  time for SCC    0.00 s
wall time for SCC    0.01 s
speedup  0.98
cpu  time for grad    0.01 s
wall time for grad    0.01 s
 E :    -45.36308651  G :  0.002543    pred/act E change:  0.000D+00 -0.654D-04
Maxdispl :   0.0241   ||displ|| :   0.0379   Lambda : -0.167D-04
Largest |displ|/coords:  0.0241 (   5)  0.0147 (   3)  0.0122 (   4)
................................................................................
.............................. CYCLE   54 ......................................
................................................................................
   1    -45.6115238 -0.456115E+02  0.231E-02    9.02       0.0  T
   2    -45.6115239 -0.866195E-07  0.173E-02    9.02       1.2  T
   3    -45.6115240 -0.723648E-07  0.192E-03    9.02      10.9  T
   4    -45.6115240 -0.108759E-07  0.798E-04    9.02      26.1  T
   5    -45.6115240 -0.744429E-09  0.220E-04    9.02      94.7  T
speedup  1.08
cpu  time for SCC    0.00 s
wall time for SCC    0.00 s
speedup  1.01
cpu  time for grad    0.01 s
wall time for grad    0.01 s
 E :    -45.36309979  G :  0.001327    pred/act E change:  0.000D+00 -0.133D-04
Maxdispl :   0.0694   ||displ|| :   0.1257   Lambda : -0.354D-04
Largest |displ|/coords:  0.0694 (   5)  0.0659 (   3)  0.0541 (   6)
................................................................................
.............................. CYCLE   55 ......................................
................................................................................
   1    -45.6109448 -0.456109E+02  0.680E-02    9.03       0.0  T
   2    -45.6109454 -0.610501E-06  0.505E-02    9.03       1.0  T
   3    -45.6109458 -0.371184E-06  0.549E-03    9.03       3.8  T
   4    -45.6109459 -0.935689E-07  0.203E-03    9.03      10.2  T
   5    -45.6109459 -0.437034E-08  0.559E-04    9.03      37.3  T
   6    -45.6109459 -0.435833E-09  0.325E-04    9.03      64.2  T
speedup  1.11
cpu  time for SCC    0.00 s
wall time for SCC    0.00 s
speedup  1.04
cpu  time for grad    0.01 s
wall time for grad    0.01 s
 E :    -45.36312065  G :  0.002938    pred/act E change: -0.837D-05 -0.209D-04
Maxdispl :   0.0330   ||displ|| :   0.0642   Lambda : -0.128D-04
Largest |displ|/coords:  0.0330 (   5)  0.0320 (   6)  0.0302 (   3)
................................................................................
.............................. CYCLE   56 ......................................
................................................................................
   1    -45.6109154 -0.456109E+02  0.331E-02    9.03       0.0  T
   2    -45.6109155 -0.973940E-07  0.247E-02    9.03       1.0  T
   3    -45.6109155 -0.750715E-07  0.224E-03    9.03       9.3  T
   4    -45.6109155 -0.129697E-07  0.883E-04    9.03      23.6  T
   5    -45.6109155 -0.693184E-09  0.236E-04    9.03      88.3  T
speedup  1.05
cpu  time for SCC    0.00 s
wall time for SCC    0.00 s
speedup  1.02
cpu  time for grad    0.01 s
wall time for grad    0.01 s
 E :    -45.36313078  G :  0.002635    pred/act E change: -0.180D-04 -0.101D-04
Maxdispl :   0.0773   ||displ|| :   0.1274   Lambda : -0.266D-04
Largest |displ|/coords:  0.0773 (   6)  0.0568 (   5)  0.0563 (   3)
................................................................................
.............................. CYCLE   57 ......................................
................................................................................
   1    -45.6111003 -0.456111E+02  0.647E-02    9.03       0.0  T
   2    -45.6111006 -0.363811E-06  0.483E-02    9.03       1.0  T
   3    -45.6111010 -0.335213E-06  0.431E-03    9.04       4.8  T
   4    -45.6111010 -0.377199E-07  0.170E-03    9.04      12.3  T
   5    -45.6111010 -0.272129E-08  0.484E-04    9.04      43.0  T
   6    -45.6111010 -0.235417E-09  0.291E-04    9.04      71.7  T
speedup  0.89
cpu  time for SCC    0.00 s
wall time for SCC    0.00 s
speedup  0.96
cpu  time for grad    0.01 s
wall time for grad    0.01 s
 E :    -45.36314552  G :  0.001573    pred/act E change: -0.645D-05 -0.147D-04
Maxdispl :   0.0273   ||displ|| :   0.0412   Lambda : -0.805D-05
Largest |displ|/coords:  0.0273 (   6)  0.0187 (   7)  0.0134 (   5)
................................................................................
.............................. CYCLE   58 ......................................
................................................................................
   1    -45.6115046 -0.456115E+02  0.211E-02    9.04       0.0  T
   2    -45.6115047 -0.561994E-07  0.156E-02    9.04       1.3  T
   3    -45.6115047 -0.366319E-07  0.157E-03    9.04      13.3  T
   4    -45.6115047 -0.800206E-08  0.542E-04    9.04      38.5  T
   5    -45.6115047 -0.187555E-09  0.161E-04    9.04     129.8  T
speedup  1.08
cpu  time for SCC    0.00 s
wall time for SCC    0.00 s
speedup  1.03
cpu  time for grad    0.01 s
wall time for grad    0.01 s
 E :    -45.36314988  G :  0.001208    pred/act E change: -0.135D-04 -0.436D-05
Maxdispl :   0.0447   ||displ|| :   0.0725   Lambda : -0.580D-05
Largest |displ|/coords:  0.0447 (   6)  0.0389 (   5)  0.0228 (   4)
................................................................................
.............................. CYCLE   59 ......................................
................................................................................
   1    -45.6112931 -0.456113E+02  0.396E-02    9.03       0.0  T
   2    -45.6112932 -0.123112E-06  0.295E-02    9.03       1.0  T
   3    -45.6112933 -0.127899E-06  0.220E-03    9.04       9.5  T
   4    -45.6112933 -0.941297E-08  0.959E-04    9.04      21.7  T
   5    -45.6112933 -0.774421E-09  0.285E-04    9.04      73.2  T
speedup  0.00
cpu  time for SCC    0.00 s
wall time for SCC    0.00 s
speedup  0.09
cpu  time for grad    0.00 s
wall time for grad    0.01 s
 E :    -45.36315345  G :  0.001247    pred/act E change: -0.403D-05 -0.357D-05
Maxdispl :   0.0292   ||displ|| :   0.0479   Lambda : -0.606D-05
Largest |displ|/coords:  0.0292 (   6)  0.0222 (   5)  0.0187 (   4)
................................................................................
.............................. CYCLE   60 ......................................
................................................................................
   1    -45.6115588 -0.456116E+02  0.291E-02    9.04       0.0  T
   2    -45.6115589 -0.106030E-06  0.217E-02    9.04       1.0  T
   3    -45.6115590 -0.110957E-06  0.192E-03    9.04      10.8  T
   4    -45.6115590 -0.755352E-08  0.746E-04    9.04      27.9  T
   5    -45.6115590 -0.527983E-09  0.257E-04    9.04      81.2  T
speedup  1.05
cpu  time for SCC    0.00 s
wall time for SCC    0.00 s
speedup  1.02
cpu  time for grad    0.01 s
wall time for grad    0.01 s
 E :    -45.36315678  G :  0.000735    pred/act E change: -0.292D-05 -0.333D-05
Maxdispl :   0.0169   ||displ|| :   0.0275   Lambda : -0.192D-05
Largest |displ|/coords:  0.0169 (   5)  0.0143 (   6)  0.0079 (   7)
................................................................................
.............................. CYCLE   61 ......................................
................................................................................
   1    -45.6115345 -0.456115E+02  0.160E-02    9.04       0.0  T
   2    -45.6115345 -0.224734E-07  0.120E-02    9.04       1.7  T
   3    -45.6115345 -0.236699E-07  0.942E-04    9.04      22.1  T
   4    -45.6115345 -0.155618E-08  0.377E-04    9.04      55.3  T
speedup  1.00
cpu  time for SCC    0.00 s
wall time for SCC    0.00 s
speedup  0.99
cpu  time for grad    0.01 s
wall time for grad    0.01 s
 E :    -45.36315839  G :  0.000635    pred/act E change: -0.304D-05 -0.161D-05
Maxdispl :   0.0392   ||displ|| :   0.0622   Lambda : -0.503D-05
Largest |displ|/coords:  0.0392 (   5)  0.0231 (   6)  0.0214 (   2)
................................................................................
.............................. CYCLE   62 ......................................
................................................................................
   1    -45.6115463 -0.456115E+02  0.366E-02    9.04       0.0  T
   2    -45.6115464 -0.129733E-06  0.273E-02    9.04       1.0  T
   3    -45.6115465 -0.124200E-06  0.269E-03    9.04       7.7  T
   4    -45.6115465 -0.116083E-07  0.104E-03    9.04      20.0  T
   5    -45.6115465 -0.899192E-09  0.301E-04    9.04      69.3  T
   6    -45.6115465 -0.764828E-10  0.173E-04    9.04     120.8  T
speedup  1.11
cpu  time for SCC    0.00 s
wall time for SCC    0.00 s
speedup  1.03
cpu  time for grad    0.01 s
wall time for grad    0.01 s
 E :    -45.36316148  G :  0.000785    pred/act E change: -0.963D-06 -0.309D-05
Maxdispl :   0.0199   ||displ|| :   0.0326   Lambda : -0.152D-05
Largest |displ|/coords:  0.0199 (   5)  0.0135 (   2)  0.0116 (   6)
................................................................................
.............................. CYCLE   63 ......................................
................................................................................
   1    -45.6114785 -0.456115E+02  0.195E-02    9.04       0.0  T
   2    -45.6114786 -0.371399E-07  0.146E-02    9.04       1.4  T
   3    -45.6114786 -0.364522E-07  0.136E-03    9.04      15.3  T
   4    -45.6114786 -0.340997E-08  0.486E-04    9.04      42.9  T
   5    -45.6114786 -0.223928E-09  0.153E-04    9.04     136.2  T
speedup  1.05
cpu  time for SCC    0.00 s
wall time for SCC    0.00 s
speedup  1.02
cpu  time for grad    0.01 s
wall time for grad    0.01 s
 E :    -45.36316262  G :  0.000807    pred/act E change: -0.253D-05 -0.113D-05
Maxdispl :   0.0183   ||displ|| :   0.0339   Lambda : -0.190D-05
Largest |displ|/coords:  0.0183 (   5)  0.0159 (   2)  0.0127 (   1)
................................................................................
.............................. CYCLE   64 ......................................
................................................................................
   1    -45.6115433 -0.456115E+02  0.213E-02    9.04       0.0  T
   2    -45.6115433 -0.639528E-07  0.158E-02    9.04       1.3  T
   3    -45.6115434 -0.540398E-07  0.188E-03    9.04      11.1  T
   4    -45.6115434 -0.735351E-08  0.617E-04    9.04      33.8  T
   5    -45.6115434 -0.399602E-09  0.200E-04    9.04     104.4  T
speedup  1.03
cpu  time for SCC    0.00 s
wall time for SCC    0.00 s
speedup  1.00
cpu  time for grad    0.01 s
wall time for grad    0.01 s
 E :    -45.36316379  G :  0.000659    pred/act E change: -0.759D-06 -0.117D-05
Maxdispl :   0.0212   ||displ|| :   0.0339   Lambda : -0.105D-05
Largest |displ|/coords:  0.0212 (   5)  0.0144 (   6)  0.0125 (   2)
................................................................................
.............................. CYCLE   65 ......................................
................................................................................
   1    -45.6114064 -0.456114E+02  0.215E-02    9.04       0.0  T
   2    -45.6114065 -0.518394E-07  0.161E-02    9.04       1.3  T
   3    -45.6114065 -0.464044E-07  0.140E-03    9.04      14.9  T
   4    -45.6114066 -0.615035E-08  0.530E-04    9.04      39.4  T
   5    -45.6114066 -0.247205E-09  0.181E-04    9.04     115.5  T
speedup  1.05
cpu  time for SCC    0.00 s
wall time for SCC    0.00 s
speedup  1.02
cpu  time for grad    0.01 s
wall time for grad    0.01 s
 E :    -45.36316428  G :  0.000617    pred/act E change: -0.950D-06 -0.498D-06
Maxdispl :   0.0040   ||displ|| :   0.0085   Lambda : -0.881D-06
Largest |displ|/coords:  0.0040 (   4)  0.0035 (   6)  0.0029 (  13)
................................................................................
.............................. CYCLE   66 ......................................
................................................................................
   1    -45.6115783 -0.456116E+02  0.618E-03    9.04       0.0  T
   2    -45.6115783 -0.160014E-07  0.455E-03    9.04       4.6  T
   3    -45.6115783 -0.762409E-08  0.771E-04    9.04      27.0  T
   4    -45.6115783 -0.240084E-08  0.255E-04    9.04      81.7  T
speedup  1.00
cpu  time for SCC    0.00 s
wall time for SCC    0.00 s
speedup  1.00
cpu  time for grad    0.01 s
wall time for grad    0.01 s
 E :    -45.36316480  G :  0.000321    pred/act E change: -0.527D-06 -0.511D-06
Maxdispl :   0.0024   ||displ|| :   0.0058   Lambda : -0.333D-06
Largest |displ|/coords:  0.0024 (   5)  0.0022 (   6)  0.0019 (   8)
................................................................................
.............................. CYCLE   67 ......................................
[...]
................................................................................
.............................. CYCLE  109 ......................................
................................................................................
   1    -45.6119633 -0.456120E+02  0.482E-02    9.03       0.0  T
   2    -45.6119637 -0.434385E-06  0.360E-02    9.03       1.0  T
   3    -45.6119640 -0.242667E-06  0.590E-03    9.03       3.5  T
   4    -45.6119640 -0.682794E-07  0.187E-03    9.03      11.1  T
   5    -45.6119640 -0.190047E-08  0.246E-04    9.03      84.6  T
   6    -45.6119640 -0.285425E-10  0.165E-04    9.03     126.6  T
speedup  0.91
cpu  time for SCC    0.00 s
wall time for SCC    0.00 s
speedup  0.96
cpu  time for grad    0.01 s
wall time for grad    0.01 s
 E :    -45.36319914  G :  0.000900    pred/act E change: -0.544D-06 -0.845D-06
Maxdispl :   0.0194   ||displ|| :   0.0429   Lambda : -0.272D-05
Largest |displ|/coords:  0.0194 (   8)  0.0161 (  17)  0.0156 (  10)
................................................................................
.............................. CYCLE  110 ......................................
................................................................................
   1    -45.6121207 -0.456121E+02  0.331E-02    9.04       0.0  T
   2    -45.6121209 -0.227177E-06  0.245E-02    9.04       1.0  T
   3    -45.6121210 -0.881262E-07  0.400E-03    9.04       5.2  T
   4    -45.6121211 -0.391469E-07  0.120E-03    9.04      17.3  T
   5    -45.6121211 -0.994440E-09  0.208E-04    9.04     100.3  T
   6    -45.6121211 -0.435492E-10  0.135E-04    9.04     154.1  T
speedup  1.11
cpu  time for SCC    0.00 s
wall time for SCC    0.00 s
speedup  1.03
cpu  time for grad    0.01 s
wall time for grad    0.01 s
 E :    -45.36320030  G :  0.000787    pred/act E change: -0.750D-06 -0.116D-05
Maxdispl :   0.0106   ||displ|| :   0.0253   Lambda : -0.136D-05
Largest |displ|/coords:  0.0106 (  30)  0.0077 (  31)  0.0075 (   1)
................................................................................
.............................. CYCLE  111 ......................................
................................................................................
   1    -45.6119943 -0.456120E+02  0.264E-02    9.04       0.0  T
   2    -45.6119944 -0.137611E-06  0.198E-02    9.03       1.1  T
   3    -45.6119945 -0.790326E-07  0.306E-03    9.04       6.8  T
   4    -45.6119945 -0.226497E-07  0.970E-04    9.04      21.5  T
   5    -45.6119945 -0.554444E-09  0.142E-04    9.04     146.5  T
speedup  0.81
cpu  time for SCC    0.00 s
wall time for SCC    0.00 s
speedup  0.93
cpu  time for grad    0.01 s
wall time for grad    0.01 s
 E :    -45.36320127  G :  0.000852    pred/act E change: -0.136D-05 -0.973D-06
Maxdispl :   0.0095   ||displ|| :   0.0191   Lambda : -0.233D-05
Largest |displ|/coords:  0.0095 (   2)  0.0065 (   8)  0.0048 (  18)
................................................................................
.............................. CYCLE  112 ......................................
................................................................................
   1    -45.6118735 -0.456119E+02  0.170E-02    9.03       0.0  T
   2    -45.6118735 -0.660725E-07  0.129E-02    9.03       1.6  T
   3    -45.6118736 -0.521430E-07  0.153E-03    9.04      13.6  T
   4    -45.6118736 -0.968826E-08  0.514E-04    9.04      40.6  T
   5    -45.6118736 -0.304468E-09  0.148E-04    9.04     140.6  T
speedup  1.05
cpu  time for SCC    0.00 s
wall time for SCC    0.00 s
speedup  1.02
cpu  time for grad    0.01 s
wall time for grad    0.01 s
 E :    -45.36320250  G :  0.000637    pred/act E change: -0.679D-06 -0.123D-05
Maxdispl :   0.0074   ||displ|| :   0.0212   Lambda : -0.648D-06
Largest |displ|/coords:  0.0074 (  30)  0.0071 (  17)  0.0070 (  11)

generating ANC from model Hessian ...
 Shifting diagonal of input Hessian by   4.988819523838730E-003
 Lowest  eigenvalues of input Hessian
   -0.000000   -0.000000    0.000000    0.000000    0.000000    0.000000
    0.005000    0.005204    0.005782    0.006290    0.006767    0.007019
    0.007585    0.008680    0.010553    0.010924    0.012488    0.015636
 Highest eigenvalues
    1.367597    1.392794    1.407370    2.579070    3.414152    3.660926
 
cpu  time for ANC gen    0.02 s
wall time for ANC gen    0.02 s
................................................................................
.............................. CYCLE  113 ......................................
................................................................................
   1    -45.6118368 -0.456118E+02  0.183E-02    9.04       0.0  T
   2    -45.6118369 -0.844084E-07  0.137E-02    9.04       1.5  T
   3    -45.6118369 -0.252881E-07  0.231E-03    9.04       9.0  T
   4    -45.6118369 -0.171280E-07  0.497E-04    9.04      41.9  T
   5    -45.6118369 -0.240270E-09  0.104E-04    9.04     200.1  T
speedup  1.08
cpu  time for SCC    0.00 s
wall time for SCC    0.00 s
speedup  1.03
cpu  time for grad    0.01 s
wall time for grad    0.01 s
 E :    -45.36320303  G :  0.000787    pred/act E change:  0.000D+00 -0.529D-06
Maxdispl :   0.0016   ||displ|| :   0.0037   Lambda : -0.605D-06
Largest |displ|/coords:  0.0016 (   1)  0.0015 (   4)  0.0015 (   3)
................................................................................
.............................. CYCLE  114 ......................................
................................................................................
   1    -45.6118994 -0.456119E+02  0.238E-03    9.04       0.0  T
   2    -45.6118994 -0.328840E-08  0.171E-03    9.04      12.2  T
   3    -45.6118994 -0.183093E-08  0.384E-04    9.04      54.3  T
   4    -45.6118994 -0.299472E-09  0.143E-04    9.04     145.6  T
speedup  1.00
cpu  time for SCC    0.00 s
wall time for SCC    0.00 s
speedup  1.00
cpu  time for grad    0.01 s
wall time for grad    0.01 s
 E :    -45.36320350  G :  0.000369    pred/act E change:  0.000D+00 -0.463D-06
Maxdispl :   0.0037   ||displ|| :   0.0071   Lambda : -0.494D-06
Largest |displ|/coords:  0.0037 (   2)  0.0030 (   1)  0.0024 (   9)
................................................................................
.............................. CYCLE  115 ......................................
................................................................................
   1    -45.6119554 -0.456120E+02  0.414E-03    9.04       0.0  T
   2    -45.6119554 -0.599253E-08  0.297E-03    9.04       7.0  T
   3    -45.6119554 -0.378223E-08  0.582E-04    9.04      35.8  T
   4    -45.6119554 -0.504208E-09  0.195E-04    9.04     106.9  T
speedup  0.97
cpu  time for SCC    0.00 s
wall time for SCC    0.00 s
speedup  0.88
cpu  time for grad    0.01 s
wall time for grad    0.01 s
 E :    -45.36320382  G :  0.000263    pred/act E change: -0.302D-06 -0.322D-06
Maxdispl :   0.0035   ||displ|| :   0.0063   Lambda : -0.200D-06
Largest |displ|/coords:  0.0035 (   2)  0.0026 (   4)  0.0024 (   1)
................................................................................
.............................. CYCLE  116 ......................................
................................................................................
   1    -45.6119602 -0.456120E+02  0.380E-03    9.04       0.0  T
   2    -45.6119602 -0.307971E-08  0.276E-03    9.04       7.5  T
   3    -45.6119602 -0.247595E-08  0.499E-04    9.04      41.8  T
   4    -45.6119602 -0.262631E-09  0.151E-04    9.04     138.4  T
speedup  1.00
cpu  time for SCC    0.00 s
wall time for SCC    0.00 s
speedup  1.00
cpu  time for grad    0.01 s
wall time for grad    0.01 s
 E :    -45.36320397  G :  0.000272    pred/act E change: -0.247D-06 -0.151D-06
Maxdispl :   0.0067   ||displ|| :   0.0101   Lambda : -0.253D-06
Largest |displ|/coords:  0.0067 (   2)  0.0035 (   4)  0.0033 (   1)
................................................................................
.............................. CYCLE  117 ......................................
................................................................................
   1    -45.6119393 -0.456119E+02  0.594E-03    9.04       0.0  T
   2    -45.6119393 -0.735243E-08  0.433E-03    9.04       4.8  T
   3    -45.6119393 -0.635806E-08  0.783E-04    9.04      26.6  T
   4    -45.6119393 -0.644526E-09  0.244E-04    9.04      85.4  T
speedup  1.00
cpu  time for SCC    0.00 s
wall time for SCC    0.00 s
speedup  0.98
cpu  time for grad    0.01 s
wall time for grad    0.01 s
 E :    -45.36320414  G :  0.000218    pred/act E change: -0.100D-06 -0.167D-06
Maxdispl :   0.0043   ||displ|| :   0.0061   Lambda : -0.113D-06
Largest |displ|/coords:  0.0043 (   2)  0.0022 (   4)  0.0016 (   8)
................................................................................
.............................. CYCLE  118 ......................................
................................................................................
   1    -45.6119097 -0.456119E+02  0.397E-03    9.04       0.0  T
   2    -45.6119097 -0.297929E-08  0.294E-03    9.04       7.1  T
   3    -45.6119097 -0.283798E-08  0.462E-04    9.04      45.2  T
   4    -45.6119097 -0.282085E-09  0.112E-04    9.04     185.9  T
speedup  1.00
cpu  time for SCC    0.00 s
wall time for SCC    0.00 s
speedup  1.00
cpu  time for grad    0.01 s
wall time for grad    0.01 s
 E :    -45.36320422  G :  0.000176    pred/act E change: -0.127D-06 -0.814D-07
Maxdispl :   0.0055   ||displ|| :   0.0073   Lambda : -0.117D-06
Largest |displ|/coords:  0.0055 (   2)  0.0025 (   4)  0.0018 (   5)

   *** GEOMETRY OPTIMIZATION CONVERGED AFTER 118 ITERATIONS ***

------------------------------------------------------------------------
 total energy gain (kcal):     -0.0007
------------------------------------------------------------------------
================
 final structure:
================
$coord
       -3.93242742703246       -1.25501589659748       -1.39047606748325      S 
       -2.96535119306024       -3.03841433479655        0.48851033878388      O 
       -5.65359143436303        0.56559664376505       -0.33510385693106      O 
       -1.84187663337944       -0.14831008491372       -2.81694078873230      O 
       -5.51486793649683       -2.86875644600028       -3.36639943448005      O 
       -7.21692459708883       -2.50294402083588       -2.91048943758625      H 
        1.36732880511085        0.31374066231970        4.18909847704640      O 
        0.25486780777789       -0.11147721095499        5.55508151973569      H 
        2.98969124769061       -1.31324947413213       -2.71653597686578      O 
        1.24930082296053       -0.91937755186690       -3.23352224688058      H 
        3.67084209782928        0.30364394723245       -2.00528850749874      H 
        1.66061695968037       -3.51240006632756        1.16788072971926      O 
        1.81945901383671       -2.12836347741609        2.47624732746380      H 
       -0.28135196010739       -3.55620204285358        0.83649644921875      H 
        2.43520067034751       -2.69398406113748       -0.60306026178590      H 
       -1.34363856754264        3.01952464234066        0.95268162563582      O 
       -1.32623578875214        2.05551634222349       -0.62974147674058      H 
       -3.12421889108842        3.04077549069476        1.35160552956086      H 
        0.38897600601496        1.43729207637780        3.05271998798753      H 
        4.30008576458685        2.91125673019017       -0.31562450719686      N 
        5.59170236339970        4.12227950414212       -1.03715361568455      H 
        4.84444009474676        2.44216039190371        1.45886250784599      H 
        2.62797273713376        3.83670821774220       -0.16884827733274      H 
$end
 
 Bond Distances (Angstroems)
 ---------------------------
S1-O2=1.4633         S1-O3=1.4386         S1-O4=1.4617         S1-O5=1.5886         O2-S1=1.4633         O3-S1=1.4386         
O4-S1=1.4617         O5-S1=1.5886         O5-H6=0.9523         H6-O5=0.9523         O7-H8=0.9590         O7-H19=0.9915        
H8-O7=0.9590         O9-H10=0.9831        O9-H11=1.0018        H10-O9=0.9831        H11-O9=1.0018        O12-H13=1.0114       
O12-H14=1.0428       O12-H15=1.1108       H13-O12=1.0114       H14-O12=1.0428       H15-O12=1.1108       O16-H17=0.9806       
O16-H18=0.9657       H17-O16=0.9806       H18-O16=0.9657       H19-O7=0.9915        N20-H21=1.0117       N20-H22=1.0131       
N20-H23=1.0143       H21-N20=1.0117       H22-N20=1.0131       H23-N20=1.0143       
 N  H  Rav=1.0130 sigma=0.0010  Rmin=1.0117  Rmax=1.0143     3
 O  H  Rav=0.9999 sigma=0.0448  Rmin=0.9523  Rmax=1.1108    10
 S  O  Rav=1.4881 sigma=0.0589  Rmin=1.4386  Rmax=1.5886     4
 
 selected bond angles (degree)
 --------------------
O3-S1-O2=112.93                O4-S1-O2=110.16                O4-S1-O3=114.29                O5-S1-O2=106.55                
O5-S1-O3=106.37                O5-S1-O4=105.93                H6-O5-S1=102.86                H19-O7-H8=106.10               
H11-O9-H10=105.10              
 
 selected dihedral angles (degree)
 ---------------------------------
H6-O5-S1-O2=104.02            H6-O5-S1-O3=343.30            H6-O5-S1-O4=221.32            
 
 CMA Distance (Angstroems)
 ---------------------------
R(CMA):  3.3402

========================================================================
 FINAL SINGLEPOINT CALCULATION ON OPTIMIZED GEOMETRY
========================================================================

 Ncao       : 59
 Nao        : 58
 Nshell     : 34
 Nel        : 72
 T(el)      :   300.0
 intcut     :    25.0
 scfconv/Eh :  0.100E-05
   qconv/e  :  0.100E-03
 intneglect :  0.100E-07
 broydamp   :      0.250
 iter      E             dE          RMSdq      gap      omega  full diag
   1    -45.6119097 -0.456119E+02  0.469E-05    9.04       0.0  T
   2    -45.6119097 -0.175504E-11  0.287E-05    9.04     726.1  T
   3    -45.6119097 -0.760281E-12  0.641E-06    9.04    3255.0  T
speedup  0.87
cpu  time for SCC    0.00 s
wall time for SCC    0.00 s

   *** convergence criteria satisfied after 3 iterations ***

          eigenvalues
 #    :          24         25         26         27         28         29         30         31
 occ. :        2.000      2.000      2.000      2.000      2.000      2.000      2.000      2.000
 eps  :       -13.991    -13.780    -13.240    -12.718    -12.542    -12.404    -12.347    -12.294
 #    :          32         33         34         35         36         37         38         39
 occ. :        2.000      2.000      2.000      2.000      2.000      0.000      0.000      0.000
 eps  :       -12.154    -11.996    -11.896    -11.673    -11.443     -2.402     -0.584     -0.357
 #    :          40         41         42         43         44         45         46         47
 occ. :        0.000      0.000      0.000      0.000      0.000      0.000      0.000      0.000
 eps  :         0.609      1.063      1.475      1.853      3.410      4.770      4.894      5.423


   #   Z            q   n(s)   n(p)   n(d)      C6AA      α(0)
   1  16 S      1.667  1.586  1.790  0.957    89.529    15.925
   2   8 O     -0.734  1.766  4.968  0.000    29.611     7.297
   3   8 O     -0.731  1.768  4.963  0.000    29.570     7.291
   4   8 O     -0.749  1.768  4.981  0.000    30.078     7.353
   5   8 O     -0.589  1.750  4.839  0.000    24.895     6.736
   6   1 H      0.347  0.653  0.000  0.000     0.588     1.200
   7   8 O     -0.612  1.748  4.863  0.000    25.466     6.811
   8   1 H      0.293  0.707  0.000  0.000     0.741     1.352
   9   8 O     -0.592  1.756  4.836  0.000    24.929     6.742
  10   1 H      0.339  0.661  0.000  0.000     0.614     1.231
  11   1 H      0.333  0.667  0.000  0.000     0.630     1.247
  12   8 O     -0.525  1.740  4.785  0.000    23.382     6.531
  13   1 H      0.371  0.629  0.000  0.000     0.543     1.158
  14   1 H      0.383  0.617  0.000  0.000     0.514     1.124
  15   1 H      0.387  0.613  0.000  0.000     0.501     1.108
  16   8 O     -0.629  1.741  4.887  0.000    25.880     6.866
  17   1 H      0.318  0.682  0.000  0.000     0.669     1.285
  18   1 H      0.310  0.690  0.000  0.000     0.692     1.307
  19   1 H      0.340  0.660  0.000  0.000     0.613     1.231
  20   7 N     -0.445  1.365  4.080  0.000    31.661     8.357
  21   1 H      0.158  0.842  0.000  0.000     1.351     1.821
  22   1 H      0.173  0.827  0.000  0.000     1.254     1.754
  23   1 H      0.187  0.813  0.000  0.000     1.176     1.699

 Mol. C6AA /au·bohr⁶  :       4523.094967
 Mol. C8AA /au·bohr⁸  :      99499.586886
 Mol. α(0) /au        :         97.424350

 
 Wiberg/Mayer (AO) data. WBOs > 0.1 written file <wbo>
 largest (>0.05) Wiberg bond orders for each atom
           total WBO             WBO to atom ...
     1  S   4.866    O    3 1.385    O    4 1.278    O    2 1.271    O    5 0.890
     2  O   1.754    S    1 1.271    H   14 0.149    O    4 0.110    O    3 0.107    O    5 0.069
     3  O   1.718    S    1 1.385    O    4 0.108    O    2 0.107    O    5 0.082
     4  O   1.727    S    1 1.278    O    2 0.110    O    3 0.108    O    5 0.063    H   17 0.061    H   10 0.053
     5  O   1.972    S    1 0.890    H    6 0.863    O    3 0.082    O    2 0.069    O    4 0.063
     6  H   0.880    O    5 0.863
     7  O   1.909    H    8 0.911    H   19 0.803    H   13 0.109
     8  H   0.914    O    7 0.911
     9  O   2.044    H   10 0.827    H   11 0.784    H   15 0.270    O   12 0.083
    10  H   0.885    O    9 0.827    O    4 0.053
    11  H   0.889    O    9 0.784    N   20 0.104
    12  O   2.216    H   13 0.751    H   14 0.695    H   15 0.578    O    9 0.083
    13  H   0.863    O   12 0.751    O    7 0.109
    14  H   0.853    O   12 0.695    O    2 0.149
    15  H   0.850    O   12 0.578    O    9 0.270
    16  O   1.877    H   18 0.882    H   17 0.828    H   19 0.078
    17  H   0.899    O   16 0.828    O    4 0.061
    18  H   0.904    O   16 0.882
    19  H   0.885    O    7 0.803    O   16 0.078
    20  N   3.054    H   21 0.972    H   22 0.966    H   23 0.955    H   11 0.104
    21  H   0.975    N   20 0.972
    22  H   0.970    N   20 0.966
    23  H   0.965    N   20 0.955
 MOs/occ written to file <molden.input>
 
molecular dipole:
                 x           y           z       tot (Debye)
 q only:        1.517       0.330       0.811
   full:        0.559       0.793       0.828       3.242
molecular quadrupole (traceless):
                xx          xy          yy          xz          yz          zz
 q only:        1.435       4.688      -1.456       0.213      -1.748       0.021
  q+dip:        3.964       9.454      -3.410       2.252      -1.420      -0.555
   full:        4.540       9.664      -3.867       2.414      -1.309      -0.672

SCC energy    :     -45.6119097
rep           :       0.2485218
ES            :       0.2174856
AES           :      -0.0615166
AXC           :      -0.0060475
disp          :      -0.0168043
XB            :       0.0000000
fix           :       0.0000000
total E       :     -45.3632042
atomizationE  :       4.4462667     2790.07
(atE without considering molecular charge,
 total energy contains solvation terms)
H-L gap (eV)  :          9.0417
optimized geometry written to: xtbopt.xyz


------------------------------------------------------------------------
 * finished run on 2019/09/16 at 11:44:39.924     
------------------------------------------------------------------------
 total:
 * wall-time:     0 d,  0 h,  0 min,  2.299 sec
 *  cpu-time:     0 d,  0 h,  0 min,  2.259 sec
 * ratio c/w:     0.983 speedup
 SCF:
 * wall-time:     0 d,  0 h,  0 min,  0.117 sec
 *  cpu-time:     0 d,  0 h,  0 min,  0.113 sec
 * ratio c/w:     0.970 speedup
 ANC optimizer:
 * wall-time:     0 d,  0 h,  0 min,  2.159 sec
 *  cpu-time:     0 d,  0 h,  0 min,  2.126 sec
 * ratio c/w:     0.985 speedup

