      -----------------------------------------------------------      
     |                   =====================                   |     
     |                           x T B                           |     
     |                   =====================                   |     
     |                         S. Grimme                         |     
     |          Mulliken Center for Theoretical Chemistry        |     
     |                    University of Bonn                     |     
     |                 Version 6.0.1 (SAW181210)                 |     
      -----------------------------------------------------------      

   This program is distributed in the hope that it will be useful,
   but WITHOUT ANY WARRANTY; without even the implied warranty of
   MERCHANTABILITY or FITNESS FOR A PARTICULAR PURPOSE.
   
   FOR NON-COMMERCIAL, ACADEMIA USE ONLY.
   
   Cite this work as:
   S. Grimme, C. Bannwarth, P. Shushkov, J. Comput. Theory Chem., 2017,
   13, 1989-2009.
   C. Bannwarth, S. Ehlert and S. Grimme., ChemRxiv, 2018, preprint.
   http://doi.org/10.26434/chemrxiv.7246238.v1
   
   for sTDA-xTB:
   S. Grimme and C. Bannwarth, J. Chem. Phys., 2016, 145, 054103.
   
   in the mass-spec context:
   V. Asgeirsson, C. Bauer and S. Grimme, Chem. Sci., 2017, 8, 4879.
   
   if GBSA is used:
   P. Shushkov, F. März and S. Grimme, unpublished.
   
   for ANC optimizer:
   S. Grimme, unpublished.
   Rational Function algorithm used in ANCopt:
   F. Eckert, P. Pulay, H.-J. Werner, J. Comput. Chem., 1997, 18, 1473.
   
   with help from (in alphabetical order)
   C. Bannwarth, F. Bohle, G. Brandenburg, E. Caldeweyher, M. Checinski,
   S. Dohm, S. Ehlert, S. Ehrlich, F. März, H. Neugebauer, J. Pisarek,
   P. Pracht, P. Shushkov, and S. Spicher.
   
 * started run on 2019/09/16 at 11:47:42.375     
========================================================================
 # omp threads = 1
========================================================================
number of atoms            : 23
number of electrons        : 72
charge                     : 0
spin                       : .0
first test random number   : .3700

########################################################################
# WARNING! Please study the warnings concerning your input carefully
#  - XTBPATH is not set, using XTBHOME instead
#  - the use of '-opt' is discouraged, please use '--opt' next time
#  - the use of '-chrg' is discouraged, please use '--chrg' next time
#  - the use of '-uhf' is discouraged, please use '--uhf' next time
########################################################################

           ------------------------------------------------- 
          |                 G F N 2 - x T B                 |
          | Geometry, Frequencies, Noncovalent interactions |
          |            JCTC 2018 parametrisation            |
           ------------------------------------------------- 
      method parameters     
 k(s)        :  1.8500
 k(p)        :  2.2300
 k(d)        :  2.2300
 k(f)        :  2.0000
 kEN (H0ij)  : -2.0000
 D4 a1       :  0.5200
 D4 a2       :  5.0000
 D4 s6       :  1.0000
 D4 s8       :  2.7000
 D4 s9       :  5.0000
 alphaj      :  2.0000


            Z     q(EN)     CN     RAES       Cart. coordinates
     1  S   6.0    0.64    4.26    4.17    -0.42293     1.36254    -4.34482
     2  O   6.0   -0.31    1.17    1.80    -1.75748     3.50618    -3.09907
     3  O   6.0   -0.31    1.22    1.80     2.33256     1.52157    -3.78794
     4  O   6.0   -0.31    1.24    1.80    -1.43962    -1.07316    -3.36410
     5  O   6.0   -0.25    2.08    1.84    -0.82163     1.49375    -7.09006
     6  H   1.0    0.15    1.21    1.47    -0.16684     3.06283    -7.72277
     7  O   6.0   -0.38    1.64    1.81     0.36904     0.97162     3.35469
     8  H   1.0    0.17    0.95    1.42     0.35897     1.15663     5.21195
     9  O   6.0   -0.27    1.98    1.82    -1.02167     5.31688     1.67100
    10  H   1.0    0.17    1.06    1.44    -0.86628     3.71203     2.51653
    11  H   1.0    0.17    1.02    1.43    -1.72953     4.93411     0.03790
    12  O   6.0   -0.23    2.92    2.59    -2.17321    -2.18248     1.32914
    13  H   1.0    0.16    1.22    1.47    -1.25600    -0.85878     2.27592
    14  H   1.0    0.16    1.08    1.44    -2.17144    -1.85644    -0.51034
    15  H   1.0    0.12    1.07    1.44    -1.54585    -3.89493     1.73588
    16  O   6.0   -0.22    2.92    2.58     3.43234     3.06194     0.74745
    17  H   1.0    0.16    1.19    1.46     2.43220     2.00517     1.91911
    18  H   1.0    0.15    1.07    1.44     3.43304     2.37375    -0.98933
    19  H   1.0    0.13    0.97    1.43     2.89690     4.85163     0.78971
    20  N   5.0   -0.23    3.04    1.93    -0.22494    -6.86894     2.25252
    21  H   1.0    0.11    0.99    1.43     0.49449    -7.60640     0.62475
    22  H   1.0    0.10    0.99    1.43    -1.40683    -8.21592     2.95950
    23  H   1.0    0.10    0.99    1.43     1.25473    -6.77358     3.48238

  Z AO/shell   Hii/eV     exponent
  1     Wed Apr 25 08:07:45 CEST 2018   EN: 2.200 GM2: 0.406  GM3: 0.0800  RAES: 1.40
     1s    -10.707211    1.230000
  7     Wed Apr 25 08:07:45 CEST 2018   EN: 3.040 GM2: 0.461  GM3:-0.0640  RAES: 1.90
     2s    -16.686243    2.339881
     2p    -12.523956    2.014332
  8     Wed Apr 25 08:07:45 CEST 2018   EN: 3.440 GM2: 0.452  GM3:-0.0517  RAES: 1.80
     2s    -20.229985    2.439742
     2p    -15.503117    2.137023
 16     Tue Apr 24 11:44:34 CEST 2018   EN: 2.580 GM2: 0.340  GM3:-0.0502  RAES: 3.10
     3s    -20.029654    1.981333
     3p    -11.377694    2.025643
     3d     -0.420282    1.702555
 no old-style atom pair restraining (fixing) potential

molecular fragmentation (1/2 indicates fragments):
11111122222222222222222
# atoms in fragment 1/2:     6    17
 fragment masses (1/2) :       97.07       90.10
CMA distance (Bohr)    :   6.362
constraining FC (au)   :  0.0500
           ------------------------------------------------- 
          |        Self-Consistent Charge Iterations        |
           ------------------------------------------------- 

 Ncao       : 59
 Nao        : 58
 Nshell     : 34
 Nel        : 72
 T(el)      :   300.0
 intcut     :    25.0
 scfconv/Eh :  0.100E-05
   qconv/e  :  0.100E-03
 intneglect :  0.100E-07
 broydamp   :      0.250
 iter      E             dE          RMSdq      gap      omega  full diag
   1    -45.4526516 -0.454527E+02  0.719E+00   10.30       0.0  T
   2    -45.4978583 -0.452067E-01  0.521E+00    9.80       1.0  T
   3    -45.5317311 -0.338728E-01  0.143E+00    7.65       1.0  T
   4    -45.5366276 -0.489651E-02  0.582E-01    8.04       1.0  T
   5    -45.5372066 -0.578986E-03  0.335E-01    8.05       1.0  T
   6    -45.5376473 -0.440793E-03  0.140E-01    8.15       1.0  T
   7    -45.5377433 -0.959730E-04  0.527E-02    8.14       1.0  T
   8    -45.5377566 -0.132584E-04  0.292E-02    8.13       1.0  T
   9    -45.5377602 -0.359280E-05  0.142E-02    8.14       1.5  T
  10    -45.5377613 -0.116920E-05  0.227E-03    8.15       9.2  T
  11    -45.5377614 -0.117244E-07  0.124E-03    8.15      16.8  T
  12    -45.5377614 -0.614423E-08  0.537E-04    8.15      38.8  T
  13    -45.5377614 -0.153388E-08  0.145E-04    8.15     143.5  T
speedup  1.04
cpu  time for SCC    0.01 s
wall time for SCC    0.01 s

   *** convergence criteria satisfied after 13 iterations ***

          eigenvalues
 #    :          24         25         26         27         28         29         30         31
 occ. :        2.000      2.000      2.000      2.000      2.000      2.000      2.000      2.000
 eps  :       -12.722    -12.635    -12.261    -12.206    -11.755    -11.597    -11.140    -10.951
 #    :          32         33         34         35         36         37         38         39
 occ. :        2.000      2.000      2.000      2.000      2.000      0.000      0.000      0.000
 eps  :       -10.710    -10.549    -10.477    -10.280     -9.820     -1.670     -0.276      0.024
 #    :          40         41         42         43         44         45         46         47
 occ. :        0.000      0.000      0.000      0.000      0.000      0.000      0.000      0.000
 eps  :         0.237      1.226      1.710      2.177      3.928      4.160      4.224      4.239


   #   Z            q   n(s)   n(p)   n(d)      C6AA      α(0)
   1  16 S      1.583  1.584  1.849  0.985    91.478    16.098
   2   8 O     -0.747  1.779  4.967  0.000    30.017     7.346
   3   8 O     -0.763  1.771  4.992  0.000    30.492     7.404
   4   8 O     -0.732  1.762  4.969  0.000    29.583     7.292
   5   8 O     -0.542  1.718  4.824  0.000    23.813     6.588
   6   1 H      0.358  0.642  0.000  0.000     0.561     1.172
   7   8 O     -0.858  1.829  5.028  0.000    33.311     7.741
   8   1 H      0.209  0.791  0.000  0.000     1.073     1.627
   9   8 O     -0.671  1.757  4.913  0.000    26.944     7.006
  10   1 H      0.309  0.691  0.000  0.000     0.696     1.310
  11   1 H      0.301  0.699  0.000  0.000     0.718     1.331
  12   8 O     -0.458  1.657  4.801  0.000    21.942     6.326
  13   1 H      0.404  0.596  0.000  0.000     0.471     1.074
  14   1 H      0.400  0.600  0.000  0.000     0.485     1.094
  15   1 H      0.368  0.632  0.000  0.000     0.548     1.163
  16   8 O     -0.432  1.650  4.782  0.000    21.418     6.250
  17   1 H      0.414  0.586  0.000  0.000     0.455     1.057
  18   1 H      0.399  0.601  0.000  0.000     0.486     1.095
  19   1 H      0.390  0.610  0.000  0.000     0.503     1.114
  20   7 N     -0.430  1.379  4.051  0.000    31.238     8.301
  21   1 H      0.168  0.832  0.000  0.000     1.283     1.774
  22   1 H      0.163  0.837  0.000  0.000     1.315     1.796
  23   1 H      0.166  0.834  0.000  0.000     1.299     1.785

 Mol. C6AA /au·bohr⁶  :       4558.514209
 Mol. C8AA /au·bohr⁸  :     100450.175720
 Mol. α(0) /au        :         97.744206

 
 Wiberg/Mayer (AO) data. WBOs > 0.1 written file <wbo>
 largest (>0.05) Wiberg bond orders for each atom
           total WBO             WBO to atom ...
     1  S   4.934    O    2 1.326    O    4 1.307    O    3 1.269    O    5 0.996
     2  O   1.677    S    1 1.326    O    3 0.117    O    4 0.116    O    5 0.075
     3  O   1.686    S    1 1.269    O    2 0.117    O    4 0.109    H   18 0.088    O    5 0.069
     4  O   1.720    S    1 1.307    O    2 0.116    O    3 0.109    H   14 0.092    O    5 0.052
     5  O   2.047    S    1 0.996    H    6 0.848    O    2 0.075    O    3 0.069    O    4 0.052
     6  H   0.871    O    5 0.848
     7  O   1.593    H    8 0.947    H   13 0.203    H   17 0.192    H   10 0.077    O   12 0.062    O   16 0.059
     8  H   0.956    O    7 0.947
     9  O   1.800    H   11 0.876    H   10 0.826
    10  H   0.905    O    9 0.826    O    7 0.077
    11  H   0.909    O    9 0.876
    12  O   2.282    H   15 0.768    H   14 0.739    H   13 0.629    O    7 0.062
    13  H   0.837    O   12 0.629    O    7 0.203
    14  H   0.840    O   12 0.739    O    4 0.092
    15  H   0.865    O   12 0.768    N   20 0.092
    16  O   2.305    H   19 0.819    H   18 0.743    H   17 0.628    O    7 0.059
    17  H   0.829    O   16 0.628    O    7 0.192
    18  H   0.840    O   16 0.743    O    3 0.088
    19  H   0.848    O   16 0.819
    20  N   3.042    H   22 0.971    H   23 0.970    H   21 0.969    H   15 0.092
    21  H   0.972    N   20 0.969
    22  H   0.973    N   20 0.971
    23  H   0.973    N   20 0.970
 MOs/occ written to file <molden.input>
 
molecular dipole:
                 x           y           z       tot (Debye)
 q only:        1.192      -2.042       1.074
   full:        1.294      -2.453       0.492       7.159
molecular quadrupole (traceless):
                xx          xy          yy          xz          yz          zz
 q only:       -4.022      11.532       8.131      -0.863     -13.818      -4.109
  q+dip:      -11.252       8.934       9.397       0.110     -19.097       1.856
   full:      -11.949       9.271       9.225       0.247     -19.274       2.724

SCC energy    :     -45.5377614
rep           :       0.2562295
ES            :       0.2746638
AES           :      -0.0590025
AXC           :      -0.0066259
disp          :      -0.0147390
XB            :       0.0000000
fix           :       0.0000000
total E       :     -45.2813809
atomizationE  :       4.3644434     2738.73
(atE without considering molecular charge,
 total energy contains solvation terms)
H-L gap (eV)  :          8.1500
           ------------------------------------------------- 
          |                 ===============                 |
          |                   A N C O P T                   |
          |                 ===============                 |
          |          Approximate Normal Coordinate          |
          |           Rational Function Optimizer           |
           ------------------------------------------------- 
dumping coords to <xtbopt.coord> and <xtbopt.log>
 optlevel               2
 Maxcycle             460
 Maxmicro              25
 Econv         1.000000000000000E-007
 Gconv         2.000000000000000E-004
 Maxdispl       1.00000000000000     
 Hlow          5.000000000000000E-003
 S6             20.0000000000000     
 Nvar               63

generating ANC from model Hessian ...
 Shifting diagonal of input Hessian by   5.073017303074080E-003
 Lowest  eigenvalues of input Hessian
    0.005000   -0.000000   -0.000000   -0.000000    0.000000    0.000000
    0.000000    0.005083    0.006073    0.006080    0.006470    0.007766
    0.007789    0.008529    0.008895    0.010010    0.010836    0.012149
 Highest eigenvalues
    1.559960    1.581924    1.591587    3.142411    3.212453    3.319921
 
cpu  time for ANC gen    0.01 s
wall time for ANC gen    0.01 s
................................................................................
.............................. CYCLE    1 ......................................
................................................................................
   1    -45.5377614 -0.455378E+02  0.791E-05    8.15       0.0  T
   2    -45.5377614 -0.109139E-10  0.623E-05    8.15     334.5  T
   3    -45.5377614 -0.123777E-10  0.319E-05    8.15     653.1  T
speedup  0.77
cpu  time for SCC    0.00 s
wall time for SCC    0.00 s
speedup  0.97
cpu  time for grad    0.01 s
wall time for grad    0.01 s
 E :    -45.28138088  G :  0.210455    pred/act E change:  0.000D+00  0.430D-07
Maxdispl :   0.1246   ||displ|| :   0.3140   Lambda : -0.324D-01
Largest |displ|/coords:  0.1246 (   6)  0.1051 (  47)  0.1048 (  24)
................................................................................
.............................. CYCLE    2 ......................................
................................................................................
   1    -45.5511232 -0.455511E+02  0.304E-01    8.27       0.0  T
   2    -45.5513106 -0.187358E-03  0.231E-01    8.33       1.0  T
   3    -45.5513956 -0.850050E-04  0.850E-02    8.43       1.0  T
   4    -45.5514077 -0.120792E-04  0.214E-02    8.42       1.0  T
   5    -45.5514086 -0.889231E-06  0.556E-03    8.42       3.8  T
   6    -45.5514086 -0.391523E-07  0.316E-03    8.42       6.6  T
speedup  1.11
cpu  time for SCC    0.00 s
wall time for SCC    0.00 s
speedup  1.02
cpu  time for grad    0.01 s
wall time for grad    0.01 s
 E :    -45.30733685  G :  0.132365    pred/act E change:  0.000D+00 -0.260D-01
Maxdispl :   0.1464   ||displ|| :   0.3579   Lambda : -0.174D-01
Largest |displ|/coords:  0.1464 (  24)  0.1435 (   6)  0.1057 (  23)
................................................................................
.............................. CYCLE    3 ......................................
................................................................................
   1    -45.5583604 -0.455584E+02  0.290E-01    8.53       0.0  T
   2    -45.5586102 -0.249850E-03  0.217E-01    8.60       1.0  T
   3    -45.5587158 -0.105603E-03  0.897E-02    8.71       1.0  T
   4    -45.5587268 -0.109746E-04  0.197E-02    8.70       1.1  T
   5    -45.5587274 -0.646611E-06  0.554E-03    8.69       3.8  T
   6    -45.5587275 -0.351093E-07  0.299E-03    8.69       7.0  T
speedup  0.89
cpu  time for SCC    0.00 s
wall time for SCC    0.00 s
speedup  0.92
cpu  time for grad    0.01 s
wall time for grad    0.01 s
 E :    -45.32136153  G :  0.084861    pred/act E change: -0.178D-01 -0.140D-01
Maxdispl :   0.1342   ||displ|| :   0.3599   Lambda : -0.884D-02
Largest |displ|/coords:  0.1342 (   7)  0.1239 (  11)  0.1191 (   6)
................................................................................
.............................. CYCLE    4 ......................................
................................................................................
   1    -45.5613546 -0.455614E+02  0.275E-01    8.80       0.0  T
   2    -45.5616086 -0.253984E-03  0.201E-01    8.87       1.0  T
   3    -45.5617121 -0.103571E-03  0.830E-02    8.97       1.0  T
   4    -45.5617216 -0.947867E-05  0.165E-02    8.96       1.3  T
   5    -45.5617220 -0.331838E-06  0.458E-03    8.96       4.6  T
   6    -45.5617220 -0.250803E-07  0.244E-03    8.96       8.6  T
speedup  1.11
cpu  time for SCC    0.00 s
wall time for SCC    0.00 s
speedup  1.02
cpu  time for grad    0.01 s
wall time for grad    0.01 s
 E :    -45.32830129  G :  0.054712    pred/act E change: -0.984D-02 -0.694D-02
Maxdispl :   0.1348   ||displ|| :   0.3086   Lambda : -0.423D-02
Largest |displ|/coords:  0.1348 (  15)  0.1080 (  11)  0.1017 (   7)
................................................................................
.............................. CYCLE    5 ......................................
................................................................................
   1    -45.5625495 -0.455625E+02  0.250E-01    9.03       0.0  T
   2    -45.5626807 -0.131163E-03  0.184E-01    9.10       1.0  T
   3    -45.5627320 -0.513663E-04  0.609E-02    9.19       1.0  T
   4    -45.5627419 -0.989454E-05  0.144E-02    9.18       1.4  T
   5    -45.5627423 -0.365533E-06  0.369E-03    9.18       5.7  T
   6    -45.5627423 -0.156510E-07  0.197E-03    9.18      10.6  T
speedup  1.14
cpu  time for SCC    0.00 s
wall time for SCC    0.00 s
speedup  1.03
cpu  time for grad    0.01 s
wall time for grad    0.01 s
 E :    -45.33171217  G :  0.038716    pred/act E change: -0.499D-02 -0.341D-02
Maxdispl :   0.2251   ||displ|| :   0.4072   Lambda : -0.515D-02
Largest |displ|/coords:  0.2251 (  15)  0.1483 (   2)  0.1065 (   7)
................................................................................
.............................. CYCLE    6 ......................................
................................................................................
   1    -45.5648700 -0.455649E+02  0.371E-01    9.14       0.0  T
   2    -45.5652119 -0.341926E-03  0.271E-01    9.18       1.0  T
   3    -45.5653485 -0.136615E-03  0.958E-02    9.22       1.0  T
   4    -45.5653691 -0.205806E-04  0.241E-02    9.21       1.0  T
   5    -45.5653701 -0.976996E-06  0.611E-03    9.21       3.4  T
   6    -45.5653701 -0.463522E-07  0.323E-03    9.21       6.4  T
   7    -45.5653701 -0.171966E-07  0.110E-03    9.21      18.9  T
speedup  1.15
cpu  time for SCC    0.01 s
wall time for SCC    0.01 s
speedup  1.04
cpu  time for grad    0.01 s
wall time for grad    0.01 s
 E :    -45.33491766  G :  0.031698    pred/act E change: -0.231D-02 -0.321D-02
Maxdispl :   0.1784   ||displ|| :   0.3803   Lambda : -0.311D-02
Largest |displ|/coords:  0.1784 (   8)  0.1202 (  21)  0.1103 (   2)
................................................................................
.............................. CYCLE    7 ......................................
................................................................................
   1    -45.5716390 -0.455716E+02  0.330E-01    9.11       0.0  T
   2    -45.5717876 -0.148610E-03  0.247E-01    9.12       1.0  T
   3    -45.5718498 -0.622712E-04  0.637E-02    9.13       1.0  T
   4    -45.5718677 -0.178461E-04  0.171E-02    9.13       1.2  T
   5    -45.5718682 -0.505903E-06  0.485E-03    9.13       4.3  T
   6    -45.5718682 -0.242814E-07  0.278E-03    9.13       7.5  T
speedup  1.14
cpu  time for SCC    0.00 s
wall time for SCC    0.00 s
speedup  1.02
cpu  time for grad    0.01 s
wall time for grad    0.01 s
 E :    -45.33532380  G :  0.034270    pred/act E change: -0.300D-02 -0.406D-03
Maxdispl :   0.0929   ||displ|| :   0.2291   Lambda : -0.264D-02
Largest |displ|/coords:  0.0929 (  15)  0.0891 (   5)  0.0842 (   7)
................................................................................
.............................. CYCLE    8 ......................................
................................................................................
   1    -45.5706194 -0.455706E+02  0.262E-01    9.08       0.0  T
   2    -45.5706517 -0.322746E-04  0.198E-01    9.08       1.0  T
   3    -45.5706704 -0.187051E-04  0.319E-02    9.08       1.0  T
   4    -45.5706760 -0.556924E-05  0.637E-03    9.08       3.3  T
   5    -45.5706760 -0.419816E-07  0.322E-03    9.08       6.5  T
   6    -45.5706760 -0.115791E-07  0.107E-03    9.08      19.5  T
speedup  0.89
cpu  time for SCC    0.00 s
wall time for SCC    0.00 s
speedup  1.02
cpu  time for grad    0.01 s
wall time for grad    0.01 s
 E :    -45.33696764  G :  0.030825    pred/act E change: -0.178D-02 -0.164D-02
Maxdispl :   0.1278   ||displ|| :   0.2908   Lambda : -0.177D-02
Largest |displ|/coords:  0.1278 (   6)  0.1078 (   1)  0.1003 (   2)
................................................................................
.............................. CYCLE    9 ......................................
................................................................................
   1    -45.5729860 -0.455730E+02  0.228E-01    9.09       0.0  T
   2    -45.5730268 -0.408151E-04  0.171E-01    9.08       1.0  T
   3    -45.5730449 -0.180319E-04  0.385E-02    9.07       1.0  T
   4    -45.5730504 -0.555980E-05  0.114E-02    9.07       1.8  T
   5    -45.5730507 -0.253333E-06  0.341E-03    9.07       6.1  T
   6    -45.5730507 -0.922741E-08  0.173E-03    9.07      12.1  T
speedup  1.06
cpu  time for SCC    0.00 s
wall time for SCC    0.00 s
speedup  1.00
cpu  time for grad    0.01 s
wall time for grad    0.01 s
 E :    -45.33729480  G :  0.033263    pred/act E change: -0.139D-02 -0.327D-03
Maxdispl :   0.1970   ||displ|| :   0.3592   Lambda : -0.279D-02
Largest |displ|/coords:  0.1970 (  15)  0.1363 (  13)  0.1246 (   5)
................................................................................
.............................. CYCLE   10 ......................................
................................................................................
   1    -45.5682648 -0.455683E+02  0.351E-01    9.07       0.0  T
   2    -45.5683895 -0.124711E-03  0.259E-01    9.06       1.0  T
   3    -45.5684553 -0.658227E-04  0.626E-02    9.03       1.0  T
   4    -45.5684701 -0.148112E-04  0.144E-02    9.04       1.4  T
   5    -45.5684704 -0.238031E-06  0.577E-03    9.04       3.6  T
   6    -45.5684704 -0.601867E-07  0.302E-03    9.04       6.9  T
speedup  1.11
cpu  time for SCC    0.00 s
wall time for SCC    0.00 s
speedup  1.11
cpu  time for grad    0.01 s
wall time for grad    0.01 s
 E :    -45.33830092  G :  0.043041    pred/act E change: -0.959D-03 -0.101D-02
Maxdispl :   0.1418   ||displ|| :   0.2725   Lambda : -0.267D-02
Largest |displ|/coords:  0.1418 (   6)  0.1014 (   8)  0.0933 (   2)
................................................................................
.............................. CYCLE   11 ......................................
................................................................................
   1    -45.5762688 -0.455763E+02  0.159E-01    9.10       0.0  T
   2    -45.5762921 -0.232277E-04  0.118E-01    9.09       1.0  T
   3    -45.5763033 -0.111908E-04  0.266E-02    9.08       1.0  T
   4    -45.5763060 -0.272267E-05  0.836E-03    9.08       2.5  T
   5    -45.5763061 -0.763998E-07  0.248E-03    9.08       8.4  T
   6    -45.5763061 -0.614283E-08  0.126E-03    9.08      16.5  T
speedup  0.89
cpu  time for SCC    0.00 s
wall time for SCC    0.00 s
speedup  1.02
cpu  time for grad    0.01 s
wall time for grad    0.01 s
 E :    -45.33954914  G :  0.018471    pred/act E change: -0.158D-02 -0.125D-02
Maxdispl :   0.1591   ||displ|| :   0.3611   Lambda : -0.157D-02
Largest |displ|/coords:  0.1591 (   2)  0.1275 (   1)  0.1122 (  19)
................................................................................
.............................. CYCLE   12 ......................................
................................................................................
   1    -45.5738082 -0.455738E+02  0.250E-01    9.11       0.0  T
   2    -45.5738701 -0.619399E-04  0.185E-01    9.10       1.0  T
   3    -45.5738964 -0.262860E-04  0.411E-02    9.09       1.0  T
   4    -45.5739047 -0.828221E-05  0.916E-03    9.09       2.3  T
   5    -45.5739048 -0.844725E-07  0.352E-03    9.09       5.9  T
   6    -45.5739048 -0.118731E-07  0.170E-03    9.09      12.3  T
   7    -45.5739048 -0.416829E-08  0.480E-04    9.09      43.4  T
speedup  0.96
cpu  time for SCC    0.01 s
wall time for SCC    0.01 s
speedup  1.04
cpu  time for grad    0.01 s
wall time for grad    0.01 s
 E :    -45.34042476  G :  0.025240    pred/act E change: -0.143D-02 -0.876D-03
Maxdispl :   0.1923   ||displ|| :   0.3863   Lambda : -0.184D-02
Largest |displ|/coords:  0.1923 (  15)  0.1476 (   1)  0.1274 (   6)
................................................................................
.............................. CYCLE   13 ......................................
................................................................................
   1    -45.5790218 -0.455790E+02  0.237E-01    9.17       0.0  T
   2    -45.5790903 -0.685129E-04  0.175E-01    9.16       1.0  T
   3    -45.5791208 -0.304077E-04  0.440E-02    9.14       1.0  T
   4    -45.5791289 -0.818788E-05  0.141E-02    9.14       1.5  T
   5    -45.5791292 -0.291612E-06  0.415E-03    9.14       5.0  T
   6    -45.5791293 -0.220673E-07  0.220E-03    9.14       9.5  T
speedup  1.11
cpu  time for SCC    0.00 s
wall time for SCC    0.00 s
speedup  1.02
cpu  time for grad    0.01 s
wall time for grad    0.01 s
 E :    -45.34153840  G :  0.019330    pred/act E change: -0.887D-03 -0.111D-02
Maxdispl :   0.2325   ||displ|| :   0.5099   Lambda : -0.182D-02
Largest |displ|/coords:  0.2325 (   2)  0.2083 (  15)  0.1691 (   1)
................................................................................
.............................. CYCLE   14 ......................................
................................................................................
   1    -45.5778599 -0.455779E+02  0.375E-01    9.20       0.0  T
   2    -45.5779922 -0.132354E-03  0.276E-01    9.19       1.0  T
   3    -45.5780568 -0.645827E-04  0.638E-02    9.16       1.0  T
   4    -45.5780733 -0.164841E-04  0.150E-02    9.17       1.4  T
   5    -45.5780735 -0.231566E-06  0.595E-03    9.17       3.5  T
   6    -45.5780735 -0.457265E-07  0.300E-03    9.17       7.0  T
   7    -45.5780736 -0.123127E-07  0.849E-04    9.17      24.5  T
speedup  1.15
cpu  time for SCC    0.01 s
wall time for SCC    0.01 s
speedup  1.04
cpu  time for grad    0.01 s
wall time for grad    0.01 s
 E :    -45.34221858  G :  0.035943    pred/act E change: -0.106D-02 -0.680D-03
Maxdispl :   0.0637   ||displ|| :   0.1613   Lambda : -0.170D-02
Largest |displ|/coords:  0.0637 (   2)  0.0487 (  11)  0.0483 (  27)
................................................................................
.............................. CYCLE   15 ......................................
................................................................................
   1    -45.5839452 -0.455839E+02  0.106E-01    9.21       0.0  T
   2    -45.5839759 -0.307716E-04  0.739E-02    9.22       1.0  T
   3    -45.5839891 -0.131498E-04  0.256E-02    9.22       1.0  T
   4    -45.5839906 -0.151418E-05  0.523E-03    9.22       4.0  T
   5    -45.5839906 -0.397626E-07  0.225E-03    9.22       9.3  T
speedup  1.08
cpu  time for SCC    0.00 s
wall time for SCC    0.00 s
speedup  1.00
cpu  time for grad    0.01 s
wall time for grad    0.01 s
 E :    -45.34339763  G :  0.022904    pred/act E change: -0.115D-02 -0.118D-02
Maxdispl :   0.1767   ||displ|| :   0.4057   Lambda : -0.217D-02
Largest |displ|/coords:  0.1767 (  15)  0.1675 (   2)  0.1481 (   1)
................................................................................
.............................. CYCLE   16 ......................................
................................................................................
   1    -45.5886567 -0.455887E+02  0.261E-01    9.31       0.0  T
   2    -45.5887018 -0.451072E-04  0.194E-01    9.31       1.0  T
   3    -45.5887258 -0.240300E-04  0.377E-02    9.32       1.0  T
   4    -45.5887324 -0.656041E-05  0.843E-03    9.32       2.5  T
   5    -45.5887324 -0.834019E-07  0.411E-03    9.32       5.1  T
   6    -45.5887324 -0.157571E-07  0.167E-03    9.32      12.5  T
speedup  0.89
cpu  time for SCC    0.00 s
wall time for SCC    0.00 s
speedup  1.02
cpu  time for grad    0.01 s
wall time for grad    0.01 s
 E :    -45.34513694  G :  0.025544    pred/act E change: -0.874D-03 -0.174D-02
Maxdispl :   0.2511   ||displ|| :   0.6287   Lambda : -0.362D-02
Largest |displ|/coords:  0.2511 (  15)  0.2113 (   5)  0.1851 (   1)
................................................................................
.............................. CYCLE   17 ......................................
................................................................................
   1    -45.5925253 -0.455925E+02  0.473E-01    9.39       0.0  T
   2    -45.5926871 -0.161811E-03  0.353E-01    9.36       1.0  T
   3    -45.5927776 -0.905353E-04  0.717E-02    9.19       1.0  T
   4    -45.5928009 -0.232737E-04  0.168E-02    9.21       1.2  T
   5    -45.5928013 -0.364650E-06  0.823E-03    9.21       2.5  T
   6    -45.5928013 -0.694356E-07  0.358E-03    9.21       5.8  T
   7    -45.5928014 -0.229991E-07  0.839E-04    9.21      24.9  T
speedup  0.69
cpu  time for SCC    0.01 s
wall time for SCC    0.01 s
speedup  0.88
cpu  time for grad    0.01 s
wall time for grad    0.01 s
 E :    -45.34786259  G :  0.031117    pred/act E change: -0.126D-02 -0.273D-02
Maxdispl :   0.1948   ||displ|| :   0.4740   Lambda : -0.385D-02
Largest |displ|/coords:  0.1948 (  15)  0.1657 (   1)  0.1382 (  12)
................................................................................
.............................. CYCLE   18 ......................................
................................................................................
   1    -45.6036649 -0.456037E+02  0.444E-01    9.07       0.0  T
   2    -45.6038296 -0.164740E-03  0.328E-01    9.05       1.0  T
   3    -45.6039429 -0.113346E-03  0.736E-02    8.97       1.0  T
   4    -45.6039602 -0.172754E-04  0.204E-02    8.95       1.0  T
   5    -45.6039608 -0.533362E-06  0.819E-03    8.95       2.5  T
   6    -45.6039608 -0.525887E-07  0.397E-03    8.95       5.2  T
   7    -45.6039608 -0.183497E-07  0.727E-04    8.95      28.7  T
speedup  0.94
cpu  time for SCC    0.00 s
wall time for SCC    0.01 s
speedup  1.03
cpu  time for grad    0.01 s
wall time for grad    0.01 s
 E :    -45.34649352  G :  0.062460    pred/act E change: -0.253D-02  0.137D-02
Maxdispl :   0.1430   ||displ|| :   0.4030   Lambda : -0.142D-01
Largest |displ|/coords:  0.1430 (  14)  0.1408 (  12)  0.1214 (  59)
................................................................................
.............................. CYCLE   19 ......................................
................................................................................
   1    -45.5821979 -0.455822E+02  0.416E-01    9.02       0.0  T
   2    -45.5827113 -0.513365E-03  0.291E-01    9.02       1.0  T
   3    -45.5829660 -0.254751E-03  0.114E-01    9.04       1.0  T
   4    -45.5829931 -0.270610E-04  0.286E-02    9.07       1.0  T
   5    -45.5829942 -0.113659E-05  0.110E-02    9.07       1.9  T
   6    -45.5829946 -0.346936E-06  0.589E-03    9.07       3.5  T
   7    -45.5829946 -0.366978E-07  0.142E-03    9.07      14.7  T
speedup  0.96
cpu  time for SCC    0.00 s
wall time for SCC    0.01 s
speedup  1.04
cpu  time for grad    0.01 s
wall time for grad    0.01 s
 E :    -45.34527205  G :  0.071647    pred/act E change: -0.235D-02  0.122D-02
Maxdispl :   0.1530   ||displ|| :   0.3729   Lambda : -0.155D-01
Largest |displ|/coords:  0.1530 (  11)  0.1448 (  14)  0.1048 (  15)
................................................................................
.............................. CYCLE   20 ......................................
................................................................................
   1    -45.6009216 -0.456009E+02  0.436E-01    8.94       0.0  T
   2    -45.6013060 -0.384496E-03  0.313E-01    8.96       1.0  T
   3    -45.6015526 -0.246588E-03  0.103E-01    8.98       1.0  T
   4    -45.6015786 -0.259321E-04  0.250E-02    8.95       1.0  T
   5    -45.6015797 -0.116295E-05  0.110E-02    8.96       1.9  T
   6    -45.6015798 -0.554719E-07  0.480E-03    8.96       4.3  T
   7    -45.6015798 -0.447415E-07  0.939E-04    8.96      22.2  T
speedup  0.96
cpu  time for SCC    0.00 s
wall time for SCC    0.01 s
speedup  1.04
cpu  time for grad    0.01 s
wall time for grad    0.01 s
 E :    -45.34526353  G :  0.109036    pred/act E change: -0.825D-02  0.853D-05
Maxdispl :   0.1328   ||displ|| :   0.3542   Lambda : -0.211D-01
Largest |displ|/coords:  0.1328 (  11)  0.1215 (   8)  0.1008 (  10)
................................................................................
.............................. CYCLE   21 ......................................
................................................................................
   1    -45.5895681 -0.455896E+02  0.409E-01    9.07       0.0  T
   2    -45.5899551 -0.387051E-03  0.289E-01    9.06       1.0  T
   3    -45.5901792 -0.224046E-03  0.105E-01    9.05       1.0  T
   4    -45.5902070 -0.278569E-04  0.261E-02    9.06       1.0  T
   5    -45.5902078 -0.743769E-06  0.106E-02    9.06       2.0  T
   6    -45.5902081 -0.382758E-06  0.558E-03    9.06       3.7  T
   7    -45.5902082 -0.311900E-07  0.118E-03    9.06      17.7  T
speedup  0.96
cpu  time for SCC    0.00 s
wall time for SCC    0.01 s
speedup  0.96
cpu  time for grad    0.01 s
wall time for grad    0.01 s
 E :    -45.34524902  G :  0.081565    pred/act E change: -0.885D-02  0.145D-04
Maxdispl :   0.1058   ||displ|| :   0.2934   Lambda : -0.138D-01
Largest |displ|/coords:  0.1058 (   8)  0.0932 (  23)  0.0926 (  27)
................................................................................
.............................. CYCLE   22 ......................................
................................................................................
   1    -45.5982695 -0.455983E+02  0.339E-01    9.08       0.0  T
   2    -45.5985245 -0.255036E-03  0.242E-01    9.05       1.0  T
   3    -45.5986785 -0.153932E-03  0.853E-02    9.01       1.0  T
   4    -45.5986948 -0.163003E-04  0.217E-02    9.02       1.0  T
   5    -45.5986955 -0.694312E-06  0.896E-03    9.02       2.3  T
   6    -45.5986955 -0.565276E-07  0.415E-03    9.02       5.0  T
   7    -45.5986955 -0.226393E-07  0.907E-04    9.02      23.0  T
speedup  0.96
cpu  time for SCC    0.00 s
wall time for SCC    0.01 s
speedup  1.04
cpu  time for grad    0.01 s
wall time for grad    0.01 s
 E :    -45.34807331  G :  0.061097    pred/act E change: -0.119D-01 -0.282D-02
Maxdispl :   0.1716   ||displ|| :   0.3277   Lambda : -0.912D-02
Largest |displ|/coords:  0.1716 (  12)  0.1422 (   9)  0.0784 (  16)
................................................................................
.............................. CYCLE   23 ......................................
................................................................................
   1    -45.5825837 -0.455826E+02  0.374E-01    8.80       0.0  T
   2    -45.5827996 -0.215883E-03  0.265E-01    8.88       1.0  T
   3    -45.5828914 -0.918012E-04  0.789E-02    8.98       1.0  T
   4    -45.5829070 -0.156271E-04  0.192E-02    8.94       1.1  T
   5    -45.5829076 -0.649214E-06  0.742E-03    8.94       2.8  T
   6    -45.5829077 -0.535476E-07  0.327E-03    8.94       6.4  T
   7    -45.5829077 -0.244362E-07  0.816E-04    8.94      25.6  T
speedup  0.96
cpu  time for SCC    0.00 s
wall time for SCC    0.01 s
speedup  0.96
cpu  time for grad    0.01 s
wall time for grad    0.01 s
 E :    -45.34702357  G :  0.059847    pred/act E change: -0.750D-02  0.105D-02
Maxdispl :   0.2179   ||displ|| :   0.4027   Lambda : -0.127D-01
Largest |displ|/coords:  0.2179 (  12)  0.1659 (   9)  0.1108 (  16)
................................................................................
.............................. CYCLE   24 ......................................
................................................................................
   1    -45.6156159 -0.456156E+02  0.434E-01    9.23       0.0  T
   2    -45.6158293 -0.213376E-03  0.308E-01    9.12       1.0  T
   3    -45.6159187 -0.894089E-04  0.776E-02    8.94       1.0  T
   4    -45.6159377 -0.190388E-04  0.148E-02    8.98       1.4  T
   5    -45.6159380 -0.259059E-06  0.761E-03    8.97       2.7  T
   6    -45.6159380 -0.528838E-07  0.220E-03    8.98       9.5  T
   7    -45.6159381 -0.122856E-07  0.648E-04    8.98      32.2  T
speedup  0.94
cpu  time for SCC    0.00 s
wall time for SCC    0.01 s
speedup  1.03
cpu  time for grad    0.01 s
wall time for grad    0.01 s
 E :    -45.34710436  G :  0.072508    pred/act E change: -0.505D-02 -0.808D-04
Maxdispl :   0.1422   ||displ|| :   0.3560   Lambda : -0.130D-01
Largest |displ|/coords:  0.1422 (  12)  0.1244 (   9)  0.1026 (   5)
................................................................................
.............................. CYCLE   25 ......................................
................................................................................
   1    -45.5793928 -0.455794E+02  0.372E-01    8.74       0.0  T
   2    -45.5796294 -0.236638E-03  0.258E-01    8.84       1.0  T
   3    -45.5797136 -0.841728E-04  0.783E-02    9.00       1.0  T
   4    -45.5797285 -0.148977E-04  0.164E-02    8.97       1.3  T
   5    -45.5797288 -0.303315E-06  0.624E-03    8.97       3.3  T
   6    -45.5797289 -0.824659E-07  0.262E-03    8.97       8.0  T
   7    -45.5797289 -0.153308E-07  0.616E-04    8.97      33.9  T
speedup  0.96
cpu  time for SCC    0.00 s
wall time for SCC    0.01 s
speedup  1.04
cpu  time for grad    0.01 s
wall time for grad    0.01 s
 E :    -45.34805738  G :  0.052025    pred/act E change: -0.738D-02 -0.953D-03
Maxdispl :   0.0879   ||displ|| :   0.2665   Lambda : -0.773D-02
Largest |displ|/coords:  0.0879 (   5)  0.0842 (  12)  0.0818 (   9)

generating ANC from model Hessian ...
 Shifting diagonal of input Hessian by   5.091467353115471E-003
 Lowest  eigenvalues of input Hessian
    0.005000   -0.000000   -0.000000   -0.000000    0.000000    0.000000
    0.000000    0.005105    0.005522    0.006056    0.006222    0.006423
    0.007245    0.008052    0.010236    0.010912    0.012245    0.014694
 Highest eigenvalues
    1.397890    1.420528    1.447739    2.589247    3.407619    3.713980
 
cpu  time for ANC gen    0.01 s
wall time for ANC gen    0.01 s
................................................................................
.............................. CYCLE   26 ......................................
................................................................................
   1    -45.6088364 -0.456088E+02  0.291E-01    9.12       0.0  T
   2    -45.6089874 -0.150937E-03  0.206E-01    9.05       1.0  T
   3    -45.6090583 -0.709427E-04  0.639E-02    8.94       1.0  T
   4    -45.6090682 -0.989549E-05  0.155E-02    8.96       1.3  T
   5    -45.6090685 -0.324591E-06  0.559E-03    8.96       3.7  T
   6    -45.6090686 -0.164832E-07  0.270E-03    8.96       7.7  T
   7    -45.6090686 -0.122225E-07  0.682E-04    8.96      30.6  T
   8    -45.6090686 -0.871964E-09  0.202E-04    8.96     103.0  T
speedup  1.02
cpu  time for SCC    0.01 s
wall time for SCC    0.01 s
speedup  0.94
cpu  time for grad    0.01 s
wall time for grad    0.01 s
 E :    -45.34960356  G :  0.037996    pred/act E change:  0.000D+00 -0.155D-02
Maxdispl :   0.1012   ||displ|| :   0.1930   Lambda : -0.198D-02
Largest |displ|/coords:  0.1012 (   5)  0.0808 (  13)  0.0593 (   7)
................................................................................
.............................. CYCLE   27 ......................................
................................................................................
   1    -45.6016757 -0.456017E+02  0.164E-01    8.93       0.0  T
   2    -45.6016876 -0.119611E-04  0.123E-01    8.93       1.0  T
   3    -45.6016943 -0.670937E-05  0.202E-02    8.94       1.0  T
   4    -45.6016960 -0.166139E-05  0.549E-03    8.93       3.8  T
   5    -45.6016960 -0.432967E-07  0.207E-03    8.93      10.1  T
speedup  1.08
cpu  time for SCC    0.00 s
wall time for SCC    0.00 s
speedup  1.00
cpu  time for grad    0.01 s
wall time for grad    0.01 s
 E :    -45.35084460  G :  0.007751    pred/act E change:  0.000D+00 -0.124D-02
Maxdispl :   0.1347   ||displ|| :   0.2138   Lambda : -0.519D-03
Largest |displ|/coords:  0.1347 (   3)  0.0747 (   6)  0.0621 (   5)
................................................................................
.............................. CYCLE   28 ......................................
................................................................................
   1    -45.5984021 -0.455984E+02  0.143E-01    8.91       0.0  T
   2    -45.5984076 -0.551089E-05  0.106E-01    8.91       1.0  T
   3    -45.5984114 -0.383478E-05  0.126E-02    8.91       1.6  T
   4    -45.5984120 -0.604353E-06  0.376E-03    8.91       5.5  T
   5    -45.5984120 -0.116751E-07  0.163E-03    8.91      12.8  T
   6    -45.5984120 -0.316135E-08  0.633E-04    8.91      33.0  T
speedup  0.91
cpu  time for SCC    0.00 s
wall time for SCC    0.00 s
speedup  0.93
cpu  time for grad    0.01 s
wall time for grad    0.01 s
 E :    -45.35114528  G :  0.009290    pred/act E change: -0.103D-02 -0.301D-03
Maxdispl :   0.1557   ||displ|| :   0.2225   Lambda : -0.253D-03
Largest |displ|/coords:  0.1557 (   3)  0.0981 (   5)  0.0622 (   6)
................................................................................
.............................. CYCLE   29 ......................................
................................................................................
   1    -45.5979316 -0.455979E+02  0.998E-02    8.89       0.0  T
   2    -45.5979333 -0.176028E-05  0.738E-02    8.89       1.0  T
   3    -45.5979349 -0.160908E-05  0.681E-03    8.89       3.1  T
   4    -45.5979351 -0.129768E-06  0.252E-03    8.89       8.3  T
   5    -45.5979351 -0.527697E-08  0.927E-04    8.89      22.5  T
speedup  0.79
cpu  time for SCC    0.00 s
wall time for SCC    0.00 s
speedup  0.99
cpu  time for grad    0.01 s
wall time for grad    0.01 s
 E :    -45.35136291  G :  0.010577    pred/act E change: -0.272D-03 -0.218D-03
Maxdispl :   0.4412   ||displ|| :   0.5732   Lambda : -0.635D-03
Largest |displ|/coords:  0.4412 (   3)  0.2054 (   5)  0.1617 (   2)
................................................................................
.............................. CYCLE   30 ......................................
................................................................................
   1    -45.5986663 -0.455987E+02  0.230E-01    8.83       0.0  T
   2    -45.5986744 -0.808221E-05  0.170E-01    8.83       1.0  T
   3    -45.5986823 -0.783800E-05  0.159E-02    8.83       1.3  T
   4    -45.5986828 -0.541978E-06  0.656E-03    8.82       3.2  T
   5    -45.5986828 -0.401715E-07  0.204E-03    8.82      10.2  T
   6    -45.5986829 -0.426383E-08  0.899E-04    8.82      23.2  T
speedup  1.11
cpu  time for SCC    0.01 s
wall time for SCC    0.00 s
speedup  1.02
cpu  time for grad    0.01 s
wall time for grad    0.01 s
 E :    -45.35183951  G :  0.008719    pred/act E change: -0.133D-03 -0.477D-03
Maxdispl :   0.4150   ||displ|| :   0.5617   Lambda : -0.504D-03
Largest |displ|/coords:  0.4150 (   3)  0.2248 (   5)  0.1844 (   2)
................................................................................
.............................. CYCLE   31 ......................................
................................................................................
   1    -45.5983132 -0.455983E+02  0.243E-01    8.75       0.0  T
   2    -45.5983204 -0.720892E-05  0.180E-01    8.75       1.0  T
   3    -45.5983285 -0.808298E-05  0.144E-02    8.73       1.5  T
   4    -45.5983288 -0.314965E-06  0.614E-03    8.73       3.4  T
   5    -45.5983289 -0.306885E-07  0.201E-03    8.73      10.4  T
   6    -45.5983289 -0.532613E-08  0.765E-04    8.73      27.3  T
speedup  1.11
cpu  time for SCC    0.00 s
wall time for SCC    0.00 s
speedup  1.02
cpu  time for grad    0.01 s
wall time for grad    0.01 s
 E :    -45.35225848  G :  0.010640    pred/act E change: -0.422D-03 -0.419D-03
Maxdispl :   0.4632   ||displ|| :   0.6117   Lambda : -0.695D-03
Largest |displ|/coords:  0.4632 (   3)  0.2118 (   5)  0.2095 (   2)
................................................................................
.............................. CYCLE   32 ......................................
................................................................................
   1    -45.6011448 -0.456011E+02  0.256E-01    8.67       0.0  T
   2    -45.6011554 -0.106367E-04  0.190E-01    8.65       1.0  T
   3    -45.6011645 -0.910124E-05  0.185E-02    8.62       1.1  T
   4    -45.6011657 -0.118006E-05  0.682E-03    8.63       3.1  T
   5    -45.6011657 -0.383891E-07  0.284E-03    8.63       7.3  T
   6    -45.6011657 -0.102015E-07  0.858E-04    8.63      24.3  T
speedup  0.91
cpu  time for SCC    0.00 s
wall time for SCC    0.00 s
speedup  1.01
cpu  time for grad    0.01 s
wall time for grad    0.01 s
 E :    -45.35282394  G :  0.010535    pred/act E change: -0.331D-03 -0.565D-03
Maxdispl :   0.5144   ||displ|| :   0.6946   Lambda : -0.796D-03
Largest |displ|/coords:  0.5144 (   3)  0.2685 (   2)  0.1990 (   7)
................................................................................
.............................. CYCLE   33 ......................................
................................................................................
   1    -45.5997211 -0.455997E+02  0.349E-01    8.53       0.0  T
   2    -45.5997358 -0.147507E-04  0.258E-01    8.52       1.0  T
   3    -45.5997522 -0.163618E-04  0.179E-02    8.49       1.2  T
   4    -45.5997526 -0.399078E-06  0.620E-03    8.49       3.4  T
   5    -45.5997526 -0.226716E-07  0.278E-03    8.49       7.5  T
   6    -45.5997526 -0.205975E-07  0.807E-04    8.49      25.8  T
speedup  1.11
cpu  time for SCC    0.00 s
wall time for SCC    0.00 s
speedup  1.00
cpu  time for grad    0.01 s
wall time for grad    0.01 s
 E :    -45.35333856  G :  0.020321    pred/act E change: -0.477D-03 -0.515D-03
Maxdispl :   0.2749   ||displ|| :   0.4609   Lambda : -0.117D-02
Largest |displ|/coords:  0.2749 (   3)  0.1793 (   7)  0.1468 (   2)
................................................................................
.............................. CYCLE   34 ......................................
................................................................................
   1    -45.6100069 -0.456100E+02  0.199E-01    8.57       0.0  T
   2    -45.6100353 -0.284025E-04  0.144E-01    8.53       1.0  T
   3    -45.6100436 -0.835193E-05  0.320E-02    8.48       1.0  T
   4    -45.6100474 -0.374544E-05  0.505E-03    8.50       4.1  T
   5    -45.6100474 -0.372265E-07  0.258E-03    8.50       8.1  T
speedup  1.08
cpu  time for SCC    0.00 s
wall time for SCC    0.00 s
speedup  0.98
cpu  time for grad    0.01 s
wall time for grad    0.01 s
 E :    -45.35377410  G :  0.016521    pred/act E change: -0.590D-03 -0.436D-03
Maxdispl :   0.4053   ||displ|| :   0.5182   Lambda : -0.115D-02
Largest |displ|/coords:  0.4053 (   3)  0.1702 (   5)  0.1658 (   1)
................................................................................
.............................. CYCLE   35 ......................................
................................................................................
   1    -45.6056906 -0.456057E+02  0.262E-01    8.37       0.0  T
   2    -45.6057084 -0.177923E-04  0.194E-01    8.36       1.0  T
   3    -45.6057232 -0.148355E-04  0.250E-02    8.34       1.0  T
   4    -45.6057250 -0.180996E-05  0.890E-03    8.34       2.3  T
   5    -45.6057251 -0.100411E-06  0.330E-03    8.34       6.3  T
   6    -45.6057252 -0.135180E-07  0.158E-03    8.34      13.2  T
   7    -45.6057252 -0.755828E-08  0.435E-04    8.34      47.9  T
speedup  0.96
cpu  time for SCC    0.00 s
wall time for SCC    0.01 s
speedup  0.94
cpu  time for grad    0.01 s
wall time for grad    0.01 s
 E :    -45.35414223  G :  0.023313    pred/act E change: -0.709D-03 -0.368D-03
Maxdispl :   0.1139   ||displ|| :   0.2293   Lambda : -0.901D-03
Largest |displ|/coords:  0.1139 (   2)  0.1082 (   3)  0.0999 (   7)
................................................................................
.............................. CYCLE   36 ......................................
................................................................................
   1    -45.6034282 -0.456034E+02  0.160E-01    8.26       0.0  T
   2    -45.6034389 -0.107324E-04  0.117E-01    8.27       1.0  T
   3    -45.6034461 -0.723749E-05  0.180E-02    8.28       1.2  T
   4    -45.6034473 -0.116618E-05  0.617E-03    8.27       3.4  T
   5    -45.6034473 -0.393487E-07  0.229E-03    8.27       9.1  T
   6    -45.6034473 -0.750331E-08  0.971E-04    8.27      21.5  T
speedup  0.91
cpu  time for SCC    0.00 s
wall time for SCC    0.00 s
speedup  1.02
cpu  time for grad    0.01 s
wall time for grad    0.01 s
 E :    -45.35450687  G :  0.011490    pred/act E change: -0.729D-03 -0.365D-03
Maxdispl :   0.1371   ||displ|| :   0.2450   Lambda : -0.527D-03
Largest |displ|/coords:  0.1371 (   3)  0.1072 (   5)  0.1063 (   2)
................................................................................
.............................. CYCLE   37 ......................................
................................................................................
   1    -45.6072160 -0.456072E+02  0.102E-01    8.37       0.0  T
   2    -45.6072191 -0.305134E-05  0.762E-02    8.38       1.0  T
   3    -45.6072217 -0.262677E-05  0.987E-03    8.40       2.1  T
   4    -45.6072220 -0.318067E-06  0.363E-03    8.40       5.7  T
   5    -45.6072220 -0.134084E-07  0.120E-03    8.40      17.3  T
   6    -45.6072220 -0.177454E-08  0.607E-04    8.40      34.3  T
speedup  1.14
cpu  time for SCC    0.01 s
wall time for SCC    0.00 s
speedup  1.01
cpu  time for grad    0.01 s
wall time for grad    0.01 s
 E :    -45.35471802  G :  0.007670    pred/act E change: -0.474D-03 -0.211D-03
Maxdispl :   0.2616   ||displ|| :   0.4637   Lambda : -0.535D-03
Largest |displ|/coords:  0.2616 (   3)  0.1855 (   8)  0.1462 (   6)
................................................................................
.............................. CYCLE   38 ......................................
................................................................................
   1    -45.6078853 -0.456079E+02  0.231E-01    8.35       0.0  T
   2    -45.6079051 -0.197742E-04  0.171E-01    8.32       1.0  T
   3    -45.6079158 -0.107039E-04  0.266E-02    8.27       1.0  T
   4    -45.6079189 -0.309750E-05  0.751E-03    8.29       2.8  T
   5    -45.6079190 -0.638156E-07  0.327E-03    8.29       6.4  T
   6    -45.6079190 -0.133173E-07  0.124E-03    8.29      16.8  T
   7    -45.6079190 -0.484330E-08  0.532E-04    8.29      39.2  T
speedup  0.96
cpu  time for SCC    0.00 s
wall time for SCC    0.01 s
speedup  0.94
cpu  time for grad    0.01 s
wall time for grad    0.01 s
 E :    -45.35497695  G :  0.016068    pred/act E change: -0.279D-03 -0.259D-03
Maxdispl :   0.2392   ||displ|| :   0.4007   Lambda : -0.742D-03
Largest |displ|/coords:  0.2392 (   6)  0.1668 (   8)  0.1377 (   3)
................................................................................
.............................. CYCLE   39 ......................................
................................................................................
   1    -45.6114778 -0.456115E+02  0.201E-01    8.22       0.0  T
   2    -45.6114928 -0.150209E-04  0.149E-01    8.21       1.0  T
   3    -45.6115041 -0.112422E-04  0.255E-02    8.18       1.0  T
   4    -45.6115058 -0.173219E-05  0.903E-03    8.19       2.3  T
   5    -45.6115059 -0.989900E-07  0.299E-03    8.19       7.0  T
   6    -45.6115059 -0.121972E-07  0.154E-03    8.19      13.5  T
speedup  0.89
cpu  time for SCC    0.00 s
wall time for SCC    0.00 s
speedup  1.00
cpu  time for grad    0.01 s
wall time for grad    0.01 s
 E :    -45.35497578  G :  0.027863    pred/act E change: -0.325D-03  0.117D-05
Maxdispl :   0.1534   ||displ|| :   0.2677   Lambda : -0.109D-02
Largest |displ|/coords:  0.1534 (   3)  0.1020 (   8)  0.0902 (   7)
................................................................................
.............................. CYCLE   40 ......................................
................................................................................
   1    -45.6058631 -0.456059E+02  0.151E-01    8.11       0.0  T
   2    -45.6058742 -0.110991E-04  0.111E-01    8.10       1.0  T
   3    -45.6058801 -0.597952E-05  0.228E-02    8.08       1.0  T
   4    -45.6058813 -0.120310E-05  0.629E-03    8.08       3.3  T
   5    -45.6058814 -0.880773E-07  0.224E-03    8.08       9.3  T
   6    -45.6058814 -0.509627E-08  0.126E-03    8.08      16.5  T
speedup  0.89
cpu  time for SCC    0.00 s
wall time for SCC    0.00 s
speedup  1.01
cpu  time for grad    0.01 s
wall time for grad    0.01 s
 E :    -45.35538991  G :  0.019481    pred/act E change: -0.431D-03 -0.414D-03
Maxdispl :   0.1902   ||displ|| :   0.3565   Lambda : -0.136D-02
Largest |displ|/coords:  0.1902 (   3)  0.1428 (   5)  0.1347 (   4)
................................................................................
.............................. CYCLE   41 ......................................
................................................................................
   1    -45.6045004 -0.456045E+02  0.251E-01    8.10       0.0  T
   2    -45.6045263 -0.259008E-04  0.181E-01    8.13       1.0  T
   3    -45.6045391 -0.128569E-04  0.319E-02    8.19       1.0  T
   4    -45.6045422 -0.304942E-05  0.811E-03    8.18       2.6  T
   5    -45.6045423 -0.716213E-07  0.334E-03    8.18       6.2  T
   6    -45.6045423 -0.130952E-07  0.155E-03    8.18      13.5  T
   7    -45.6045423 -0.483990E-08  0.487E-04    8.18      42.8  T
speedup  0.96
cpu  time for SCC    0.00 s
wall time for SCC    0.01 s
speedup  1.03
cpu  time for grad    0.01 s
wall time for grad    0.01 s
 E :    -45.35535706  G :  0.028826    pred/act E change: -0.583D-03  0.329D-04
Maxdispl :   0.1399   ||displ|| :   0.2782   Lambda : -0.133D-02
Largest |displ|/coords:  0.1399 (   6)  0.1289 (   3)  0.0936 (   8)
................................................................................
.............................. CYCLE   42 ......................................
................................................................................
   1    -45.6067639 -0.456068E+02  0.148E-01    8.14       0.0  T
   2    -45.6067762 -0.123677E-04  0.108E-01    8.11       1.0  T
   3    -45.6067831 -0.688437E-05  0.216E-02    8.07       1.0  T
   4    -45.6067847 -0.156897E-05  0.575E-03    8.08       3.6  T
   5    -45.6067847 -0.480727E-07  0.246E-03    8.08       8.5  T
speedup  1.08
cpu  time for SCC    0.00 s
wall time for SCC    0.00 s
speedup  1.07
cpu  time for grad    0.01 s
wall time for grad    0.01 s
 E :    -45.35617837  G :  0.012896    pred/act E change: -0.764D-03 -0.821D-03
Maxdispl :   0.1984   ||displ|| :   0.3486   Lambda : -0.954D-03
Largest |displ|/coords:  0.1984 (   8)  0.1409 (   3)  0.1039 (   6)
................................................................................
.............................. CYCLE   43 ......................................
................................................................................
   1    -45.6092382 -0.456092E+02  0.193E-01    8.01       0.0  T
   2    -45.6092579 -0.197018E-04  0.140E-01    7.98       1.0  T
   3    -45.6092681 -0.102359E-04  0.347E-02    7.92       1.0  T
   4    -45.6092704 -0.232285E-05  0.877E-03    7.93       2.4  T
   5    -45.6092705 -0.118629E-06  0.319E-03    7.93       6.5  T
   6    -45.6092706 -0.151735E-07  0.160E-03    7.93      13.1  T
   7    -45.6092706 -0.665106E-08  0.629E-04    7.93      33.2  T
speedup  1.15
cpu  time for SCC    0.01 s
wall time for SCC    0.01 s
speedup  1.03
cpu  time for grad    0.01 s
wall time for grad    0.01 s
 E :    -45.35652734  G :  0.020753    pred/act E change: -0.718D-03 -0.349D-03
Maxdispl :   0.0938   ||displ|| :   0.2155   Lambda : -0.770D-03
Largest |displ|/coords:  0.0938 (   3)  0.0687 (  14)  0.0628 (   8)
................................................................................
.............................. CYCLE   44 ......................................
................................................................................
   1    -45.6085633 -0.456086E+02  0.110E-01    7.91       0.0  T
   2    -45.6085705 -0.721541E-05  0.796E-02    7.92       1.0  T
   3    -45.6085734 -0.284665E-05  0.234E-02    7.91       1.0  T
   4    -45.6085742 -0.792389E-06  0.569E-03    7.91       3.7  T
   5    -45.6085742 -0.468280E-07  0.153E-03    7.91      13.6  T
speedup  0.81
cpu  time for SCC    0.00 s
wall time for SCC    0.00 s
speedup  0.97
cpu  time for grad    0.01 s
wall time for grad    0.01 s
 E :    -45.35703254  G :  0.014003    pred/act E change: -0.535D-03 -0.505D-03
Maxdispl :   0.1241   ||displ|| :   0.3075   Lambda : -0.986D-03
Largest |displ|/coords:  0.1241 (   3)  0.1178 (   1)  0.1109 (   2)
................................................................................
.............................. CYCLE   45 ......................................
................................................................................
   1    -45.6097353 -0.456097E+02  0.218E-01    8.06       0.0  T
   2    -45.6097657 -0.303961E-04  0.157E-01    8.10       1.0  T
   3    -45.6097768 -0.111280E-04  0.329E-02    8.18       1.0  T
   4    -45.6097803 -0.351805E-05  0.813E-03    8.16       2.6  T
   5    -45.6097804 -0.105010E-06  0.299E-03    8.16       7.0  T
   6    -45.6097804 -0.122415E-07  0.162E-03    8.16      12.9  T
speedup  1.11
cpu  time for SCC    0.01 s
wall time for SCC    0.00 s
speedup  1.00
cpu  time for grad    0.01 s
wall time for grad    0.01 s
 E :    -45.35722695  G :  0.016665    pred/act E change: -0.403D-03 -0.194D-03
Maxdispl :   0.2418   ||displ|| :   0.4479   Lambda : -0.104D-02
Largest |displ|/coords:  0.2418 (   8)  0.1612 (   3)  0.1358 (  14)
................................................................................
.............................. CYCLE   46 ......................................
................................................................................
   1    -45.6022188 -0.456022E+02  0.245E-01    8.02       0.0  T
   2    -45.6022419 -0.230448E-04  0.181E-01    8.00       1.0  T
   3    -45.6022603 -0.184024E-04  0.347E-02    7.96       1.0  T
   4    -45.6022628 -0.247872E-05  0.105E-02    7.96       2.0  T
   5    -45.6022630 -0.182182E-06  0.397E-03    7.96       5.3  T
   6    -45.6022630 -0.219252E-07  0.214E-03    7.96       9.7  T
   7    -45.6022630 -0.121451E-07  0.661E-04    7.96      31.5  T
speedup  0.96
cpu  time for SCC    0.01 s
wall time for SCC    0.01 s
speedup  1.03
cpu  time for grad    0.01 s
wall time for grad    0.01 s
 E :    -45.35742276  G :  0.018119    pred/act E change: -0.540D-03 -0.196D-03
Maxdispl :   0.1204   ||displ|| :   0.2104   Lambda : -0.101D-02
Largest |displ|/coords:  0.1204 (  14)  0.0934 (   8)  0.0740 (   3)
................................................................................
.............................. CYCLE   47 ......................................
................................................................................
   1    -45.6106153 -0.456106E+02  0.135E-01    8.04       0.0  T
   2    -45.6106296 -0.142612E-04  0.961E-02    8.02       1.0  T
   3    -45.6106355 -0.598125E-05  0.271E-02    8.00       1.0  T
   4    -45.6106369 -0.133859E-05  0.495E-03    8.01       4.2  T
   5    -45.6106369 -0.295657E-07  0.213E-03    8.01       9.8  T
   6    -45.6106369 -0.450093E-08  0.891E-04    8.01      23.4  T
speedup  1.09
cpu  time for SCC    0.00 s
wall time for SCC    0.00 s
speedup  0.99
cpu  time for grad    0.01 s
wall time for grad    0.01 s
 E :    -45.35776980  G :  0.011518    pred/act E change: -0.623D-03 -0.347D-03
Maxdispl :   0.0785   ||displ|| :   0.1188   Lambda : -0.371D-03
Largest |displ|/coords:  0.0785 (   7)  0.0412 (   8)  0.0285 (  22)
................................................................................
.............................. CYCLE   48 ......................................
................................................................................
   1    -45.6103093 -0.456103E+02  0.909E-02    8.07       0.0  T
   2    -45.6103129 -0.364627E-05  0.671E-02    8.09       1.0  T
   3    -45.6103147 -0.175892E-05  0.118E-02    8.11       1.8  T
   4    -45.6103152 -0.508513E-06  0.293E-03    8.11       7.1  T
   5    -45.6103152 -0.133522E-07  0.102E-03    8.11      20.5  T
speedup  1.05
cpu  time for SCC    0.00 s
wall time for SCC    0.00 s
speedup  0.97
cpu  time for grad    0.01 s
wall time for grad    0.01 s
 E :    -45.35796335  G :  0.007467    pred/act E change: -0.529D-03 -0.194D-03
Maxdispl :   0.1196   ||displ|| :   0.2089   Lambda : -0.268D-03
Largest |displ|/coords:  0.1196 (   8)  0.0831 (   6)  0.0655 (   2)
................................................................................
.............................. CYCLE   49 ......................................
................................................................................
   1    -45.6079074 -0.456079E+02  0.134E-01    8.06       0.0  T
   2    -45.6079130 -0.559832E-05  0.979E-02    8.06       1.0  T
   3    -45.6079173 -0.430544E-05  0.166E-02    8.07       1.3  T
   4    -45.6079179 -0.593369E-06  0.484E-03    8.06       4.3  T
   5    -45.6079179 -0.354525E-07  0.185E-03    8.06      11.2  T
   6    -45.6079179 -0.546034E-08  0.984E-04    8.07      21.2  T
speedup  0.89
cpu  time for SCC    0.00 s
wall time for SCC    0.00 s
speedup  1.00
cpu  time for grad    0.01 s
wall time for grad    0.01 s
 E :    -45.35809255  G :  0.010270    pred/act E change: -0.188D-03 -0.129D-03
Maxdispl :   0.1407   ||displ|| :   0.2588   Lambda : -0.333D-03
Largest |displ|/coords:  0.1407 (   3)  0.0902 (   8)  0.0701 (  14)
................................................................................
.............................. CYCLE   50 ......................................
................................................................................
   1    -45.6070584 -0.456071E+02  0.143E-01    8.11       0.0  T
   2    -45.6070630 -0.463112E-05  0.105E-01    8.12       1.0  T
   3    -45.6070677 -0.469131E-05  0.136E-02    8.13       1.5  T
   4    -45.6070680 -0.302404E-06  0.549E-03    8.13       3.8  T
   5    -45.6070680 -0.321560E-07  0.174E-03    8.13      12.0  T
   6    -45.6070680 -0.336036E-08  0.959E-04    8.13      21.7  T
speedup  0.91
cpu  time for SCC    0.00 s
wall time for SCC    0.00 s
speedup  1.00
cpu  time for grad    0.01 s
wall time for grad    0.01 s
 E :    -45.35826462  G :  0.007355    pred/act E change: -0.140D-03 -0.172D-03
Maxdispl :   0.1110   ||displ|| :   0.2091   Lambda : -0.238D-03
Largest |displ|/coords:  0.1110 (   3)  0.0861 (  14)  0.0757 (   6)
................................................................................
.............................. CYCLE   51 ......................................
................................................................................
   1    -45.6080108 -0.456080E+02  0.902E-02    8.14       0.0  T
   2    -45.6080130 -0.216801E-05  0.663E-02    8.14       1.0  T
   3    -45.6080142 -0.122603E-05  0.937E-03    8.13       2.2  T
   4    -45.6080145 -0.288099E-06  0.278E-03    8.14       7.5  T
   5    -45.6080145 -0.898041E-08  0.962E-04    8.14      21.7  T
speedup  1.03
cpu  time for SCC    0.00 s
wall time for SCC    0.00 s
speedup  1.06
cpu  time for grad    0.01 s
wall time for grad    0.01 s
 E :    -45.35842796  G :  0.006434    pred/act E change: -0.178D-03 -0.163D-03
Maxdispl :   0.1277   ||displ|| :   0.2261   Lambda : -0.209D-03
Largest |displ|/coords:  0.1277 (  14)  0.0815 (   6)  0.0718 (   8)
................................................................................
.............................. CYCLE   52 ......................................
................................................................................
   1    -45.6087809 -0.456088E+02  0.122E-01    8.15       0.0  T
   2    -45.6087842 -0.331558E-05  0.887E-02    8.16       1.0  T
   3    -45.6087871 -0.282545E-05  0.130E-02    8.17       1.6  T
   4    -45.6087873 -0.238595E-06  0.441E-03    8.17       4.7  T
   5    -45.6087873 -0.222133E-07  0.129E-03    8.17      16.1  T
   6    -45.6087873 -0.188140E-08  0.777E-04    8.17      26.8  T
speedup  1.11
cpu  time for SCC    0.00 s
wall time for SCC    0.00 s
speedup  1.07
cpu  time for grad    0.01 s
wall time for grad    0.01 s
 E :    -45.35855021  G :  0.006888    pred/act E change: -0.124D-03 -0.122D-03
Maxdispl :   0.0871   ||displ|| :   0.1878   Lambda : -0.116D-03
Largest |displ|/coords:  0.0871 (   3)  0.0762 (   8)  0.0724 (   6)

generating ANC from model Hessian ...
 Shifting diagonal of input Hessian by   4.963420285838639E-003
 Lowest  eigenvalues of input Hessian
   -0.000000   -0.000000   -0.000000   -0.000000    0.000000    0.000000
    0.005000    0.005277    0.005596    0.006359    0.006411    0.007497
    0.007906    0.008651    0.010607    0.011583    0.013183    0.014622
 Highest eigenvalues
    1.385125    1.396348    1.419436    2.583436    3.358661    3.724675
 
cpu  time for ANC gen    0.01 s
wall time for ANC gen    0.01 s
................................................................................
.............................. CYCLE   53 ......................................
................................................................................
   1    -45.6079380 -0.456079E+02  0.843E-02    8.16       0.0  T
   2    -45.6079400 -0.204632E-05  0.605E-02    8.16       1.0  T
   3    -45.6079413 -0.131333E-05  0.142E-02    8.16       1.5  T
   4    -45.6079415 -0.212222E-06  0.350E-03    8.16       6.0  T
   5    -45.6079416 -0.159613E-07  0.991E-04    8.16      21.0  T
   6    -45.6079416 -0.124555E-08  0.598E-04    8.16      34.9  T
speedup  1.11
cpu  time for SCC    0.00 s
wall time for SCC    0.00 s
speedup  1.04
cpu  time for grad    0.01 s
wall time for grad    0.01 s
 E :    -45.35862702  G :  0.006164    pred/act E change:  0.000D+00 -0.768D-04
Maxdispl :   0.0518   ||displ|| :   0.0847   Lambda : -0.127D-03
Largest |displ|/coords:  0.0518 (  10)  0.0232 (   2)  0.0229 (   1)
................................................................................
.............................. CYCLE   54 ......................................
................................................................................
   1    -45.6079503 -0.456080E+02  0.714E-02    8.19       0.0  T
   2    -45.6079511 -0.886803E-06  0.530E-02    8.19       1.0  T
   3    -45.6079521 -0.926334E-06  0.547E-03    8.19       3.8  T
   4    -45.6079521 -0.540352E-07  0.188E-03    8.19      11.1  T
   5    -45.6079521 -0.346181E-08  0.719E-04    8.19      29.0  T
speedup  1.05
cpu  time for SCC    0.00 s
wall time for SCC    0.00 s
speedup  1.06
cpu  time for grad    0.01 s
wall time for grad    0.01 s
 E :    -45.35871625  G :  0.003292    pred/act E change:  0.000D+00 -0.892D-04
Maxdispl :   0.0495   ||displ|| :   0.1115   Lambda : -0.903D-04
Largest |displ|/coords:  0.0495 (   1)  0.0419 (   9)  0.0405 (   2)
................................................................................
.............................. CYCLE   55 ......................................
................................................................................
   1    -45.6079678 -0.456080E+02  0.797E-02    8.23       0.0  T
   2    -45.6079690 -0.115875E-05  0.591E-02    8.23       1.0  T
   3    -45.6079701 -0.106154E-05  0.755E-03    8.23       2.8  T
   4    -45.6079702 -0.105844E-06  0.269E-03    8.23       7.8  T
   5    -45.6079702 -0.702417E-08  0.835E-04    8.23      25.0  T
   6    -45.6079702 -0.888150E-09  0.429E-04    8.23      48.6  T
speedup  0.85
cpu  time for SCC    0.00 s
wall time for SCC    0.00 s
speedup  0.94
cpu  time for grad    0.01 s
wall time for grad    0.01 s
 E :    -45.35877612  G :  0.002795    pred/act E change: -0.638D-04 -0.599D-04
Maxdispl :   0.0716   ||displ|| :   0.1320   Lambda : -0.603D-04
Largest |displ|/coords:  0.0716 (   7)  0.0623 (   1)  0.0542 (   2)
................................................................................
.............................. CYCLE   56 ......................................
................................................................................
   1    -45.6080857 -0.456081E+02  0.762E-02    8.25       0.0  T
   2    -45.6080869 -0.112914E-05  0.567E-02    8.25       1.0  T
   3    -45.6080879 -0.995962E-06  0.900E-03    8.24       2.3  T
   4    -45.6080880 -0.128938E-06  0.287E-03    8.24       7.3  T
   5    -45.6080880 -0.826599E-08  0.792E-04    8.24      26.3  T
   6    -45.6080880 -0.645230E-09  0.458E-04    8.24      45.5  T
speedup  1.11
cpu  time for SCC    0.00 s
wall time for SCC    0.00 s
speedup  1.04
cpu  time for grad    0.01 s
wall time for grad    0.01 s
 E :    -45.35882165  G :  0.003127    pred/act E change: -0.457D-04 -0.455D-04
Maxdispl :   0.1224   ||displ|| :   0.2311   Lambda : -0.886D-04
Largest |displ|/coords:  0.1224 (   7)  0.1056 (   2)  0.0996 (   1)
................................................................................
.............................. CYCLE   57 ......................................
................................................................................
   1    -45.6082947 -0.456083E+02  0.113E-01    8.25       0.0  T
   2    -45.6082976 -0.289466E-05  0.833E-02    8.24       1.0  T
   3    -45.6082999 -0.230025E-05  0.162E-02    8.23       1.3  T
   4    -45.6083002 -0.378007E-06  0.455E-03    8.23       4.6  T
   5    -45.6083003 -0.224417E-07  0.133E-03    8.23      15.7  T
   6    -45.6083003 -0.191366E-08  0.788E-04    8.23      26.5  T
   7    -45.6083003 -0.852538E-09  0.207E-04    8.24     100.7  T
speedup  0.91
cpu  time for SCC    0.00 s
wall time for SCC    0.01 s
speedup  0.96
cpu  time for grad    0.01 s
wall time for grad    0.01 s
 E :    -45.35888161  G :  0.002821    pred/act E change: -0.307D-04 -0.600D-04
Maxdispl :   0.1400   ||displ|| :   0.2449   Lambda : -0.693D-04
Largest |displ|/coords:  0.1400 (   7)  0.1242 (   2)  0.1010 (   1)
................................................................................
.............................. CYCLE   58 ......................................
................................................................................
   1    -45.6080905 -0.456081E+02  0.112E-01    8.21       0.0  T
   2    -45.6080932 -0.271766E-05  0.822E-02    8.20       1.0  T
   3    -45.6080954 -0.216466E-05  0.168E-02    8.19       1.2  T
   4    -45.6080957 -0.345248E-06  0.442E-03    8.19       4.7  T
   5    -45.6080958 -0.252945E-07  0.133E-03    8.19      15.6  T
   6    -45.6080958 -0.214119E-08  0.819E-04    8.19      25.5  T
   7    -45.6080958 -0.965279E-09  0.235E-04    8.19      88.6  T
speedup  1.11
cpu  time for SCC    0.01 s
wall time for SCC    0.01 s
speedup  1.05
cpu  time for grad    0.01 s
wall time for grad    0.01 s
 E :    -45.35892349  G :  0.003159    pred/act E change: -0.467D-04 -0.419D-04
Maxdispl :   0.0960   ||displ|| :   0.1709   Lambda : -0.474D-04
Largest |displ|/coords:  0.0960 (   7)  0.0945 (   2)  0.0544 (   1)
................................................................................
.............................. CYCLE   59 ......................................
................................................................................
   1    -45.6081211 -0.456081E+02  0.750E-02    8.17       0.0  T
   2    -45.6081224 -0.129493E-05  0.545E-02    8.16       1.0  T
   3    -45.6081234 -0.975673E-06  0.114E-02    8.16       1.8  T
   4    -45.6081235 -0.151708E-06  0.298E-03    8.16       7.0  T
   5    -45.6081235 -0.119255E-07  0.859E-04    8.16      24.3  T
   6    -45.6081235 -0.957300E-09  0.526E-04    8.16      39.7  T
speedup  0.87
cpu  time for SCC    0.00 s
wall time for SCC    0.00 s
speedup  0.95
cpu  time for grad    0.01 s
wall time for grad    0.01 s
 E :    -45.35895572  G :  0.003589    pred/act E change: -0.367D-04 -0.322D-04
Maxdispl :   0.0861   ||displ|| :   0.1389   Lambda : -0.427D-04
Largest |displ|/coords:  0.0861 (   2)  0.0709 (   7)  0.0434 (   1)
................................................................................
.............................. CYCLE   60 ......................................
................................................................................
   1    -45.6081412 -0.456081E+02  0.622E-02    8.15       0.0  T
   2    -45.6081420 -0.732331E-06  0.449E-02    8.15       1.0  T
   3    -45.6081425 -0.561374E-06  0.796E-03    8.15       2.6  T
   4    -45.6081426 -0.630041E-07  0.204E-03    8.15      10.2  T
   5    -45.6081426 -0.528901E-08  0.604E-04    8.15      34.5  T
   6    -45.6081426 -0.403240E-09  0.364E-04    8.15      57.3  T
speedup  0.87
cpu  time for SCC    0.00 s
wall time for SCC    0.00 s
speedup  0.95
cpu  time for grad    0.01 s
wall time for grad    0.01 s
 E :    -45.35898544  G :  0.003120    pred/act E change: -0.244D-04 -0.297D-04
Maxdispl :   0.0797   ||displ|| :   0.1215   Lambda : -0.269D-04
Largest |displ|/coords:  0.0797 (   2)  0.0622 (   7)  0.0393 (   1)
................................................................................
.............................. CYCLE   61 ......................................
................................................................................
   1    -45.6077514 -0.456078E+02  0.550E-02    8.15       0.0  T
   2    -45.6077518 -0.444122E-06  0.400E-02    8.15       1.0  T
   3    -45.6077522 -0.404198E-06  0.592E-03    8.16       3.5  T
   4    -45.6077522 -0.288491E-07  0.150E-03    8.16      13.9  T
   5    -45.6077523 -0.288215E-08  0.502E-04    8.16      41.6  T
   6    -45.6077523 -0.243745E-09  0.298E-04    8.16      69.9  T
speedup  0.89
cpu  time for SCC    0.00 s
wall time for SCC    0.00 s
speedup  1.04
cpu  time for grad    0.01 s
wall time for grad    0.01 s
 E :    -45.35900254  G :  0.002045    pred/act E change: -0.217D-04 -0.171D-04
Maxdispl :   0.0470   ||displ|| :   0.0636   Lambda : -0.116D-04
Largest |displ|/coords:  0.0470 (   2)  0.0241 (   7)  0.0161 (   1)
................................................................................
.............................. CYCLE   62 ......................................
................................................................................
   1    -45.6077446 -0.456077E+02  0.284E-02    8.17       0.0  T
   2    -45.6077447 -0.141975E-06  0.208E-02    8.17       1.0  T
   3    -45.6077448 -0.131473E-06  0.284E-03    8.18       7.3  T
   4    -45.6077448 -0.109365E-07  0.795E-04    8.18      26.2  T
   5    -45.6077448 -0.100958E-08  0.300E-04    8.18      69.4  T
speedup  1.05
cpu  time for SCC    0.00 s
wall time for SCC    0.00 s
speedup  1.02
cpu  time for grad    0.01 s
wall time for grad    0.01 s
 E :    -45.35901047  G :  0.001282    pred/act E change: -0.136D-04 -0.793D-05
Maxdispl :   0.0625   ||displ|| :   0.0787   Lambda : -0.909D-05
Largest |displ|/coords:  0.0625 (   2)  0.0316 (   7)  0.0182 (   1)
................................................................................
.............................. CYCLE   63 ......................................
................................................................................
   1    -45.6076231 -0.456076E+02  0.334E-02    8.19       0.0  T
   2    -45.6076233 -0.185977E-06  0.246E-02    8.19       1.0  T
   3    -45.6076235 -0.154234E-06  0.363E-03    8.19       5.7  T
   4    -45.6076235 -0.188437E-07  0.110E-03    8.19      19.0  T
   5    -45.6076235 -0.152017E-08  0.336E-04    8.19      62.0  T
   6    -45.6076235 -0.141100E-09  0.206E-04    8.19     101.3  T
speedup  1.11
cpu  time for SCC    0.00 s
wall time for SCC    0.00 s
speedup  1.03
cpu  time for grad    0.01 s
wall time for grad    0.01 s
 E :    -45.35901652  G :  0.001168    pred/act E change: -0.581D-05 -0.605D-05
Maxdispl :   0.0392   ||displ|| :   0.0481   Lambda : -0.535D-05
Largest |displ|/coords:  0.0392 (   2)  0.0161 (   3)  0.0093 (   7)
................................................................................
.............................. CYCLE   64 ......................................
................................................................................
   1    -45.6078647 -0.456079E+02  0.209E-02    8.20       0.0  T
   2    -45.6078648 -0.787675E-07  0.155E-02    8.20       1.3  T
   3    -45.6078649 -0.597743E-07  0.212E-03    8.20       9.8  T
   4    -45.6078649 -0.921751E-08  0.688E-04    8.20      30.3  T
   5    -45.6078649 -0.547317E-09  0.197E-04    8.20     105.7  T
speedup  0.79
cpu  time for SCC    0.00 s
wall time for SCC    0.00 s
speedup  0.93
cpu  time for grad    0.01 s
wall time for grad    0.01 s
 E :    -45.35902016  G :  0.001001    pred/act E change: -0.457D-05 -0.364D-05
Maxdispl :   0.0479   ||displ|| :   0.0566   Lambda : -0.368D-05
Largest |displ|/coords:  0.0479 (   2)  0.0167 (   3)  0.0124 (   7)
................................................................................
.............................. CYCLE   65 ......................................
................................................................................
   1    -45.6078808 -0.456079E+02  0.245E-02    8.20       0.0  T
   2    -45.6078809 -0.110227E-06  0.180E-02    8.20       1.2  T
   3    -45.6078810 -0.775634E-07  0.301E-03    8.19       6.9  T
   4    -45.6078810 -0.134652E-07  0.816E-04    8.19      25.6  T
   5    -45.6078810 -0.790742E-09  0.238E-04    8.19      87.7  T
speedup  1.05
cpu  time for SCC    0.00 s
wall time for SCC    0.00 s
speedup  1.02
cpu  time for grad    0.01 s
wall time for grad    0.01 s
 E :    -45.35902269  G :  0.000793    pred/act E change: -0.268D-05 -0.252D-05
Maxdispl :   0.0284   ||displ|| :   0.0398   Lambda : -0.284D-05
Largest |displ|/coords:  0.0284 (   2)  0.0217 (   3)  0.0078 (   7)
[...]
.............................. CYCLE  126 ......................................
................................................................................
   1    -45.6072037 -0.456072E+02  0.896E-03    8.12       0.0  T
   2    -45.6072037 -0.201681E-07  0.672E-03    8.12       3.1  T
   3    -45.6072037 -0.134823E-07  0.101E-03    8.12      20.6  T
   4    -45.6072037 -0.295525E-08  0.432E-04    8.12      48.3  T
   5    -45.6072037 -0.161485E-09  0.890E-05    8.12     234.2  T
speedup  0.79
cpu  time for SCC    0.00 s
wall time for SCC    0.00 s
speedup  0.92
cpu  time for grad    0.01 s
wall time for grad    0.01 s
 E :    -45.36040854  G :  0.000623    pred/act E change: -0.331D-05 -0.921D-06
Maxdispl :   0.0081   ||displ|| :   0.0123   Lambda : -0.909D-06
Largest |displ|/coords:  0.0081 (   1)  0.0046 (   8)  0.0045 (   3)
................................................................................
.............................. CYCLE  127 ......................................
................................................................................
   1    -45.6073374 -0.456073E+02  0.783E-03    8.12       0.0  T
   2    -45.6073374 -0.223836E-07  0.588E-03    8.12       3.5  T
   3    -45.6073374 -0.135669E-07  0.103E-03    8.12      20.2  T
   4    -45.6073374 -0.351268E-08  0.416E-04    8.12      50.1  T
   5    -45.6073374 -0.189345E-09  0.887E-05    8.12     235.0  T
speedup  0.79
cpu  time for SCC    0.00 s
wall time for SCC    0.00 s
speedup  0.92
cpu  time for grad    0.01 s
wall time for grad    0.01 s
 E :    -45.36040919  G :  0.000436    pred/act E change: -0.707D-06 -0.649D-06
Maxdispl :   0.0072   ||displ|| :   0.0134   Lambda : -0.624D-06
Largest |displ|/coords:  0.0072 (   3)  0.0069 (   1)  0.0044 (   8)
................................................................................
.............................. CYCLE  128 ......................................
................................................................................
   1    -45.6074442 -0.456074E+02  0.839E-03    8.12       0.0  T
   2    -45.6074442 -0.235563E-07  0.633E-03    8.12       3.3  T
   3    -45.6074442 -0.170895E-07  0.101E-03    8.12      20.6  T
   4    -45.6074442 -0.350372E-08  0.420E-04    8.12      49.6  T
   5    -45.6074442 -0.199584E-09  0.980E-05    8.12     212.7  T
speedup  0.79
cpu  time for SCC    0.00 s
wall time for SCC    0.00 s
speedup  0.92
cpu  time for grad    0.01 s
wall time for grad    0.01 s
 E :    -45.36040963  G :  0.000422    pred/act E change: -0.455D-06 -0.442D-06
Maxdispl :   0.0060   ||displ|| :   0.0114   Lambda : -0.446D-06
Largest |displ|/coords:  0.0060 (   3)  0.0052 (   1)  0.0046 (   2)
................................................................................
.............................. CYCLE  129 ......................................
................................................................................
   1    -45.6075088 -0.456075E+02  0.726E-03    8.12       0.0  T
   2    -45.6075088 -0.176900E-07  0.547E-03    8.12       3.8  T
   3    -45.6075088 -0.151292E-07  0.826E-04    8.11      25.2  T
   4    -45.6075088 -0.221797E-08  0.359E-04    8.11      58.0  T
speedup  1.00
cpu  time for SCC    0.00 s
wall time for SCC    0.00 s
speedup  0.98
cpu  time for grad    0.01 s
wall time for grad    0.01 s
 E :    -45.36040996  G :  0.000418    pred/act E change: -0.312D-06 -0.326D-06
Maxdispl :   0.0046   ||displ|| :   0.0074   Lambda : -0.379D-06
Largest |displ|/coords:  0.0046 (   2)  0.0028 (   1)  0.0020 (   3)
................................................................................
.............................. CYCLE  130 ......................................
................................................................................
   1    -45.6075413 -0.456075E+02  0.486E-03    8.11       0.0  T
   2    -45.6075413 -0.110788E-07  0.366E-03    8.11       5.7  T
   3    -45.6075413 -0.103353E-07  0.613E-04    8.11      34.0  T
   4    -45.6075413 -0.112780E-08  0.255E-04    8.11      81.7  T
speedup  1.00
cpu  time for SCC    0.00 s
wall time for SCC    0.00 s
speedup  0.99
cpu  time for grad    0.01 s
wall time for grad    0.01 s
 E :    -45.36041026  G :  0.000387    pred/act E change: -0.223D-06 -0.296D-06
Maxdispl :   0.0058   ||displ|| :   0.0087   Lambda : -0.352D-06
Largest |displ|/coords:  0.0058 (   2)  0.0029 (   3)  0.0029 (   1)
................................................................................
.............................. CYCLE  131 ......................................
................................................................................
   1    -45.6075400 -0.456075E+02  0.542E-03    8.11       0.0  T
   2    -45.6075400 -0.147803E-07  0.408E-03    8.11       5.1  T
   3    -45.6075400 -0.141863E-07  0.694E-04    8.11      30.1  T
   4    -45.6075400 -0.145896E-08  0.238E-04    8.11      87.7  T
speedup  0.97
cpu  time for SCC    0.00 s
wall time for SCC    0.00 s
speedup  0.98
cpu  time for grad    0.01 s
wall time for grad    0.01 s
 E :    -45.36041051  G :  0.000334    pred/act E change: -0.190D-06 -0.254D-06
Maxdispl :   0.0032   ||displ|| :   0.0052   Lambda : -0.221D-06
Largest |displ|/coords:  0.0032 (   2)  0.0021 (   3)  0.0014 (   7)
................................................................................
.............................. CYCLE  132 ......................................
................................................................................
   1    -45.6075499 -0.456075E+02  0.345E-03    8.11       0.0  T
   2    -45.6075499 -0.660118E-08  0.261E-03    8.11       8.0  T
   3    -45.6075499 -0.550846E-08  0.463E-04    8.11      45.0  T
   4    -45.6075499 -0.800561E-09  0.127E-04    8.11     164.2  T
speedup  1.33
cpu  time for SCC    0.00 s
wall time for SCC    0.00 s
speedup  1.09
cpu  time for grad    0.01 s
wall time for grad    0.01 s
 E :    -45.36041068  G :  0.000295    pred/act E change: -0.176D-06 -0.168D-06
Maxdispl :   0.0036   ||displ|| :   0.0055   Lambda : -0.254D-06
Largest |displ|/coords:  0.0036 (   2)  0.0019 (   7)  0.0013 (  16)
................................................................................
.............................. CYCLE  133 ......................................
................................................................................
   1    -45.6075566 -0.456076E+02  0.381E-03    8.11       0.0  T
   2    -45.6075567 -0.122772E-07  0.287E-03    8.11       7.3  T
   3    -45.6075567 -0.838696E-08  0.627E-04    8.10      33.3  T
   4    -45.6075567 -0.164961E-08  0.186E-04    8.10     112.3  T
speedup  1.00
cpu  time for SCC    0.00 s
wall time for SCC    0.00 s
speedup  0.98
cpu  time for grad    0.01 s
wall time for grad    0.01 s
 E :    -45.36041085  G :  0.000240    pred/act E change: -0.111D-06 -0.177D-06
Maxdispl :   0.0018   ||displ|| :   0.0037   Lambda : -0.165D-06
Largest |displ|/coords:  0.0018 (   3)  0.0013 (   2)  0.0012 (   7)
................................................................................
.............................. CYCLE  134 ......................................
................................................................................
   1    -45.6075819 -0.456076E+02  0.340E-03    8.10       0.0  T
   2    -45.6075819 -0.815709E-08  0.256E-03    8.10       8.2  T
   3    -45.6075819 -0.406573E-08  0.516E-04    8.10      40.4  T
   4    -45.6075819 -0.126095E-08  0.174E-04    8.10     119.7  T
speedup  0.97
cpu  time for SCC    0.00 s
wall time for SCC    0.00 s
speedup  0.98
cpu  time for grad    0.01 s
wall time for grad    0.01 s
 E :    -45.36041098  G :  0.000203    pred/act E change: -0.127D-06 -0.128D-06
Maxdispl :   0.0015   ||displ|| :   0.0038   Lambda : -0.157D-06
Largest |displ|/coords:  0.0015 (   2)  0.0012 (   8)  0.0012 (  11)
................................................................................
.............................. CYCLE  135 ......................................
................................................................................
   1    -45.6076098 -0.456076E+02  0.329E-03    8.10       0.0  T
   2    -45.6076099 -0.170358E-07  0.246E-03    8.10       8.5  T
   3    -45.6076099 -0.790145E-08  0.779E-04    8.10      26.8  T
   4    -45.6076099 -0.170503E-08  0.278E-04    8.10      74.9  T
speedup  1.00
cpu  time for SCC    0.00 s
wall time for SCC    0.00 s
speedup  0.98
cpu  time for grad    0.01 s
wall time for grad    0.01 s
 E :    -45.36041110  G :  0.000168    pred/act E change: -0.824D-07 -0.115D-06
Maxdispl :   0.0008   ||displ|| :   0.0025   Lambda : -0.930D-07
Largest |displ|/coords:  0.0008 (   4)  0.0007 (   9)  0.0007 (   7)
................................................................................
.............................. CYCLE  136 ......................................
................................................................................
   1    -45.6076302 -0.456076E+02  0.222E-03    8.10       0.0  T
   2    -45.6076302 -0.756290E-08  0.164E-03    8.10      12.7  T
   3    -45.6076302 -0.298776E-08  0.551E-04    8.10      37.9  T
   4    -45.6076302 -0.618336E-09  0.184E-04    8.10     113.5  T
speedup  0.94
cpu  time for SCC    0.00 s
wall time for SCC    0.00 s
speedup  0.97
cpu  time for grad    0.01 s
wall time for grad    0.01 s
 E :    -45.36041117  G :  0.000137    pred/act E change: -0.783D-07 -0.758D-07
Maxdispl :   0.0015   ||displ|| :   0.0039   Lambda : -0.100D-06
Largest |displ|/coords:  0.0015 (   7)  0.0014 (   8)  0.0012 (   6)

   *** GEOMETRY OPTIMIZATION CONVERGED AFTER 136 ITERATIONS ***

------------------------------------------------------------------------
 total energy gain (kcal):     -0.1640
------------------------------------------------------------------------
================
 final structure:
================
$coord
       -0.62277949978400       -0.44685485777381       -3.23750795641161      S 
       -2.40143707873013        0.79563746179370       -1.51766637343573      O 
        1.87098641333102       -0.68647417929768       -1.99144194351995      O 
       -1.48084963611483       -2.75918180888534       -4.30001587192336      O 
       -0.20199114760357        1.49714768511528       -5.47442404207255      O 
        0.05694788578694        3.13769403548356       -4.74466201051765      H 
        1.10966086596817        1.11646072668996        4.92038893805702      O 
        2.17553532924485       -0.00312029524978        5.86470177774704      H 
       -0.56532408862988        5.23072290407853       -1.36378414851230      O 
       -1.66087036023264        6.52686884126385       -0.72840159909694      H 
       -1.54628376814193        3.62135540778508       -1.32401085860557      H 
       -2.33839462373620       -1.65173747432753        2.95634313670839      O 
       -0.34833882513748        0.04699313219816        4.27245144243776      H 
       -2.77704964177291       -0.71675348386919        1.43616440956955      H 
       -1.56244632198533       -3.21832572704870        2.29731752434926      H 
        3.01628992671333        2.72601534964787        0.88230344771561      O 
        2.30409346284802        2.12358414130934        2.63198174961796      H 
        2.61459656444625        1.11462865778196       -0.43901660818597      H 
        1.85444639091844        4.06259314540970        0.24014702264611      H 
       -0.09336655002306       -5.37711586935114        0.31997569507138      N 
       -0.78321470436243       -4.76162569217132       -1.36757679981896      H 
       -0.42196592671127       -7.26019942763009        0.43016993343395      H 
        1.80175531513993       -5.11831263522537        0.23656315387928      H 
$end
 
 Bond Distances (Angstroems)
 ---------------------------
S1-O2=1.4651         S1-O3=1.4807         S1-O4=1.4211         S1-O5=1.5840         O2-S1=1.4651         O3-S1=1.4807         
O4-S1=1.4211         O5-S1=1.5840         O5-H6=0.9600         H6-O5=0.9600         O7-H8=0.9586         O7-H13=1.0164        
H8-O7=0.9586         O9-H10=0.9590        O9-H11=0.9976        H10-O9=0.9590        H11-O9=0.9976        O12-H14=0.9725       
O12-H15=0.9887       H13-O7=1.0164        H14-O12=0.9725       H15-O12=0.9887       O16-H17=1.0493       O16-H18=1.1230       
O16-H19=0.9969       H17-O16=1.0493       H18-O16=1.1230       H19-O16=0.9969       N20-H21=1.0182       N20-H22=1.0132       
N20-H23=1.0131       H21-N20=1.0182       H22-N20=1.0132       H23-N20=1.0131       
 N  H  Rav=1.0149 sigma=0.0024  Rmin=1.0131  Rmax=1.0182     3
 O  H  Rav=1.0022 sigma=0.0487  Rmin=0.9586  Rmax=1.1230    10
 S  O  Rav=1.4877 sigma=0.0597  Rmin=1.4211  Rmax=1.5840     4
 
 selected bond angles (degree)
 --------------------
O3-S1-O2=109.53                O4-S1-O2=115.27                O4-S1-O3=112.78                O5-S1-O2=105.25                
O5-S1-O3=105.26                O5-S1-O4=107.97                H6-O5-S1=107.86                H13-O7-H8=106.16               
H11-O9-H10=106.78              
 
 selected dihedral angles (degree)
 ---------------------------------
H6-O5-S1-O2= 45.40            H6-O5-S1-O3=289.71            H6-O5-S1-O4=169.02            
 
 CMA Distance (Angstroems)
 ---------------------------
R(CMA):  2.6162

========================================================================
 FINAL SINGLEPOINT CALCULATION ON OPTIMIZED GEOMETRY
========================================================================

 Ncao       : 59
 Nao        : 58
 Nshell     : 34
 Nel        : 72
 T(el)      :   300.0
 intcut     :    25.0
 scfconv/Eh :  0.100E-05
   qconv/e  :  0.100E-03
 intneglect :  0.100E-07
 broydamp   :      0.250
 iter      E             dE          RMSdq      gap      omega  full diag
   1    -45.6076302 -0.456076E+02  0.694E-05    8.10       0.0  T
   2    -45.6076302 -0.399325E-11  0.426E-05    8.10     489.4  T
   3    -45.6076302 -0.179767E-11  0.867E-06    8.10    2405.7  T
speedup  1.30
cpu  time for SCC    0.00 s
wall time for SCC    0.00 s

   *** convergence criteria satisfied after 3 iterations ***

          eigenvalues
 #    :          24         25         26         27         28         29         30         31
 occ. :        2.000      2.000      2.000      2.000      2.000      2.000      2.000      2.000
 eps  :       -13.718    -13.650    -13.517    -13.011    -12.752    -12.672    -12.616    -12.505
 #    :          32         33         34         35         36         37         38         39
 occ. :        2.000      2.000      2.000      2.000      2.000      0.000      0.000      0.000
 eps  :       -12.346    -12.176    -12.027    -11.769    -10.884     -2.782     -0.596     -0.579
 #    :          40         41         42         43         44         45         46         47
 occ. :        0.000      0.000      0.000      0.000      0.000      0.000      0.000      0.000
 eps  :         0.586      1.025      1.121      1.720      2.967      4.398      4.844      5.735


   #   Z            q   n(s)   n(p)   n(d)      C6AA      α(0)
   1  16 S      1.695  1.580  1.775  0.949    88.878    15.867
   2   8 O     -0.757  1.775  4.981  0.000    30.298     7.380
   3   8 O     -0.722  1.771  4.951  0.000    29.101     7.241
   4   8 O     -0.665  1.754  4.911  0.000    27.763     7.064
   5   8 O     -0.597  1.755  4.843  0.000    25.094     6.763
   6   1 H      0.361  0.639  0.000  0.000     0.559     1.172
   7   8 O     -0.612  1.754  4.858  0.000    25.457     6.811
   8   1 H      0.293  0.707  0.000  0.000     0.742     1.353
   9   8 O     -0.641  1.751  4.890  0.000    26.201     6.908
  10   1 H      0.298  0.702  0.000  0.000     0.726     1.338
  11   1 H      0.336  0.664  0.000  0.000     0.621     1.238
  12   8 O     -0.623  1.751  4.872  0.000    25.749     6.849
  13   1 H      0.354  0.646  0.000  0.000     0.580     1.197
  14   1 H      0.311  0.689  0.000  0.000     0.688     1.303
  15   1 H      0.315  0.685  0.000  0.000     0.678     1.294
  16   8 O     -0.526  1.739  4.788  0.000    23.402     6.534
  17   1 H      0.385  0.615  0.000  0.000     0.511     1.122
  18   1 H      0.394  0.606  0.000  0.000     0.486     1.089
  19   1 H      0.365  0.635  0.000  0.000     0.554     1.170
  20   7 N     -0.462  1.377  4.085  0.000    32.175     8.424
  21   1 H      0.181  0.819  0.000  0.000     1.210     1.723
  22   1 H      0.158  0.842  0.000  0.000     1.348     1.818
  23   1 H      0.160  0.840  0.000  0.000     1.337     1.811

 Mol. C6AA /au·bohr⁶  :       4525.838403
 Mol. C8AA /au·bohr⁸  :      99463.999058
 Mol. α(0) /au        :         97.470189

 
 Wiberg/Mayer (AO) data. WBOs > 0.1 written file <wbo>
 largest (>0.05) Wiberg bond orders for each atom
           total WBO             WBO to atom ...
     1  S   4.852    O    4 1.464    O    2 1.247    O    3 1.194    O    5 0.907
     2  O   1.726    S    1 1.247    O    4 0.109    O    3 0.103    H   11 0.095    O    5 0.076
     3  O   1.803    S    1 1.194    H   18 0.264    O    2 0.103    O    4 0.097    O    5 0.072    O   16 0.067
     4  O   1.801    S    1 1.464    O    2 0.109    O    3 0.097    O    5 0.068
     5  O   1.971    S    1 0.907    H    6 0.837    O    2 0.076    O    3 0.072    O    4 0.068
     6  H   0.870    O    5 0.837
     7  O   1.953    H    8 0.910    H   13 0.746    H   17 0.178    O   16 0.062    O   12 0.051
     8  H   0.914    O    7 0.910
     9  O   1.869    H   10 0.904    H   11 0.786    H   19 0.081
    10  H   0.911    O    9 0.904
    11  H   0.887    O    9 0.786    O    2 0.095
    12  O   1.920    H   14 0.858    H   15 0.818    H   13 0.128    O    7 0.051
    13  H   0.875    O    7 0.746    O   12 0.128
    14  H   0.903    O   12 0.858
    15  H   0.901    O   12 0.818    N   20 0.079
    16  O   2.211    H   19 0.782    H   17 0.672    H   18 0.568    O    3 0.067    O    7 0.062
    17  H   0.852    O   16 0.672    O    7 0.178
    18  H   0.845    O   16 0.568    O    3 0.264
    19  H   0.867    O   16 0.782    O    9 0.081
    20  N   3.018    H   22 0.971    H   23 0.971    H   21 0.938    H   15 0.079
    21  H   0.967    N   20 0.938
    22  H   0.975    N   20 0.971
    23  H   0.974    N   20 0.971
 MOs/occ written to file <molden.input>
 
molecular dipole:
                 x           y           z       tot (Debye)
 q only:        0.949       1.110       1.446
   full:        0.801       0.889       0.915       3.828
molecular quadrupole (traceless):
                xx          xy          yy          xz          yz          zz
 q only:       -2.348      -4.362      10.845       2.420      -7.514      -8.497
  q+dip:       -4.069      -8.735      13.941       3.916      -7.480      -9.872
   full:       -4.456      -8.728      14.595       4.116      -7.758     -10.139

SCC energy    :     -45.6076302
rep           :       0.2470144
ES            :       0.2119858
AES           :      -0.0579386
AXC           :      -0.0061605
disp          :      -0.0171398
XB            :       0.0000000
fix           :       0.0000000
total E       :     -45.3604112
atomizationE  :       4.4434737     2788.32
(atE without considering molecular charge,
 total energy contains solvation terms)
H-L gap (eV)  :          8.1024
optimized geometry written to: xtbopt.xyz


------------------------------------------------------------------------
 * finished run on 2019/09/16 at 11:47:45.041     
------------------------------------------------------------------------
 total:
 * wall-time:     0 d,  0 h,  0 min,  2.664 sec
 *  cpu-time:     0 d,  0 h,  0 min,  2.596 sec
 * ratio c/w:     0.974 speedup
 SCF:
 * wall-time:     0 d,  0 h,  0 min,  0.115 sec
 *  cpu-time:     0 d,  0 h,  0 min,  0.112 sec
 * ratio c/w:     0.971 speedup
 ANC optimizer:
 * wall-time:     0 d,  0 h,  0 min,  2.508 sec
 *  cpu-time:     0 d,  0 h,  0 min,  2.464 sec
 * ratio c/w:     0.982 speedup

