      -----------------------------------------------------------      
     |                   =====================                   |     
     |                           x T B                           |     
     |                   =====================                   |     
     |                         S. Grimme                         |     
     |          Mulliken Center for Theoretical Chemistry        |     
     |                    University of Bonn                     |     
     |                 Version 6.0.1 (SAW181210)                 |     
      -----------------------------------------------------------      

   This program is distributed in the hope that it will be useful,
   but WITHOUT ANY WARRANTY; without even the implied warranty of
   MERCHANTABILITY or FITNESS FOR A PARTICULAR PURPOSE.
   
   FOR NON-COMMERCIAL, ACADEMIA USE ONLY.
   
   Cite this work as:
   S. Grimme, C. Bannwarth, P. Shushkov, J. Comput. Theory Chem., 2017,
   13, 1989-2009.
   C. Bannwarth, S. Ehlert and S. Grimme., ChemRxiv, 2018, preprint.
   http://doi.org/10.26434/chemrxiv.7246238.v1
   
   for sTDA-xTB:
   S. Grimme and C. Bannwarth, J. Chem. Phys., 2016, 145, 054103.
   
   in the mass-spec context:
   V. Asgeirsson, C. Bauer and S. Grimme, Chem. Sci., 2017, 8, 4879.
   
   if GBSA is used:
   P. Shushkov, F. März and S. Grimme, unpublished.
   
   for ANC optimizer:
   S. Grimme, unpublished.
   Rational Function algorithm used in ANCopt:
   F. Eckert, P. Pulay, H.-J. Werner, J. Comput. Chem., 1997, 18, 1473.
   
   with help from (in alphabetical order)
   C. Bannwarth, F. Bohle, G. Brandenburg, E. Caldeweyher, M. Checinski,
   S. Dohm, S. Ehlert, S. Ehrlich, F. März, H. Neugebauer, J. Pisarek,
   P. Pracht, P. Shushkov, and S. Spicher.
   
 * started run on 2019/09/16 at 11:59:53.637     
========================================================================
 # omp threads = 1
========================================================================
number of atoms            : 23
number of electrons        : 72
charge                     : 0
spin                       : .0
first test random number   : .7304

########################################################################
# WARNING! Please study the warnings concerning your input carefully
#  - XTBPATH is not set, using XTBHOME instead
#  - the use of '-opt' is discouraged, please use '--opt' next time
#  - the use of '-chrg' is discouraged, please use '--chrg' next time
#  - the use of '-uhf' is discouraged, please use '--uhf' next time
########################################################################

           ------------------------------------------------- 
          |                 G F N 2 - x T B                 |
          | Geometry, Frequencies, Noncovalent interactions |
          |            JCTC 2018 parametrisation            |
           ------------------------------------------------- 
      method parameters     
 k(s)        :  1.8500
 k(p)        :  2.2300
 k(d)        :  2.2300
 k(f)        :  2.0000
 kEN (H0ij)  : -2.0000
 D4 a1       :  0.5200
 D4 a2       :  5.0000
 D4 s6       :  1.0000
 D4 s8       :  2.7000
 D4 s9       :  5.0000
 alphaj      :  2.0000


            Z     q(EN)     CN     RAES       Cart. coordinates
     1  S   6.0    0.64    4.27    4.18    -3.67140    -0.76258     1.59718
     2  O   6.0   -0.31    1.22    1.80    -4.11521     1.66274     0.23742
     3  O   6.0   -0.33    1.20    1.80    -1.98231    -2.40663     0.05699
     4  O   6.0   -0.30    1.23    1.80    -2.45754    -0.23656     4.08273
     5  O   6.0   -0.25    2.08    1.84    -6.09687    -2.05198     2.00590
     6  H   1.0    0.14    1.21    1.47    -6.87966    -2.39128     0.40490
     7  O   6.0   -0.39    1.66    1.81     3.25199     2.52293     0.66035
     8  H   1.0    0.17    0.95    1.42     4.87409     3.39255     0.35004
     9  O   6.0   -0.28    1.97    1.82     3.19708    -2.26447     0.56978
    10  H   1.0    0.17    1.09    1.44     3.38600    -0.46991     0.32792
    11  H   1.0    0.17    1.02    1.43     1.44157    -2.61306     0.23617
    12  O   6.0   -0.22    2.93    2.60    -0.13846     3.08879    -2.28819
    13  H   1.0    0.12    1.06    1.44     0.02527     1.75088    -3.58165
    14  H   1.0    0.15    1.06    1.44    -1.77914     3.00594    -1.39864
    15  H   1.0    0.16    1.21    1.47     1.30223     3.09106    -1.09827
    16  O   6.0   -0.22    2.91    2.57     2.27412     0.74955     4.71618
    17  H   1.0    0.16    1.06    1.44     0.42347     0.55405     4.87957
    18  H   1.0    0.13    0.96    1.43     3.15870    -0.89534     4.75962
    19  H   1.0    0.16    1.20    1.46     2.74097     1.75450     3.21164
    20  N   5.0   -0.22    3.03    1.93     0.22598    -1.30756    -4.93304
    21  H   1.0    0.12    1.01    1.43    -0.63560    -2.11315    -3.40997
    22  H   1.0    0.11    0.99    1.43     2.04301    -1.94684    -4.90496
    23  H   1.0    0.11    0.99    1.43    -0.58830    -2.11363    -6.48167

  Z AO/shell   Hii/eV     exponent
  1     Wed Apr 25 08:07:45 CEST 2018   EN: 2.200 GM2: 0.406  GM3: 0.0800  RAES: 1.40
     1s    -10.707211    1.230000
  7     Wed Apr 25 08:07:45 CEST 2018   EN: 3.040 GM2: 0.461  GM3:-0.0640  RAES: 1.90
     2s    -16.686243    2.339881
     2p    -12.523956    2.014332
  8     Wed Apr 25 08:07:45 CEST 2018   EN: 3.440 GM2: 0.452  GM3:-0.0517  RAES: 1.80
     2s    -20.229985    2.439742
     2p    -15.503117    2.137023
 16     Tue Apr 24 11:44:34 CEST 2018   EN: 2.580 GM2: 0.340  GM3:-0.0502  RAES: 3.10
     3s    -20.029654    1.981333
     3p    -11.377694    2.025643
     3d     -0.420282    1.702555
 no old-style atom pair restraining (fixing) potential

molecular fragmentation (1/2 indicates fragments):
11111122222222222222222
# atoms in fragment 1/2:     6    17
 fragment masses (1/2) :       97.07       90.10
CMA distance (Bohr)    :   5.880
constraining FC (au)   :  0.0500
           ------------------------------------------------- 
          |        Self-Consistent Charge Iterations        |
           ------------------------------------------------- 

 Ncao       : 59
 Nao        : 58
 Nshell     : 34
 Nel        : 72
 T(el)      :   300.0
 intcut     :    25.0
 scfconv/Eh :  0.100E-05
   qconv/e  :  0.100E-03
 intneglect :  0.100E-07
 broydamp   :      0.250
 iter      E             dE          RMSdq      gap      omega  full diag
   1    -45.4622249 -0.454622E+02  0.718E+00   10.12       0.0  T
   2    -45.5071930 -0.449681E-01  0.519E+00    9.59       1.0  T
   3    -45.5410155 -0.338225E-01  0.140E+00    7.53       1.0  T
   4    -45.5460191 -0.500358E-02  0.578E-01    7.92       1.0  T
   5    -45.5466462 -0.627151E-03  0.324E-01    7.94       1.0  T
   6    -45.5470695 -0.423261E-03  0.140E-01    8.03       1.0  T
   7    -45.5471691 -0.996292E-04  0.480E-02    8.02       1.0  T
   8    -45.5471787 -0.964315E-05  0.310E-02    8.01       1.0  T
   9    -45.5471844 -0.566749E-05  0.637E-03    8.03       3.3  T
  10    -45.5471846 -0.173818E-06  0.212E-03    8.03       9.8  T
  11    -45.5471846 -0.957964E-08  0.121E-03    8.03      17.3  T
  12    -45.5471846 -0.643787E-08  0.439E-04    8.03      47.5  T
  13    -45.5471846 -0.900371E-09  0.143E-04    8.03     145.8  T
speedup  0.98
cpu  time for SCC    0.01 s
wall time for SCC    0.01 s

   *** convergence criteria satisfied after 13 iterations ***

          eigenvalues
 #    :          24         25         26         27         28         29         30         31
 occ. :        2.000      2.000      2.000      2.000      2.000      2.000      2.000      2.000
 eps  :       -12.965    -12.913    -12.430    -12.000    -11.848    -11.567    -11.271    -11.190
 #    :          32         33         34         35         36         37         38         39
 occ. :        2.000      2.000      2.000      2.000      2.000      0.000      0.000      0.000
 eps  :       -11.176    -10.955    -10.723    -10.527    -10.072     -2.043     -0.327     -0.158
 #    :          40         41         42         43         44         45         46         47
 occ. :        0.000      0.000      0.000      0.000      0.000      0.000      0.000      0.000
 eps  :         0.354      1.053      1.231      2.562      3.616      3.886      5.178      5.670


   #   Z            q   n(s)   n(p)   n(d)      C6AA      α(0)
   1  16 S      1.606  1.583  1.835  0.976    90.937    16.050
   2   8 O     -0.760  1.775  4.985  0.000    30.386     7.391
   3   8 O     -0.763  1.777  4.986  0.000    30.473     7.401
   4   8 O     -0.733  1.763  4.970  0.000    29.621     7.297
   5   8 O     -0.543  1.720  4.823  0.000    23.842     6.592
   6   1 H      0.358  0.642  0.000  0.000     0.560     1.171
   7   8 O     -0.852  1.830  5.021  0.000    33.117     7.718
   8   1 H      0.212  0.788  0.000  0.000     1.061     1.619
   9   8 O     -0.685  1.763  4.922  0.000    27.306     7.053
  10   1 H      0.312  0.688  0.000  0.000     0.684     1.299
  11   1 H      0.294  0.706  0.000  0.000     0.741     1.352
  12   8 O     -0.453  1.653  4.801  0.000    21.853     6.314
  13   1 H      0.382  0.618  0.000  0.000     0.520     1.133
  14   1 H      0.394  0.606  0.000  0.000     0.497     1.107
  15   1 H      0.404  0.596  0.000  0.000     0.470     1.073
  16   8 O     -0.426  1.650  4.777  0.000    21.312     6.235
  17   1 H      0.408  0.592  0.000  0.000     0.471     1.078
  18   1 H      0.385  0.615  0.000  0.000     0.513     1.125
  19   1 H      0.414  0.586  0.000  0.000     0.454     1.056
  20   7 N     -0.460  1.384  4.076  0.000    32.127     8.418
  21   1 H      0.197  0.803  0.000  0.000     1.121     1.659
  22   1 H      0.165  0.835  0.000  0.000     1.306     1.790
  23   1 H      0.145  0.855  0.000  0.000     1.436     1.877

 Mol. C6AA /au·bohr⁶  :       4565.500476
 Mol. C8AA /au·bohr⁸  :     100585.216141
 Mol. α(0) /au        :         97.806707

 
 Wiberg/Mayer (AO) data. WBOs > 0.1 written file <wbo>
 largest (>0.05) Wiberg bond orders for each atom
           total WBO             WBO to atom ...
     1  S   4.910    O    4 1.311    O    3 1.289    O    2 1.277    O    5 0.994
     2  O   1.687    S    1 1.277    O    3 0.115    O    4 0.111    H   14 0.081    O    5 0.071
     3  O   1.670    S    1 1.289    O    2 0.115    O    4 0.113    O    5 0.074
     4  O   1.715    S    1 1.311    O    3 0.113    O    2 0.111    H   17 0.085    O    5 0.053
     5  O   2.046    S    1 0.994    H    6 0.848    O    3 0.074    O    2 0.071    O    4 0.053
     6  H   0.871    O    5 0.848
     7  O   1.610    H    8 0.946    H   15 0.200    H   19 0.198    H   10 0.087    O   12 0.062    O   16 0.060
     8  H   0.955    O    7 0.946
     9  O   1.778    H   11 0.878    H   10 0.813
    10  H   0.902    O    9 0.813    O    7 0.087
    11  H   0.914    O    9 0.878
    12  O   2.288    H   13 0.762    H   14 0.756    H   15 0.631    O    7 0.062
    13  H   0.854    O   12 0.762    N   20 0.086
    14  H   0.845    O   12 0.756    O    2 0.081
    15  H   0.836    O   12 0.631    O    7 0.200
    16  O   2.307    H   18 0.835    H   17 0.739    H   19 0.623    O    7 0.060
    17  H   0.834    O   16 0.739    O    4 0.085
    18  H   0.852    O   16 0.835
    19  H   0.829    O   16 0.623    O    7 0.198
    20  N   3.019    H   23 0.973    H   22 0.970    H   21 0.934    H   13 0.086
    21  H   0.961    N   20 0.934
    22  H   0.973    N   20 0.970
    23  H   0.979    N   20 0.973
 MOs/occ written to file <molden.input>
 
molecular dipole:
                 x           y           z       tot (Debye)
 q only:        0.419       0.532      -0.632
   full:       -0.190      -0.142      -0.800       2.122
molecular quadrupole (traceless):
                xx          xy          yy          xz          yz          zz
 q only:       -3.192       6.785      -6.291      11.875       0.014       9.484
  q+dip:        1.905      10.716      -7.777       9.867       2.709       5.873
   full:        2.593      11.227      -8.149       9.984       2.592       5.556

SCC energy    :     -45.5471846
rep           :       0.2562781
ES            :       0.2702116
AES           :      -0.0643782
AXC           :      -0.0066130
disp          :      -0.0168076
XB            :       0.0000000
fix           :       0.0000000
total E       :     -45.2906763
atomizationE  :       4.3737388     2744.56
(atE without considering molecular charge,
 total energy contains solvation terms)
H-L gap (eV)  :          8.0295
           ------------------------------------------------- 
          |                 ===============                 |
          |                   A N C O P T                   |
          |                 ===============                 |
          |          Approximate Normal Coordinate          |
          |           Rational Function Optimizer           |
           ------------------------------------------------- 
dumping coords to <xtbopt.coord> and <xtbopt.log>
 optlevel               2
 Maxcycle             460
 Maxmicro              25
 Econv         1.000000000000000E-007
 Gconv         2.000000000000000E-004
 Maxdispl       1.00000000000000     
 Hlow          5.000000000000000E-003
 S6             20.0000000000000     
 Nvar               63

generating ANC from model Hessian ...
 Shifting diagonal of input Hessian by   4.558476096399774E-003
 Lowest  eigenvalues of input Hessian
   -0.000000   -0.000000   -0.000000   -0.000000    0.000000    0.000000
    0.005000    0.005437    0.006330    0.006356    0.006779    0.007006
    0.007313    0.008241    0.009134    0.010374    0.011174    0.012332
 Highest eigenvalues
    1.555076    1.581297    1.584941    3.141788    3.213684    3.318522
 
cpu  time for ANC gen    0.01 s
wall time for ANC gen    0.02 s
................................................................................
.............................. CYCLE    1 ......................................
................................................................................
   1    -45.5471846 -0.455472E+02  0.770E-05    8.03       0.0  T
   2    -45.5471846 -0.102744E-10  0.600E-05    8.03     347.5  T
   3    -45.5471846 -0.118447E-10  0.291E-05    8.03     716.2  T
speedup  0.83
cpu  time for SCC    0.00 s
wall time for SCC    0.00 s
speedup  0.95
cpu  time for grad    0.01 s
wall time for grad    0.01 s
 E :    -45.29067628  G :  0.208897    pred/act E change:  0.000D+00  0.438D-07
Maxdispl :   0.1158   ||displ|| :   0.3213   Lambda : -0.335D-01
Largest |displ|/coords:  0.1158 (  17)  0.1088 (  47)  0.0976 (  26)
................................................................................
.............................. CYCLE    2 ......................................
................................................................................
   1    -45.5609140 -0.455609E+02  0.324E-01    8.16       0.0  T
   2    -45.5610960 -0.181963E-03  0.246E-01    8.21       1.0  T
   3    -45.5611774 -0.814764E-04  0.823E-02    8.30       1.0  T
   4    -45.5611925 -0.150394E-04  0.214E-02    8.29       1.0  T
   5    -45.5611932 -0.758439E-06  0.575E-03    8.28       3.6  T
   6    -45.5611933 -0.422721E-07  0.313E-03    8.28       6.7  T
speedup  1.09
cpu  time for SCC    0.00 s
wall time for SCC    0.00 s
speedup  0.98
cpu  time for grad    0.01 s
wall time for grad    0.01 s
 E :    -45.31729185  G :  0.129521    pred/act E change:  0.000D+00 -0.266D-01
Maxdispl :   0.1594   ||displ|| :   0.3461   Lambda : -0.174D-01
Largest |displ|/coords:  0.1594 (  26)  0.1455 (  17)  0.1172 (  16)
................................................................................
.............................. CYCLE    3 ......................................
................................................................................
   1    -45.5680273 -0.455680E+02  0.283E-01    8.39       0.0  T
   2    -45.5682634 -0.236133E-03  0.212E-01    8.45       1.0  T
   3    -45.5683625 -0.990657E-04  0.843E-02    8.55       1.0  T
   4    -45.5683741 -0.116226E-04  0.183E-02    8.53       1.1  T
   5    -45.5683745 -0.414046E-06  0.527E-03    8.53       4.0  T
   6    -45.5683746 -0.356541E-07  0.284E-03    8.53       7.3  T
speedup  1.09
cpu  time for SCC    0.00 s
wall time for SCC    0.00 s
speedup  0.98
cpu  time for grad    0.01 s
wall time for grad    0.01 s
 E :    -45.33118449  G :  0.083209    pred/act E change: -0.185D-01 -0.139D-01
Maxdispl :   0.1531   ||displ|| :   0.3482   Lambda : -0.873D-02
Largest |displ|/coords:  0.1531 (  16)  0.1288 (  11)  0.1169 (  17)
................................................................................
.............................. CYCLE    4 ......................................
................................................................................
   1    -45.5713075 -0.455713E+02  0.284E-01    8.64       0.0  T
   2    -45.5715498 -0.242301E-03  0.206E-01    8.70       1.0  T
   3    -45.5716492 -0.994132E-04  0.784E-02    8.77       1.0  T
   4    -45.5716607 -0.114903E-04  0.152E-02    8.76       1.4  T
   5    -45.5716610 -0.267259E-06  0.463E-03    8.76       4.5  T
   6    -45.5716610 -0.220939E-07  0.248E-03    8.76       8.4  T
speedup  0.91
cpu  time for SCC    0.00 s
wall time for SCC    0.00 s
speedup  1.08
cpu  time for grad    0.01 s
wall time for grad    0.01 s
 E :    -45.33811566  G :  0.055488    pred/act E change: -0.972D-02 -0.693D-02
Maxdispl :   0.1698   ||displ|| :   0.3094   Lambda : -0.450D-02
Largest |displ|/coords:  0.1698 (  16)  0.1179 (  11)  0.1018 (   6)
................................................................................
.............................. CYCLE    5 ......................................
................................................................................
   1    -45.5727445 -0.455727E+02  0.278E-01    8.80       0.0  T
   2    -45.5729099 -0.165397E-03  0.202E-01    8.84       1.0  T
   3    -45.5729760 -0.660798E-04  0.661E-02    8.91       1.0  T
   4    -45.5729883 -0.123209E-04  0.133E-02    8.90       1.6  T
   5    -45.5729886 -0.311257E-06  0.436E-03    8.90       4.8  T
   6    -45.5729886 -0.179444E-07  0.226E-03    8.90       9.2  T
speedup  0.89
cpu  time for SCC    0.00 s
wall time for SCC    0.00 s
speedup  0.98
cpu  time for grad    0.01 s
wall time for grad    0.01 s
 E :    -45.34183760  G :  0.041668    pred/act E change: -0.489D-02 -0.372D-02
Maxdispl :   0.2302   ||displ|| :   0.4189   Lambda : -0.648D-02
Largest |displ|/coords:  0.2302 (  16)  0.1237 (   7)  0.1207 (  11)
................................................................................
.............................. CYCLE    6 ......................................
................................................................................
   1    -45.5786587 -0.455787E+02  0.408E-01    8.91       0.0  T
   2    -45.5792171 -0.558408E-03  0.291E-01    8.98       1.0  T
   3    -45.5794495 -0.232345E-03  0.111E-01    9.07       1.0  T
   4    -45.5794721 -0.226268E-04  0.232E-02    9.08       1.0  T
   5    -45.5794730 -0.925219E-06  0.801E-03    9.08       2.6  T
   6    -45.5794731 -0.640636E-07  0.400E-03    9.08       5.2  T
   7    -45.5794731 -0.260882E-07  0.123E-03    9.08      17.0  T
speedup  0.94
cpu  time for SCC    0.00 s
wall time for SCC    0.01 s
speedup  1.00
cpu  time for grad    0.01 s
wall time for grad    0.01 s
 E :    -45.34617492  G :  0.033046    pred/act E change: -0.247D-02 -0.434D-02
Maxdispl :   0.1360   ||displ|| :   0.3659   Lambda : -0.312D-02
Largest |displ|/coords:  0.1360 (  16)  0.1319 (  11)  0.1050 (   8)
................................................................................
.............................. CYCLE    7 ......................................
................................................................................
   1    -45.5823708 -0.455824E+02  0.318E-01    8.97       0.0  T
   2    -45.5826280 -0.257111E-03  0.228E-01    9.00       1.0  T
   3    -45.5827390 -0.111032E-03  0.785E-02    9.05       1.0  T
   4    -45.5827547 -0.156899E-04  0.173E-02    9.05       1.2  T
   5    -45.5827553 -0.648383E-06  0.678E-03    9.05       3.1  T
   6    -45.5827554 -0.457332E-07  0.360E-03    9.05       5.8  T
   7    -45.5827554 -0.159679E-07  0.866E-04    9.05      24.1  T
speedup  0.96
cpu  time for SCC    0.00 s
wall time for SCC    0.01 s
speedup  1.00
cpu  time for grad    0.01 s
wall time for grad    0.01 s
 E :    -45.34811259  G :  0.039847    pred/act E change: -0.381D-02 -0.194D-02
Maxdispl :   0.1153   ||displ|| :   0.3616   Lambda : -0.372D-02
Largest |displ|/coords:  0.1153 (  16)  0.1123 (   4)  0.1095 (  25)
................................................................................
.............................. CYCLE    8 ......................................
................................................................................
   1    -45.5943763 -0.455944E+02  0.330E-01    8.99       0.0  T
   2    -45.5945700 -0.193773E-03  0.245E-01    9.01       1.0  T
   3    -45.5946643 -0.942676E-04  0.744E-02    9.03       1.0  T
   4    -45.5946839 -0.196265E-04  0.136E-02    9.02       1.5  T
   5    -45.5946841 -0.176296E-06  0.626E-03    9.03       3.3  T
   6    -45.5946841 -0.493622E-07  0.257E-03    9.03       8.1  T
   7    -45.5946842 -0.867310E-08  0.629E-04    9.02      33.1  T
speedup  0.93
cpu  time for SCC    0.01 s
wall time for SCC    0.01 s
speedup  0.99
cpu  time for grad    0.01 s
wall time for grad    0.01 s
 E :    -45.34959286  G :  0.050425    pred/act E change: -0.177D-02 -0.148D-02
Maxdispl :   0.1218   ||displ|| :   0.2814   Lambda : -0.482D-02
Largest |displ|/coords:  0.1218 (  16)  0.1158 (  13)  0.0934 (   7)
................................................................................
.............................. CYCLE    9 ......................................
................................................................................
   1    -45.5825910 -0.455826E+02  0.341E-01    9.06       0.0  T
   2    -45.5826758 -0.848755E-04  0.254E-01    9.05       1.0  T
   3    -45.5827284 -0.525429E-04  0.528E-02    9.03       1.0  T
   4    -45.5827386 -0.101890E-04  0.157E-02    9.04       1.3  T
   5    -45.5827388 -0.278112E-06  0.502E-03    9.04       4.2  T
   6    -45.5827389 -0.364047E-07  0.280E-03    9.04       7.5  T
speedup  0.89
cpu  time for SCC    0.00 s
wall time for SCC    0.00 s
speedup  0.98
cpu  time for grad    0.01 s
wall time for grad    0.01 s
 E :    -45.34972446  G :  0.065028    pred/act E change: -0.210D-02 -0.132D-03
Maxdispl :   0.1346   ||displ|| :   0.3147   Lambda : -0.821D-02
Largest |displ|/coords:  0.1346 (   8)  0.1223 (  16)  0.1101 (   7)
................................................................................
.............................. CYCLE   10 ......................................
................................................................................
   1    -45.5987268 -0.455987E+02  0.393E-01    9.09       0.0  T
   2    -45.5988629 -0.136143E-03  0.291E-01    9.09       1.0  T
   3    -45.5989566 -0.937096E-04  0.680E-02    9.09       1.0  T
   4    -45.5989709 -0.142716E-04  0.166E-02    9.09       1.3  T
   5    -45.5989714 -0.508912E-06  0.748E-03    9.09       2.8  T
   6    -45.5989714 -0.308962E-07  0.341E-03    9.09       6.1  T
   7    -45.5989715 -0.293408E-07  0.712E-04    9.09      29.3  T
speedup  1.18
cpu  time for SCC    0.01 s
wall time for SCC    0.01 s
speedup  1.02
cpu  time for grad    0.01 s
wall time for grad    0.01 s
 E :    -45.35078926  G :  0.060382    pred/act E change: -0.260D-02 -0.106D-02
Maxdispl :   0.1110   ||displ|| :   0.2999   Lambda : -0.699D-02
Largest |displ|/coords:  0.1110 (  22)  0.1106 (   9)  0.1049 (  19)
................................................................................
.............................. CYCLE   11 ......................................
................................................................................
   1    -45.5874356 -0.455874E+02  0.406E-01    9.01       0.0  T
   2    -45.5875248 -0.891931E-04  0.305E-01    9.04       1.0  T
   3    -45.5875870 -0.621972E-04  0.563E-02    9.09       1.0  T
   4    -45.5875984 -0.113991E-04  0.152E-02    9.07       1.4  T
   5    -45.5875987 -0.297370E-06  0.555E-03    9.07       3.8  T
   6    -45.5875987 -0.497901E-07  0.305E-03    9.07       6.8  T
speedup  0.89
cpu  time for SCC    0.00 s
wall time for SCC    0.00 s
speedup  0.98
cpu  time for grad    0.01 s
wall time for grad    0.01 s
 E :    -45.35200418  G :  0.055901    pred/act E change: -0.451D-02 -0.121D-02
Maxdispl :   0.1201   ||displ|| :   0.3056   Lambda : -0.658D-02
Largest |displ|/coords:  0.1201 (  21)  0.1092 (  22)  0.1090 (   5)
................................................................................
.............................. CYCLE   12 ......................................
................................................................................
   1    -45.6002319 -0.456002E+02  0.420E-01    9.13       0.0  T
   2    -45.6003249 -0.929797E-04  0.318E-01    9.13       1.0  T
   3    -45.6003948 -0.699662E-04  0.574E-02    9.07       1.0  T
   4    -45.6004070 -0.121199E-04  0.148E-02    9.12       1.4  T
   5    -45.6004073 -0.386377E-06  0.649E-03    9.12       3.2  T
   6    -45.6004074 -0.261430E-07  0.307E-03    9.12       6.8  T
   7    -45.6004074 -0.171030E-07  0.700E-04    9.12      29.8  T
speedup  0.96
cpu  time for SCC    0.01 s
wall time for SCC    0.01 s
speedup  1.01
cpu  time for grad    0.01 s
wall time for grad    0.01 s
 E :    -45.35302699  G :  0.052635    pred/act E change: -0.381D-02 -0.102D-02
Maxdispl :   0.1175   ||displ|| :   0.2805   Lambda : -0.482D-02
Largest |displ|/coords:  0.1175 (   2)  0.0990 (   5)  0.0835 (   4)
................................................................................
.............................. CYCLE   13 ......................................
................................................................................
   1    -45.5955018 -0.455955E+02  0.339E-01    9.04       0.0  T
   2    -45.5955589 -0.570416E-04  0.257E-01    9.07       1.0  T
   3    -45.5955996 -0.407403E-04  0.435E-02    9.12       1.0  T
   4    -45.5956074 -0.776832E-05  0.113E-02    9.09       1.8  T
   5    -45.5956075 -0.163387E-06  0.453E-03    9.09       4.6  T
   6    -45.5956076 -0.236181E-07  0.211E-03    9.09       9.9  T
speedup  1.14
cpu  time for SCC    0.00 s
wall time for SCC    0.00 s
speedup  0.99
cpu  time for grad    0.01 s
wall time for grad    0.01 s
 E :    -45.35469630  G :  0.034226    pred/act E change: -0.360D-02 -0.167D-02
Maxdispl :   0.0643   ||displ|| :   0.1470   Lambda : -0.158D-02
Largest |displ|/coords:  0.0643 (  14)  0.0595 (   4)  0.0447 (  25)
................................................................................
.............................. CYCLE   14 ......................................
................................................................................
   1    -45.5992725 -0.455993E+02  0.127E-01    9.13       0.0  T
   2    -45.5992811 -0.867472E-05  0.954E-02    9.12       1.0  T
   3    -45.5992884 -0.730604E-05  0.163E-02    9.10       1.3  T
   4    -45.5992895 -0.106469E-05  0.545E-03    9.10       3.8  T
   5    -45.5992895 -0.294881E-07  0.207E-03    9.10      10.1  T
speedup  1.08
cpu  time for SCC    0.00 s
wall time for SCC    0.00 s
speedup  1.06
cpu  time for grad    0.01 s
wall time for grad    0.01 s
 E :    -45.35588243  G :  0.026210    pred/act E change: -0.260D-02 -0.119D-02
Maxdispl :   0.1306   ||displ|| :   0.2862   Lambda : -0.286D-02
Largest |displ|/coords:  0.1306 (  25)  0.0968 (  10)  0.0907 (   4)
................................................................................
.............................. CYCLE   15 ......................................
................................................................................
   1    -45.6074928 -0.456075E+02  0.218E-01    9.16       0.0  T
   2    -45.6075377 -0.448924E-04  0.165E-01    9.13       1.0  T
   3    -45.6075749 -0.371965E-04  0.384E-02    9.06       1.0  T
   4    -45.6075806 -0.568214E-05  0.118E-02    9.08       1.8  T
   5    -45.6075807 -0.162767E-06  0.474E-03    9.08       4.4  T
   6    -45.6075807 -0.167111E-07  0.210E-03    9.08       9.9  T
speedup  1.14
cpu  time for SCC    0.00 s
wall time for SCC    0.00 s
speedup  0.99
cpu  time for grad    0.01 s
wall time for grad    0.01 s
 E :    -45.35752296  G :  0.024299    pred/act E change: -0.807D-03 -0.164D-02
Maxdispl :   0.1088   ||displ|| :   0.1953   Lambda : -0.139D-02
Largest |displ|/coords:  0.1088 (  27)  0.0821 (  25)  0.0429 (  60)
................................................................................
.............................. CYCLE   16 ......................................
................................................................................
   1    -45.6110013 -0.456110E+02  0.149E-01    9.09       0.0  T
   2    -45.6110165 -0.152117E-04  0.112E-01    9.09       1.0  T
   3    -45.6110288 -0.122393E-04  0.212E-02    9.08       1.0  T
   4    -45.6110304 -0.166932E-05  0.820E-03    9.08       2.5  T
   5    -45.6110305 -0.805775E-07  0.272E-03    9.08       7.7  T
   6    -45.6110305 -0.823850E-08  0.138E-03    9.08      15.1  T
speedup  1.11
cpu  time for SCC    0.00 s
wall time for SCC    0.00 s
speedup  0.99
cpu  time for grad    0.01 s
wall time for grad    0.01 s
 E :    -45.35817026  G :  0.017577    pred/act E change: -0.155D-02 -0.647D-03
Maxdispl :   0.0442   ||displ|| :   0.1294   Lambda : -0.603D-03
Largest |displ|/coords:  0.0442 (  14)  0.0424 (  27)  0.0407 (   5)
................................................................................
.............................. CYCLE   17 ......................................
................................................................................
   1    -45.6104885 -0.456105E+02  0.988E-02    9.05       0.0  T
   2    -45.6104983 -0.978291E-05  0.731E-02    9.05       1.0  T
   3    -45.6105037 -0.548739E-05  0.183E-02    9.05       1.1  T
   4    -45.6105050 -0.121939E-05  0.501E-03    9.05       4.2  T
   5    -45.6105050 -0.401291E-07  0.187E-03    9.05      11.2  T
   6    -45.6105050 -0.333998E-08  0.877E-04    9.05      23.8  T
speedup  0.89
cpu  time for SCC    0.00 s
wall time for SCC    0.00 s
speedup  0.99
cpu  time for grad    0.01 s
wall time for grad    0.01 s
 E :    -45.35846477  G :  0.008769    pred/act E change: -0.721D-03 -0.295D-03
Maxdispl :   0.0398   ||displ|| :   0.0811   Lambda : -0.228D-03
Largest |displ|/coords:  0.0398 (  14)  0.0316 (   9)  0.0307 (   2)
................................................................................
.............................. CYCLE   18 ......................................
................................................................................
   1    -45.6080189 -0.456080E+02  0.493E-02    9.06       0.0  T
   2    -45.6080209 -0.197573E-05  0.364E-02    9.06       1.0  T
   3    -45.6080222 -0.133008E-05  0.802E-03    9.07       2.6  T
   4    -45.6080224 -0.227368E-06  0.253E-03    9.07       8.2  T
   5    -45.6080224 -0.872318E-08  0.857E-04    9.06      24.3  T
speedup  0.81
cpu  time for SCC    0.00 s
wall time for SCC    0.00 s
speedup  0.96
cpu  time for grad    0.01 s
wall time for grad    0.01 s
 E :    -45.35851892  G :  0.006431    pred/act E change: -0.306D-03 -0.542D-04
Maxdispl :   0.0248   ||displ|| :   0.0500   Lambda : -0.109D-03
Largest |displ|/coords:  0.0248 (   4)  0.0188 (  14)  0.0151 (  13)
................................................................................
.............................. CYCLE   19 ......................................
................................................................................
   1    -45.6099951 -0.456100E+02  0.378E-02    9.07       0.0  T
   2    -45.6099959 -0.834965E-06  0.281E-02    9.07       1.0  T
   3    -45.6099966 -0.674333E-06  0.497E-03    9.06       4.2  T
   4    -45.6099966 -0.847347E-07  0.140E-03    9.06      14.9  T
   5    -45.6099966 -0.233087E-08  0.517E-04    9.06      40.3  T
speedup  0.79
cpu  time for SCC    0.00 s
wall time for SCC    0.00 s
speedup  0.96
cpu  time for grad    0.01 s
wall time for grad    0.01 s
 E :    -45.35857599  G :  0.002654    pred/act E change: -0.115D-03 -0.571D-04
Maxdispl :   0.0319   ||displ|| :   0.0562   Lambda : -0.510D-04
Largest |displ|/coords:  0.0319 (   1)  0.0239 (   2)  0.0173 (  12)
................................................................................
.............................. CYCLE   20 ......................................
................................................................................
   1    -45.6094100 -0.456094E+02  0.333E-02    9.06       0.0  T
   2    -45.6094106 -0.561551E-06  0.247E-02    9.06       1.0  T
   3    -45.6094108 -0.264167E-06  0.450E-03    9.06       4.6  T
   4    -45.6094109 -0.873419E-07  0.135E-03    9.06      15.4  T
   5    -45.6094109 -0.156643E-08  0.378E-04    9.06      55.2  T
   6    -45.6094109 -0.181608E-09  0.191E-04    9.06     109.2  T
speedup  0.82
cpu  time for SCC    0.00 s
wall time for SCC    0.00 s
speedup  0.92
cpu  time for grad    0.01 s
wall time for grad    0.01 s
 E :    -45.35859391  G :  0.003605    pred/act E change: -0.547D-04 -0.179D-04
Maxdispl :   0.0147   ||displ|| :   0.0298   Lambda : -0.285D-04
Largest |displ|/coords:  0.0147 (   2)  0.0094 (   4)  0.0092 (   5)
................................................................................
.............................. CYCLE   21 ......................................
................................................................................
   1    -45.6094401 -0.456094E+02  0.185E-02    9.06       0.0  T
   2    -45.6094402 -0.120603E-06  0.137E-02    9.06       1.5  T
   3    -45.6094402 -0.715282E-07  0.255E-03    9.06       8.2  T
   4    -45.6094403 -0.141541E-07  0.783E-04    9.06      26.6  T
   5    -45.6094403 -0.737941E-09  0.211E-04    9.06      99.0  T
speedup  1.08
cpu  time for SCC    0.00 s
wall time for SCC    0.00 s
speedup  1.02
cpu  time for grad    0.01 s
wall time for grad    0.01 s
 E :    -45.35861475  G :  0.002857    pred/act E change: -0.256D-04 -0.208D-04
Maxdispl :   0.0243   ||displ|| :   0.0588   Lambda : -0.375D-04
Largest |displ|/coords:  0.0243 (   2)  0.0220 (   4)  0.0213 (   1)
................................................................................
.............................. CYCLE   22 ......................................
................................................................................
   1    -45.6094799 -0.456095E+02  0.354E-02    9.06       0.0  T
   2    -45.6094804 -0.478549E-06  0.263E-02    9.07       1.0  T
   3    -45.6094806 -0.273396E-06  0.495E-03    9.07       4.2  T
   4    -45.6094807 -0.707313E-07  0.151E-03    9.07      13.8  T
   5    -45.6094807 -0.269871E-08  0.439E-04    9.07      47.5  T
   6    -45.6094807 -0.268230E-09  0.247E-04    9.07      84.6  T
speedup  0.91
cpu  time for SCC    0.00 s
wall time for SCC    0.00 s
speedup  0.96
cpu  time for grad    0.01 s
wall time for grad    0.01 s
 E :    -45.35863684  G :  0.002071    pred/act E change: -0.142D-04 -0.221D-04
Maxdispl :   0.0390   ||displ|| :   0.0669   Lambda : -0.265D-04
Largest |displ|/coords:  0.0390 (   2)  0.0286 (   1)  0.0249 (  16)
................................................................................
.............................. CYCLE   23 ......................................
................................................................................
   1    -45.6091391 -0.456091E+02  0.425E-02    9.07       0.0  T
   2    -45.6091396 -0.525076E-06  0.316E-02    9.07       1.0  T
   3    -45.6091399 -0.258711E-06  0.534E-03    9.07       3.9  T
   4    -45.6091400 -0.856981E-07  0.146E-03    9.07      14.3  T
   5    -45.6091400 -0.229834E-08  0.456E-04    9.07      45.7  T
   6    -45.6091400 -0.267306E-09  0.244E-04    9.07      85.3  T
speedup  1.14
cpu  time for SCC    0.00 s
wall time for SCC    0.00 s
speedup  1.03
cpu  time for grad    0.01 s
wall time for grad    0.01 s
 E :    -45.35865345  G :  0.003280    pred/act E change: -0.188D-04 -0.166D-04
Maxdispl :   0.0411   ||displ|| :   0.0718   Lambda : -0.282D-04
Largest |displ|/coords:  0.0411 (   2)  0.0292 (   1)  0.0272 (  16)
................................................................................
.............................. CYCLE   24 ......................................
................................................................................
   1    -45.6092196 -0.456092E+02  0.445E-02    9.07       0.0  T
   2    -45.6092201 -0.467137E-06  0.332E-02    9.07       1.0  T
   3    -45.6092203 -0.256297E-06  0.529E-03    9.08       3.9  T
   4    -45.6092204 -0.745490E-07  0.157E-03    9.08      13.3  T
   5    -45.6092204 -0.230496E-08  0.439E-04    9.08      47.5  T
   6    -45.6092204 -0.252349E-09  0.260E-04    9.07      80.2  T
speedup  0.89
cpu  time for SCC    0.00 s
wall time for SCC    0.00 s
speedup  0.95
cpu  time for grad    0.01 s
wall time for grad    0.01 s
 E :    -45.35867397  G :  0.002978    pred/act E change: -0.133D-04 -0.205D-04
Maxdispl :   0.0621   ||displ|| :   0.1041   Lambda : -0.411D-04
Largest |displ|/coords:  0.0621 (   2)  0.0434 (  16)  0.0333 (   1)
................................................................................
.............................. CYCLE   25 ......................................
................................................................................
   1    -45.6091848 -0.456092E+02  0.634E-02    9.08       0.0  T
   2    -45.6091857 -0.879239E-06  0.472E-02    9.08       1.0  T
   3    -45.6091862 -0.438491E-06  0.709E-03    9.09       2.9  T
   4    -45.6091863 -0.144548E-06  0.240E-03    9.09       8.7  T
   5    -45.6091863 -0.461857E-08  0.591E-04    9.09      35.3  T
   6    -45.6091863 -0.469583E-09  0.356E-04    9.09      58.5  T
speedup  0.89
cpu  time for SCC    0.00 s
wall time for SCC    0.00 s
speedup  1.03
cpu  time for grad    0.01 s
wall time for grad    0.01 s
 E :    -45.35869900  G :  0.003678    pred/act E change: -0.142D-04 -0.250D-04
Maxdispl :   0.0467   ||displ|| :   0.0769   Lambda : -0.310D-04
Largest |displ|/coords:  0.0467 (   2)  0.0314 (  16)  0.0301 (   4)

generating ANC from model Hessian ...
 Shifting diagonal of input Hessian by   4.802510492035786E-003
 Lowest  eigenvalues of input Hessian
   -0.000000   -0.000000    0.000000    0.000000    0.000000    0.000000
    0.005000    0.005148    0.005672    0.005846    0.007399    0.008004
    0.008398    0.009624    0.010357    0.011464    0.011855    0.014263
 Highest eigenvalues
    1.385329    1.407701    1.424198    2.625997    3.374965    3.709723
 
cpu  time for ANC gen    0.02 s
wall time for ANC gen    0.02 s
................................................................................
.............................. CYCLE   26 ......................................
................................................................................
   1    -45.6095440 -0.456095E+02  0.475E-02    9.09       0.0  T
   2    -45.6095444 -0.362698E-06  0.353E-02    9.09       1.0  T
   3    -45.6095447 -0.274756E-06  0.485E-03    9.09       4.3  T
   4    -45.6095447 -0.407213E-07  0.182E-03    9.09      11.4  T
   5    -45.6095447 -0.251968E-08  0.407E-04    9.09      51.3  T
   6    -45.6095447 -0.151253E-09  0.265E-04    9.09      78.8  T
speedup  0.89
cpu  time for SCC    0.00 s
wall time for SCC    0.00 s
speedup  0.96
cpu  time for grad    0.01 s
wall time for grad    0.01 s
 E :    -45.35871857  G :  0.003687    pred/act E change:  0.000D+00 -0.196D-04
Maxdispl :   0.0371   ||displ|| :   0.0769   Lambda : -0.876D-04
Largest |displ|/coords:  0.0371 (   1)  0.0314 (   8)  0.0257 (   2)
................................................................................
.............................. CYCLE   27 ......................................
................................................................................
   1    -45.6094225 -0.456094E+02  0.847E-02    9.08       0.0  T
   2    -45.6094232 -0.692391E-06  0.643E-02    9.08       1.0  T
   3    -45.6094241 -0.892023E-06  0.393E-03    9.09       5.3  T
   4    -45.6094241 -0.320074E-07  0.163E-03    9.09      12.8  T
   5    -45.6094241 -0.202198E-08  0.642E-04    9.09      32.5  T
   6    -45.6094241 -0.475744E-09  0.226E-04    9.09      92.1  T
speedup  1.11
cpu  time for SCC    0.00 s
wall time for SCC    0.00 s
speedup  1.04
cpu  time for grad    0.01 s
wall time for grad    0.01 s
 E :    -45.35877999  G :  0.002051    pred/act E change:  0.000D+00 -0.614D-04
Maxdispl :   0.0866   ||displ|| :   0.1361   Lambda : -0.804D-04
Largest |displ|/coords:  0.0866 (   1)  0.0637 (   4)  0.0383 (  11)
................................................................................
.............................. CYCLE   28 ......................................
................................................................................
   1    -45.6088498 -0.456088E+02  0.129E-01    9.09       0.0  T
   2    -45.6088508 -0.976254E-06  0.974E-02    9.09       1.0  T
   3    -45.6088521 -0.128940E-05  0.543E-03    9.09       3.8  T
   4    -45.6088521 -0.421563E-07  0.225E-03    9.09       9.3  T
   5    -45.6088521 -0.401047E-08  0.917E-04    9.09      22.7  T
   6    -45.6088521 -0.103696E-08  0.372E-04    9.09      56.0  T
speedup  0.89
cpu  time for SCC    0.00 s
wall time for SCC    0.00 s
speedup  0.96
cpu  time for grad    0.01 s
wall time for grad    0.01 s
 E :    -45.35881960  G :  0.003654    pred/act E change: -0.441D-04 -0.396D-04
Maxdispl :   0.0632   ||displ|| :   0.0759   Lambda : -0.373D-04
Largest |displ|/coords:  0.0632 (   1)  0.0219 (   3)  0.0150 (  10)
................................................................................
.............................. CYCLE   29 ......................................
................................................................................
   1    -45.6089563 -0.456090E+02  0.515E-02    9.10       0.0  T
   2    -45.6089565 -0.244313E-06  0.390E-02    9.10       1.0  T
   3    -45.6089568 -0.279175E-06  0.258E-03    9.10       8.1  T
   4    -45.6089568 -0.179785E-07  0.106E-03    9.10      19.6  T
   5    -45.6089568 -0.745104E-09  0.388E-04    9.10      53.7  T
   6    -45.6089568 -0.184144E-09  0.193E-04    9.10     107.8  T
speedup  0.91
cpu  time for SCC    0.00 s
wall time for SCC    0.00 s
speedup  1.04
cpu  time for grad    0.01 s
wall time for grad    0.01 s
 E :    -45.35884397  G :  0.002880    pred/act E change: -0.410D-04 -0.244D-04
Maxdispl :   0.0860   ||displ|| :   0.1047   Lambda : -0.399D-04
Largest |displ|/coords:  0.0860 (   1)  0.0338 (   4)  0.0291 (   3)
................................................................................
.............................. CYCLE   30 ......................................
................................................................................
   1    -45.6093408 -0.456093E+02  0.601E-02    9.11       0.0  T
   2    -45.6093412 -0.333249E-06  0.452E-02    9.11       1.0  T
   3    -45.6093415 -0.288820E-06  0.371E-03    9.11       5.6  T
   4    -45.6093415 -0.400873E-07  0.143E-03    9.11      14.6  T
   5    -45.6093415 -0.138208E-08  0.432E-04    9.11      48.2  T
   6    -45.6093415 -0.176428E-09  0.241E-04    9.11      86.7  T
speedup  1.09
cpu  time for SCC    0.00 s
wall time for SCC    0.00 s
speedup  1.03
cpu  time for grad    0.01 s
wall time for grad    0.01 s
 E :    -45.35887116  G :  0.001106    pred/act E change: -0.188D-04 -0.272D-04
Maxdispl :   0.1322   ||displ|| :   0.1733   Lambda : -0.325D-04
Largest |displ|/coords:  0.1322 (   1)  0.0640 (   4)  0.0461 (   2)
................................................................................
.............................. CYCLE   31 ......................................
................................................................................
   1    -45.6088090 -0.456088E+02  0.117E-01    9.12       0.0  T
   2    -45.6088103 -0.128561E-05  0.880E-02    9.12       1.0  T
   3    -45.6088116 -0.130170E-05  0.685E-03    9.12       3.0  T
   4    -45.6088117 -0.131008E-06  0.246E-03    9.12       8.5  T
   5    -45.6088117 -0.449576E-08  0.948E-04    9.12      22.0  T
   6    -45.6088117 -0.113332E-08  0.494E-04    9.12      42.2  T
speedup  0.89
cpu  time for SCC    0.00 s
wall time for SCC    0.00 s
speedup  0.95
cpu  time for grad    0.01 s
wall time for grad    0.01 s
 E :    -45.35888483  G :  0.003950    pred/act E change: -0.202D-04 -0.137D-04
Maxdispl :   0.0275   ||displ|| :   0.0559   Lambda : -0.289D-04
Largest |displ|/coords:  0.0275 (   1)  0.0247 (   3)  0.0243 (   4)
................................................................................
.............................. CYCLE   32 ......................................
................................................................................
   1    -45.6094386 -0.456094E+02  0.298E-02    9.13       0.0  T
   2    -45.6094389 -0.233668E-06  0.223E-02    9.13       1.0  T
   3    -45.6094391 -0.182471E-06  0.310E-03    9.13       6.7  T
   4    -45.6094391 -0.269657E-07  0.819E-04    9.13      25.5  T
   5    -45.6094391 -0.106512E-08  0.320E-04    9.13      65.2  T
speedup  1.05
cpu  time for SCC    0.00 s
wall time for SCC    0.00 s
speedup  1.01
cpu  time for grad    0.01 s
wall time for grad    0.01 s
 E :    -45.35889848  G :  0.002227    pred/act E change: -0.168D-04 -0.136D-04
Maxdispl :   0.0431   ||displ|| :   0.0710   Lambda : -0.148D-04
Largest |displ|/coords:  0.0431 (   1)  0.0387 (   2)  0.0263 (   3)
................................................................................
.............................. CYCLE   33 ......................................
................................................................................
   1    -45.6093315 -0.456093E+02  0.455E-02    9.13       0.0  T
   2    -45.6093317 -0.256842E-06  0.344E-02    9.14       1.0  T
   3    -45.6093320 -0.277563E-06  0.302E-03    9.14       6.9  T
   4    -45.6093320 -0.218373E-07  0.115E-03    9.14      18.2  T
   5    -45.6093320 -0.989168E-09  0.361E-04    9.14      57.8  T
   6    -45.6093320 -0.164889E-09  0.194E-04    9.14     107.5  T
speedup  0.89
cpu  time for SCC    0.00 s
wall time for SCC    0.00 s
speedup  1.03
cpu  time for grad    0.01 s
wall time for grad    0.01 s
 E :    -45.35890785  G :  0.001291    pred/act E change: -0.145D-04 -0.937D-05
Maxdispl :   0.0665   ||displ|| :   0.1194   Lambda : -0.172D-04
Largest |displ|/coords:  0.0665 (   2)  0.0661 (   1)  0.0381 (   4)
................................................................................
.............................. CYCLE   34 ......................................
................................................................................
   1    -45.6090586 -0.456091E+02  0.696E-02    9.14       0.0  T
   2    -45.6090592 -0.578868E-06  0.524E-02    9.14       1.0  T
   3    -45.6090597 -0.560213E-06  0.479E-03    9.14       4.4  T
   4    -45.6090598 -0.611240E-07  0.150E-03    9.14      13.9  T
   5    -45.6090598 -0.306479E-08  0.610E-04    9.14      34.2  T
   6    -45.6090598 -0.622016E-09  0.306E-04    9.14      68.2  T
speedup  1.11
cpu  time for SCC    0.00 s
wall time for SCC    0.00 s
speedup  1.04
cpu  time for grad    0.01 s
wall time for grad    0.01 s
 E :    -45.35891613  G :  0.001680    pred/act E change: -0.743D-05 -0.828D-05
Maxdispl :   0.0148   ||displ|| :   0.0243   Lambda : -0.704D-05
Largest |displ|/coords:  0.0148 (   2)  0.0098 (   1)  0.0088 (   6)
................................................................................
.............................. CYCLE   35 ......................................
................................................................................
   1    -45.6092488 -0.456092E+02  0.112E-02    9.14       0.0  T
   2    -45.6092488 -0.896487E-07  0.827E-03    9.14       2.5  T
   3    -45.6092489 -0.416813E-07  0.184E-03    9.14      11.3  T
   4    -45.6092489 -0.122566E-07  0.474E-04    9.14      44.0  T
   5    -45.6092489 -0.310656E-09  0.127E-04    9.14     163.6  T
speedup  1.08
cpu  time for SCC    0.00 s
wall time for SCC    0.00 s
speedup  1.02
cpu  time for grad    0.01 s
wall time for grad    0.01 s
 E :    -45.35892129  G :  0.001184    pred/act E change: -0.872D-05 -0.516D-05
Maxdispl :   0.0442   ||displ|| :   0.0677   Lambda : -0.982D-05
Largest |displ|/coords:  0.0442 (   2)  0.0235 (   6)  0.0184 (   1)
................................................................................
.............................. CYCLE   36 ......................................
................................................................................
   1    -45.6092355 -0.456092E+02  0.374E-02    9.14       0.0  T
   2    -45.6092357 -0.223462E-06  0.280E-02    9.14       1.0  T
   3    -45.6092359 -0.127393E-06  0.325E-03    9.14       6.4  T
   4    -45.6092359 -0.382856E-07  0.924E-04    9.14      22.6  T
   5    -45.6092359 -0.962281E-09  0.307E-04    9.14      67.9  T
speedup  1.08
cpu  time for SCC    0.00 s
wall time for SCC    0.00 s
speedup  1.02
cpu  time for grad    0.01 s
wall time for grad    0.01 s
 E :    -45.35892754  G :  0.001177    pred/act E change: -0.352D-05 -0.626D-05
Maxdispl :   0.0305   ||displ|| :   0.0498   Lambda : -0.814D-05
Largest |displ|/coords:  0.0305 (   2)  0.0215 (   6)  0.0161 (  10)
................................................................................
.............................. CYCLE   37 ......................................
................................................................................
   1    -45.6094958 -0.456095E+02  0.254E-02    9.14       0.0  T
   2    -45.6094960 -0.160056E-06  0.190E-02    9.14       1.1  T
   3    -45.6094961 -0.103733E-06  0.310E-03    9.14       6.7  T
   4    -45.6094961 -0.221231E-07  0.882E-04    9.14      23.6  T
   5    -45.6094961 -0.864254E-09  0.202E-04    9.14     103.3  T
speedup  1.05
cpu  time for SCC    0.00 s
wall time for SCC    0.00 s
speedup  1.01
cpu  time for grad    0.01 s
wall time for grad    0.01 s
 E :    -45.35893290  G :  0.001470    pred/act E change: -0.494D-05 -0.536D-05
Maxdispl :   0.0341   ||displ|| :   0.0663   Lambda : -0.796D-05
Largest |displ|/coords:  0.0341 (   2)  0.0279 (   1)  0.0223 (   6)
................................................................................
.............................. CYCLE   38 ......................................
................................................................................
   1    -45.6093988 -0.456094E+02  0.421E-02    9.14       0.0  T
   2    -45.6093990 -0.235472E-06  0.315E-02    9.14       1.0  T
   3    -45.6093992 -0.206417E-06  0.381E-03    9.14       5.5  T
   4    -45.6093993 -0.256573E-07  0.100E-03    9.14      20.8  T
   5    -45.6093993 -0.154734E-08  0.340E-04    9.14      61.4  T
   6    -45.6093993 -0.146734E-09  0.187E-04    9.14     111.5  T
speedup  0.87
cpu  time for SCC    0.00 s
wall time for SCC    0.00 s
speedup  1.03
cpu  time for grad    0.01 s
wall time for grad    0.01 s
 E :    -45.35893869  G :  0.001176    pred/act E change: -0.408D-05 -0.579D-05
Maxdispl :   0.0239   ||displ|| :   0.0540   Lambda : -0.878D-05
Largest |displ|/coords:  0.0239 (   1)  0.0200 (  31)  0.0182 (   7)
................................................................................
.............................. CYCLE   39 ......................................
................................................................................
   1    -45.6094115 -0.456094E+02  0.376E-02    9.13       0.0  T
   2    -45.6094117 -0.227498E-06  0.281E-02    9.13       1.0  T
   3    -45.6094119 -0.213879E-06  0.405E-03    9.13       5.2  T
   4    -45.6094119 -0.210868E-07  0.981E-04    9.13      21.3  T
   5    -45.6094119 -0.156456E-08  0.314E-04    9.13      66.5  T
speedup  1.05
cpu  time for SCC    0.00 s
wall time for SCC    0.00 s
speedup  1.02
cpu  time for grad    0.01 s
wall time for grad    0.01 s
 E :    -45.35894498  G :  0.001329    pred/act E change: -0.400D-05 -0.629D-05
Maxdispl :   0.0236   ||displ|| :   0.0486   Lambda : -0.789D-05
Largest |displ|/coords:  0.0236 (   1)  0.0189 (  31)  0.0152 (   7)
................................................................................
.............................. CYCLE   40 ......................................
................................................................................
   1    -45.6093903 -0.456094E+02  0.346E-02    9.13       0.0  T
   2    -45.6093905 -0.196370E-06  0.258E-02    9.13       1.0  T
   3    -45.6093907 -0.193880E-06  0.388E-03    9.12       5.4  T
   4    -45.6093907 -0.164706E-07  0.960E-04    9.12      21.7  T
   5    -45.6093907 -0.144743E-08  0.287E-04    9.12      72.7  T
speedup  1.05
cpu  time for SCC    0.00 s
wall time for SCC    0.00 s
speedup  1.02
cpu  time for grad    0.01 s
wall time for grad    0.01 s
 E :    -45.35895091  G :  0.001266    pred/act E change: -0.440D-05 -0.594D-05
Maxdispl :   0.0242   ||displ|| :   0.0570   Lambda : -0.869D-05
Largest |displ|/coords:  0.0242 (   2)  0.0242 (   1)  0.0218 (  31)
................................................................................
.............................. CYCLE   41 ......................................
................................................................................
   1    -45.6093821 -0.456094E+02  0.398E-02    9.12       0.0  T
   2    -45.6093823 -0.269792E-06  0.297E-02    9.12       1.0  T
   3    -45.6093826 -0.260421E-06  0.460E-03    9.12       4.5  T
   4    -45.6093826 -0.234324E-07  0.129E-03    9.12      16.2  T
   5    -45.6093826 -0.216026E-08  0.323E-04    9.12      64.5  T
   6    -45.6093826 -0.104954E-09  0.205E-04    9.12     101.5  T
speedup  0.89
cpu  time for SCC    0.00 s
wall time for SCC    0.00 s
speedup  0.95
cpu  time for grad    0.01 s
wall time for grad    0.01 s
 E :    -45.35895708  G :  0.001081    pred/act E change: -0.396D-05 -0.617D-05
Maxdispl :   0.0252   ||displ|| :   0.0501   Lambda : -0.645D-05
Largest |displ|/coords:  0.0252 (   2)  0.0205 (   1)  0.0199 (  31)
................................................................................
.............................. CYCLE   42 ......................................
................................................................................
   1    -45.6093625 -0.456094E+02  0.366E-02    9.12       0.0  T
   2    -45.6093628 -0.253220E-06  0.273E-02    9.12       1.0  T
   3    -45.6093630 -0.199127E-06  0.436E-03    9.12       4.8  T
   4    -45.6093630 -0.299548E-07  0.139E-03    9.12      15.0  T
   5    -45.6093630 -0.176897E-08  0.279E-04    9.12      74.7  T
   6    -45.6093630 -0.896065E-10  0.177E-04    9.12     117.6  T
speedup  1.11
cpu  time for SCC    0.00 s
wall time for SCC    0.00 s
speedup  1.03
cpu  time for grad    0.01 s
wall time for grad    0.01 s
 E :    -45.35896190  G :  0.001212    pred/act E change: -0.436D-05 -0.482D-05
Maxdispl :   0.0383   ||displ|| :   0.0578   Lambda : -0.731D-05
Largest |displ|/coords:  0.0383 (   2)  0.0215 (  31)  0.0157 (   4)
................................................................................
.............................. CYCLE   43 ......................................
................................................................................
   1    -45.6094700 -0.456095E+02  0.419E-02    9.12       0.0  T
   2    -45.6094704 -0.389889E-06  0.313E-02    9.12       1.0  T
   3    -45.6094706 -0.254268E-06  0.524E-03    9.12       4.0  T
   4    -45.6094707 -0.552885E-07  0.172E-03    9.12      12.2  T
   5    -45.6094707 -0.226271E-08  0.319E-04    9.12      65.4  T
   6    -45.6094707 -0.134399E-09  0.198E-04    9.12     105.5  T
speedup  0.89
cpu  time for SCC    0.00 s
wall time for SCC    0.00 s
speedup  0.95
cpu  time for grad    0.01 s
wall time for grad    0.01 s
 E :    -45.35896728  G :  0.001656    pred/act E change: -0.323D-05 -0.538D-05
Maxdispl :   0.0354   ||displ|| :   0.0769   Lambda : -0.881D-05
Largest |displ|/coords:  0.0354 (  31)  0.0342 (   1)  0.0304 (   2)
................................................................................
.............................. CYCLE   44 ......................................
................................................................................
   1    -45.6092704 -0.456093E+02  0.660E-02    9.12       0.0  T
   2    -45.6092714 -0.102544E-05  0.494E-02    9.12       1.0  T
   3    -45.6092720 -0.603658E-06  0.834E-03    9.13       2.5  T
   4    -45.6092722 -0.157642E-06  0.276E-03    9.13       7.6  T
   5    -45.6092722 -0.560334E-08  0.529E-04    9.13      39.4  T
   6    -45.6092722 -0.391765E-09  0.325E-04    9.13      64.2  T
speedup  1.14
cpu  time for SCC    0.00 s
wall time for SCC    0.00 s
speedup  1.04
cpu  time for grad    0.01 s
wall time for grad    0.01 s
 E :    -45.35897289  G :  0.002285    pred/act E change: -0.367D-05 -0.561D-05
Maxdispl :   0.0824   ||displ|| :   0.1132   Lambda : -0.148D-04
Largest |displ|/coords:  0.0824 (   2)  0.0419 (   4)  0.0251 (   3)
................................................................................
.............................. CYCLE   45 ......................................
................................................................................
   1    -45.6096983 -0.456097E+02  0.675E-02    9.13       0.0  T
   2    -45.6096994 -0.110616E-05  0.505E-02    9.13       1.0  T
   3    -45.6097000 -0.581099E-06  0.864E-03    9.13       2.4  T
   4    -45.6097001 -0.182583E-06  0.254E-03    9.13       8.2  T
   5    -45.6097001 -0.513498E-08  0.543E-04    9.13      38.4  T
   6    -45.6097001 -0.335511E-09  0.321E-04    9.13      65.0  T
speedup  1.14
cpu  time for SCC    0.00 s
wall time for SCC    0.00 s
speedup  1.04
cpu  time for grad    0.01 s
wall time for grad    0.01 s
 E :    -45.35897967  G :  0.002581    pred/act E change: -0.443D-05 -0.679D-05
Maxdispl :   0.0295   ||displ|| :   0.0594   Lambda : -0.105D-04
Largest |displ|/coords:  0.0295 (  31)  0.0226 (   4)  0.0201 (   1)
................................................................................
.............................. CYCLE   46 ......................................
................................................................................
   1    -45.6094017 -0.456094E+02  0.545E-02    9.13       0.0  T
   2    -45.6094024 -0.669927E-06  0.407E-02    9.13       1.0  T
   3    -45.6094028 -0.437931E-06  0.711E-03    9.13       2.9  T
   4    -45.6094029 -0.976769E-07  0.222E-03    9.13       9.4  T
   5    -45.6094029 -0.415545E-08  0.470E-04    9.13      44.4  T
   6    -45.6094029 -0.291209E-09  0.301E-04    9.13      69.4  T
speedup  1.14
cpu  time for SCC    0.01 s
wall time for SCC    0.00 s
speedup  1.04
cpu  time for grad    0.01 s
wall time for grad    0.01 s
 E :    -45.35898738  G :  0.002458    pred/act E change: -0.752D-05 -0.770D-05
Maxdispl :   0.0392   ||displ|| :   0.0676   Lambda : -0.205D-04
Largest |displ|/coords:  0.0392 (   3)  0.0289 (   4)  0.0234 (  16)
................................................................................
.............................. CYCLE   47 ......................................
................................................................................
   1    -45.6091809 -0.456092E+02  0.479E-02    9.12       0.0  T
   2    -45.6091815 -0.660388E-06  0.356E-02    9.12       1.0  T
   3    -45.6091819 -0.393735E-06  0.744E-03    9.12       2.8  T
   4    -45.6091820 -0.936137E-07  0.168E-03    9.12      12.4  T
   5    -45.6091820 -0.396074E-08  0.510E-04    9.12      40.9  T
   6    -45.6091820 -0.305363E-09  0.306E-04    9.12      68.1  T
speedup  1.14
cpu  time for SCC    0.00 s
wall time for SCC    0.00 s
speedup  1.04
cpu  time for grad    0.01 s
wall time for grad    0.01 s
 E :    -45.35899877  G :  0.002242    pred/act E change: -0.527D-05 -0.114D-04
Maxdispl :   0.0466   ||displ|| :   0.0796   Lambda : -0.886D-05
Largest |displ|/coords:  0.0466 (   3)  0.0366 (   4)  0.0352 (   2)
................................................................................
.............................. CYCLE   48 ......................................
................................................................................
   1    -45.6088164 -0.456088E+02  0.577E-02    9.11       0.0  T
   2    -45.6088169 -0.494206E-06  0.435E-02    9.11       1.0  T
   3    -45.6088173 -0.412076E-06  0.599E-03    9.11       3.5  T
   4    -45.6088173 -0.640230E-07  0.170E-03    9.11      12.2  T
   5    -45.6088173 -0.284112E-08  0.449E-04    9.11      46.5  T
   6    -45.6088173 -0.190795E-09  0.282E-04    9.11      73.8  T
speedup  0.89
cpu  time for SCC    0.00 s
wall time for SCC    0.00 s
speedup  0.95
cpu  time for grad    0.01 s
wall time for grad    0.01 s
 E :    -45.35900484  G :  0.002484    pred/act E change: -0.103D-04 -0.607D-05
Maxdispl :   0.0632   ||displ|| :   0.0994   Lambda : -0.140D-04
Largest |displ|/coords:  0.0632 (   3)  0.0443 (   4)  0.0281 (   2)
................................................................................
.............................. CYCLE   49 ......................................
................................................................................
   1    -45.6088363 -0.456088E+02  0.546E-02    9.10       0.0  T
   2    -45.6088367 -0.413742E-06  0.411E-02    9.10       1.0  T
   3    -45.6088370 -0.312714E-06  0.527E-03    9.10       4.0  T
   4    -45.6088370 -0.627370E-07  0.145E-03    9.10      14.4  T
   5    -45.6088370 -0.164705E-08  0.435E-04    9.10      47.9  T
   6    -45.6088370 -0.188315E-09  0.242E-04    9.10      86.1  T
speedup  1.11
cpu  time for SCC    0.01 s
wall time for SCC    0.00 s
speedup  1.03
cpu  time for grad    0.01 s
wall time for grad    0.01 s
 E :    -45.35901287  G :  0.001377    pred/act E change: -0.446D-05 -0.803D-05
Maxdispl :   0.0807   ||displ|| :   0.1554   Lambda : -0.137D-04
Largest |displ|/coords:  0.0807 (   3)  0.0722 (   4)  0.0635 (   2)
................................................................................
.............................. CYCLE   50 ......................................
................................................................................
   1    -45.6078418 -0.456078E+02  0.112E-01    9.09       0.0  T
   2    -45.6078441 -0.231113E-05  0.838E-02    9.09       1.0  T
   3    -45.6078458 -0.171761E-05  0.134E-02    9.09       1.6  T
   4    -45.6078461 -0.322583E-06  0.461E-03    9.09       4.5  T
   5    -45.6078461 -0.159480E-07  0.928E-04    9.09      22.5  T
   6    -45.6078461 -0.832344E-09  0.633E-04    9.09      32.9  T
speedup  0.89
cpu  time for SCC    0.00 s
wall time for SCC    0.00 s
speedup  0.96
cpu  time for grad    0.01 s
wall time for grad    0.01 s
 E :    -45.35901621  G :  0.004048    pred/act E change: -0.706D-05 -0.334D-05
Maxdispl :   0.0334   ||displ|| :   0.0573   Lambda : -0.143D-04
Largest |displ|/coords:  0.0334 (   2)  0.0247 (   4)  0.0243 (   3)
................................................................................
.............................. CYCLE   51 ......................................
................................................................................
   1    -45.6087525 -0.456088E+02  0.401E-02    9.10       0.0  T
   2    -45.6087529 -0.335023E-06  0.301E-02    9.10       1.0  T
   3    -45.6087531 -0.282382E-06  0.451E-03    9.10       4.6  T
   4    -45.6087532 -0.407378E-07  0.145E-03    9.10      14.4  T
   5    -45.6087532 -0.249884E-08  0.426E-04    9.10      49.0  T
speedup  1.05
cpu  time for SCC    0.00 s
wall time for SCC    0.00 s
speedup  0.96
cpu  time for grad    0.01 s
wall time for grad    0.01 s
 E :    -45.35902343  G :  0.001399    pred/act E change: -0.702D-05 -0.722D-05
Maxdispl :   0.0222   ||displ|| :   0.0350   Lambda : -0.509D-05
Largest |displ|/coords:  0.0222 (   3)  0.0143 (  31)  0.0141 (   4)
................................................................................
.............................. CYCLE   52 ......................................
................................................................................
   1    -45.6088419 -0.456088E+02  0.281E-02    9.10       0.0  T
   2    -45.6088420 -0.164940E-06  0.209E-02    9.10       1.0  T
   3    -45.6088421 -0.947026E-07  0.375E-03    9.10       5.6  T
   4    -45.6088421 -0.246538E-07  0.129E-03    9.10      16.2  T
   5    -45.6088421 -0.955900E-09  0.182E-04    9.10     114.8  T
   6    -45.6088421 -0.276756E-10  0.124E-04    9.10     168.5  T
speedup  1.11
cpu  time for SCC    0.01 s
wall time for SCC    0.00 s
speedup  1.04
cpu  time for grad    0.01 s
wall time for grad    0.01 s
 E :    -45.35902807  G :  0.001305    pred/act E change: -0.717D-05 -0.464D-05
Maxdispl :   0.1361   ||displ|| :   0.2251   Lambda : -0.297D-04
Largest |displ|/coords:  0.1361 (   3)  0.0978 (  31)  0.0896 (   4)

generating ANC from model Hessian ...
 Shifting diagonal of input Hessian by   4.758481848133275E-003
 Lowest  eigenvalues of input Hessian
   -0.000000   -0.000000    0.000000    0.000000    0.000000    0.000000
    0.005000    0.005426    0.005827    0.006399    0.007459    0.007947
    0.008448    0.009853    0.011026    0.011749    0.012174    0.015834
 Highest eigenvalues
    1.379300    1.403579    1.405069    2.626643    3.385029    3.687443
 
cpu  time for ANC gen    0.02 s
wall time for ANC gen    0.02 s
................................................................................
.............................. CYCLE   53 ......................................
................................................................................
   1    -45.6080066 -0.456080E+02  0.190E-01    9.10       0.0  T
   2    -45.6080137 -0.717275E-05  0.142E-01    9.10       1.0  T
   3    -45.6080182 -0.442931E-05  0.240E-02    9.10       1.0  T
   4    -45.6080192 -0.108476E-05  0.868E-03    9.10       2.4  T
   5    -45.6080193 -0.419261E-07  0.139E-03    9.10      15.0  T
   6    -45.6080193 -0.166148E-08  0.916E-04    9.10      22.8  T
   7    -45.6080193 -0.974282E-09  0.229E-04    9.10      90.9  T
speedup  0.96
cpu  time for SCC    0.00 s
wall time for SCC    0.01 s
speedup  1.07
cpu  time for grad    0.01 s
wall time for grad    0.01 s
 E :    -45.35903759  G :  0.005776    pred/act E change:  0.000D+00 -0.952D-05
Maxdispl :   0.0105   ||displ|| :   0.0175   Lambda : -0.315D-04
Largest |displ|/coords:  0.0105 (   2)  0.0066 (   8)  0.0056 (   4)
................................................................................
.............................. CYCLE   54 ......................................
................................................................................
   1    -45.6087693 -0.456088E+02  0.159E-02    9.10       0.0  T
   2    -45.6087696 -0.230214E-06  0.117E-02    9.10       1.8  T
   3    -45.6087697 -0.958957E-07  0.379E-03    9.10       5.5  T
   4    -45.6087697 -0.250681E-07  0.892E-04    9.10      23.4  T
   5    -45.6087697 -0.154163E-08  0.301E-04    9.10      69.2  T
speedup  1.08
cpu  time for SCC    0.00 s
wall time for SCC    0.00 s
speedup  1.06
cpu  time for grad    0.01 s
wall time for grad    0.01 s
 E :    -45.35905846  G :  0.001626    pred/act E change:  0.000D+00 -0.209D-04
Maxdispl :   0.0147   ||displ|| :   0.0209   Lambda : -0.776D-05
Largest |displ|/coords:  0.0147 (   2)  0.0074 (   4)  0.0066 (   8)
................................................................................
.............................. CYCLE   55 ......................................
................................................................................
   1    -45.6090724 -0.456091E+02  0.163E-02    9.10       0.0  T
   2    -45.6090725 -0.723054E-07  0.122E-02    9.10       1.7  T
   3    -45.6090725 -0.333990E-07  0.191E-03    9.10      10.9  T
   4    -45.6090725 -0.128699E-07  0.563E-04    9.10      37.0  T
   5    -45.6090725 -0.426169E-09  0.179E-04    9.10     116.6  T
speedup  1.08
cpu  time for SCC    0.00 s
wall time for SCC    0.00 s
speedup  1.02
cpu  time for grad    0.01 s
wall time for grad    0.01 s
 E :    -45.35906341  G :  0.000833    pred/act E change: -0.158D-04 -0.495D-05
Maxdispl :   0.0213   ||displ|| :   0.0271   Lambda : -0.430D-05
Largest |displ|/coords:  0.0213 (   2)  0.0070 (   4)  0.0059 (   3)
................................................................................
.............................. CYCLE   56 ......................................
................................................................................
   1    -45.6091501 -0.456092E+02  0.194E-02    9.10       0.0  T
   2    -45.6091501 -0.557757E-07  0.146E-02    9.10       1.4  T
   3    -45.6091502 -0.401085E-07  0.147E-03    9.10      14.2  T
   4    -45.6091502 -0.826273E-08  0.583E-04    9.10      35.8  T
   5    -45.6091502 -0.235225E-09  0.146E-04    9.10     142.7  T
speedup  1.08
cpu  time for SCC    0.00 s
wall time for SCC    0.00 s
speedup  1.02
cpu  time for grad    0.01 s
wall time for grad    0.01 s
 E :    -45.35906629  G :  0.001292    pred/act E change: -0.388D-05 -0.288D-05
Maxdispl :   0.0434   ||displ|| :   0.0559   Lambda : -0.769D-05
Largest |displ|/coords:  0.0434 (   2)  0.0168 (   4)  0.0123 (   8)
................................................................................
.............................. CYCLE   57 ......................................
................................................................................
   1    -45.6091091 -0.456091E+02  0.403E-02    9.10       0.0  T
   2    -45.6091092 -0.163828E-06  0.302E-02    9.10       1.0  T
   3    -45.6091093 -0.135955E-06  0.247E-03    9.10       8.4  T
   4    -45.6091094 -0.212029E-07  0.979E-04    9.10      21.3  T
   5    -45.6091094 -0.610363E-09  0.285E-04    9.10      73.1  T
speedup  0.81
cpu  time for SCC    0.00 s
wall time for SCC    0.00 s
speedup  0.93
cpu  time for grad    0.01 s
wall time for grad    0.01 s
 E :    -45.35907121  G :  0.001449    pred/act E change: -0.215D-05 -0.492D-05
Maxdispl :   0.0403   ||displ|| :   0.0500   Lambda : -0.583D-05
Largest |displ|/coords:  0.0403 (   2)  0.0126 (   9)  0.0108 (   4)
................................................................................
.............................. CYCLE   58 ......................................
................................................................................
   1    -45.6089294 -0.456089E+02  0.345E-02    9.10       0.0  T
   2    -45.6089296 -0.137022E-06  0.259E-02    9.10       1.0  T
   3    -45.6089297 -0.104368E-06  0.227E-03    9.10       9.2  T
   4    -45.6089297 -0.200776E-07  0.883E-04    9.10      23.6  T
   5    -45.6089297 -0.513232E-09  0.249E-04    9.10      83.9  T
speedup  1.08
cpu  time for SCC    0.00 s
wall time for SCC    0.00 s
speedup  1.02
cpu  time for grad    0.01 s
wall time for grad    0.01 s
 E :    -45.35907549  G :  0.000837    pred/act E change: -0.386D-05 -0.429D-05
Maxdispl :   0.0453   ||displ|| :   0.0582   Lambda : -0.669D-05
Largest |displ|/coords:  0.0453 (   2)  0.0147 (   9)  0.0139 (  31)
................................................................................
.............................. CYCLE   59 ......................................
................................................................................
   1    -45.6087499 -0.456087E+02  0.398E-02    9.10       0.0  T
   2    -45.6087501 -0.232135E-06  0.299E-02    9.10       1.0  T
   3    -45.6087502 -0.129518E-06  0.318E-03    9.10       6.6  T
   4    -45.6087503 -0.431511E-07  0.116E-03    9.10      17.9  T
   5    -45.6087503 -0.962274E-09  0.293E-04    9.10      71.3  T
   6    -45.6087503 -0.938201E-10  0.161E-04    9.10     129.8  T
speedup  0.89
cpu  time for SCC    0.00 s
wall time for SCC    0.00 s
speedup  0.95
cpu  time for grad    0.01 s
wall time for grad    0.01 s
 E :    -45.35907998  G :  0.001470    pred/act E change: -0.292D-05 -0.448D-05
Maxdispl :   0.0309   ||displ|| :   0.0451   Lambda : -0.631D-05
Largest |displ|/coords:  0.0309 (   2)  0.0153 (   9)  0.0143 (  31)
................................................................................
.............................. CYCLE   60 ......................................
................................................................................
   1    -45.6087243 -0.456087E+02  0.309E-02    9.10       0.0  T
   2    -45.6087245 -0.174501E-06  0.231E-02    9.10       1.0  T
   3    -45.6087246 -0.828452E-07  0.321E-03    9.10       6.5  T
   4    -45.6087246 -0.320680E-07  0.119E-03    9.10      17.5  T
   5    -45.6087246 -0.870351E-09  0.228E-04    9.10      91.6  T
   6    -45.6087246 -0.684111E-10  0.142E-04    9.10     147.0  T
speedup  1.06
cpu  time for SCC    0.00 s
wall time for SCC    0.00 s
speedup  1.02
cpu  time for grad    0.01 s
wall time for grad    0.01 s
 E :    -45.35908457  G :  0.002128    pred/act E change: -0.336D-05 -0.460D-05
Maxdispl :   0.0348   ||displ|| :   0.0632   Lambda : -0.110D-04
Largest |displ|/coords:  0.0348 (   2)  0.0253 (   1)  0.0243 (  31)
................................................................................
.............................. CYCLE   61 ......................................
................................................................................
   1    -45.6087899 -0.456088E+02  0.472E-02    9.11       0.0  T
   2    -45.6087903 -0.464157E-06  0.351E-02    9.11       1.0  T
   3    -45.6087906 -0.213151E-06  0.582E-03    9.11       3.6  T
   4    -45.6087906 -0.782156E-07  0.219E-03    9.11       9.5  T
   5    -45.6087906 -0.242303E-08  0.326E-04    9.11      64.0  T
   6    -45.6087906 -0.133277E-09  0.212E-04    9.11      98.2  T
speedup  0.89
cpu  time for SCC    0.00 s
wall time for SCC    0.00 s
speedup  1.03
cpu  time for grad    0.01 s
wall time for grad    0.01 s
 E :    -45.35909228  G :  0.002538    pred/act E change: -0.316D-05 -0.770D-05
Maxdispl :   0.0314   ||displ|| :   0.0685   Lambda : -0.133D-04
Largest |displ|/coords:  0.0314 (   1)  0.0294 (  31)  0.0283 (   2)
................................................................................
.............................. CYCLE   62 ......................................
................................................................................
   1    -45.6089001 -0.456089E+02  0.531E-02    9.11       0.0  T
   2    -45.6089006 -0.564918E-06  0.393E-02    9.11       1.0  T
   3    -45.6089009 -0.249479E-06  0.695E-03    9.11       3.0  T
   4    -45.6089010 -0.902839E-07  0.245E-03    9.11       8.5  T
   5    -45.6089010 -0.321827E-08  0.328E-04    9.11      63.6  T
   6    -45.6089010 -0.146592E-09  0.212E-04    9.11      98.6  T
speedup  1.11
cpu  time for SCC    0.00 s
wall time for SCC    0.00 s
speedup  1.03
cpu  time for grad    0.01 s
wall time for grad    0.01 s
 E :    -45.35910254  G :  0.002298    pred/act E change: -0.553D-05 -0.103D-04
Maxdispl :   0.0687   ||displ|| :   0.1506   Lambda : -0.264D-04
Largest |displ|/coords:  0.0687 (   2)  0.0670 (   1)  0.0664 (  31)
................................................................................
.............................. CYCLE   63 ......................................
................................................................................
   1    -45.6084844 -0.456085E+02  0.127E-01    9.10       0.0  T
   2    -45.6084872 -0.284582E-05  0.952E-02    9.10       1.0  T
   3    -45.6084886 -0.136509E-05  0.147E-02    9.10       1.4  T
   4    -45.6084891 -0.510258E-06  0.523E-03    9.10       4.0  T
   5    -45.6084891 -0.135299E-07  0.849E-04    9.10      24.6  T
   6    -45.6084891 -0.779231E-09  0.542E-04    9.10      38.5  T
speedup  0.89
cpu  time for SCC    0.00 s
wall time for SCC    0.00 s
speedup  0.95
cpu  time for grad    0.01 s
wall time for grad    0.01 s
 E :    -45.35912188  G :  0.003872    pred/act E change: -0.666D-05 -0.193D-04
Maxdispl :   0.0953   ||displ|| :   0.1922   Lambda : -0.576D-04
Largest |displ|/coords:  0.0953 (   4)  0.0906 (   1)  0.0896 (  31)
................................................................................
.............................. CYCLE   64 ......................................
................................................................................
   1    -45.6082582 -0.456083E+02  0.167E-01    9.09       0.0  T
   2    -45.6082633 -0.503849E-05  0.124E-01    9.09       1.0  T
   3    -45.6082661 -0.279378E-05  0.217E-02    9.09       1.0  T
   4    -45.6082668 -0.770397E-06  0.717E-03    9.09       2.9  T
   5    -45.6082669 -0.307409E-07  0.119E-03    9.09      17.6  T
   6    -45.6082669 -0.143648E-08  0.738E-04    9.09      28.2  T
   7    -45.6082669 -0.687514E-09  0.268E-04    9.09      77.7  T
speedup  0.96
cpu  time for SCC    0.00 s
wall time for SCC    0.01 s
speedup  0.98
cpu  time for grad    0.01 s
wall time for grad    0.01 s
 E :    -45.35915905  G :  0.003940    pred/act E change: -0.135D-04 -0.372D-04
Maxdispl :   0.0564   ||displ|| :   0.1052   Lambda : -0.502D-04
Largest |displ|/coords:  0.0564 (   4)  0.0510 (  31)  0.0410 (   1)
................................................................................
.............................. CYCLE   65 ......................................
................................................................................
   1    -45.6082830 -0.456083E+02  0.957E-02    9.08       0.0  T
   2    -45.6082846 -0.160346E-05  0.716E-02    9.08       1.0  T
   3    -45.6082855 -0.846192E-06  0.115E-02    9.08       1.8  T
   4    -45.6082858 -0.278990E-06  0.319E-03    9.08       6.5  T
   5    -45.6082858 -0.651718E-08  0.663E-04    9.08      31.5  T
   6    -45.6082858 -0.448502E-09  0.396E-04    9.08      52.7  T
speedup  1.14
cpu  time for SCC    0.00 s
wall time for SCC    0.00 s
speedup  1.04
cpu  time for grad    0.01 s
wall time for grad    0.01 s
 E :    -45.35919969  G :  0.002987    pred/act E change: -0.299D-04 -0.406D-04
Maxdispl :   0.1701   ||displ|| :   0.3234   Lambda : -0.108D-03
Largest |displ|/coords:  0.1701 (  31)  0.1443 (   4)  0.1229 (   1)
................................................................................
.............................. CYCLE   66 ......................................
................................................................................
   1    -45.6044096 -0.456044E+02  0.320E-01    9.05       0.0  T
   2    -45.6044277 -0.180381E-04  0.241E-01    9.05       1.0  T
   3    -45.6044385 -0.108170E-04  0.294E-02    9.05       1.0  T
   4    -45.6044418 -0.328512E-05  0.113E-02    9.05       1.8  T
   5    -45.6044419 -0.101493E-06  0.270E-03    9.05       7.7  T
   6    -45.6044419 -0.593783E-08  0.166E-03    9.05      12.5  T
   7    -45.6044419 -0.377211E-08  0.340E-04    9.05      61.4  T
   8    -45.6044419 -0.410076E-09  0.142E-04    9.05     146.9  T
speedup  0.85
cpu  time for SCC    0.00 s
wall time for SCC    0.01 s
speedup  0.92
cpu  time for grad    0.01 s
wall time for grad    0.01 s
 E :    -45.35898505  G :  0.024437    pred/act E change: -0.254D-04  0.215D-03
Maxdispl :   0.1264   ||displ|| :   0.2150   Lambda : -0.876D-03
Largest |displ|/coords:  0.1264 (   2)  0.0859 (   1)  0.0646 (  31)
[...]
   3    -45.6326954 -0.329130E-06  0.345E-03    9.18       6.0  T
   4    -45.6326954 -0.319473E-07  0.189E-03    9.18      11.0  T
   5    -45.6326954 -0.260907E-08  0.463E-04    9.18      45.1  T
   6    -45.6326954 -0.207059E-09  0.305E-04    9.18      68.4  T
speedup  1.11
cpu  time for SCC    0.00 s
wall time for SCC    0.00 s
speedup  1.03
cpu  time for grad    0.01 s
wall time for grad    0.01 s
 E :    -45.37052969  G :  0.001035    pred/act E change: -0.130D-04 -0.109D-04
Maxdispl :   0.0782   ||displ|| :   0.0968   Lambda : -0.133D-04
Largest |displ|/coords:  0.0782 (   2)  0.0392 (   1)  0.0261 (   5)
................................................................................
.............................. CYCLE  119 ......................................
................................................................................
   1    -45.6329618 -0.456330E+02  0.371E-02    9.18       0.0  T
   2    -45.6329620 -0.229726E-06  0.280E-02    9.18       1.0  T
   3    -45.6329622 -0.220802E-06  0.282E-03    9.18       7.4  T
   4    -45.6329623 -0.270003E-07  0.156E-03    9.18      13.4  T
   5    -45.6329623 -0.253313E-08  0.389E-04    9.18      53.6  T
   6    -45.6329623 -0.175334E-09  0.253E-04    9.18      82.4  T
speedup  0.91
cpu  time for SCC    0.00 s
wall time for SCC    0.00 s
speedup  0.95
cpu  time for grad    0.01 s
wall time for grad    0.01 s
 E :    -45.37053809  G :  0.001413    pred/act E change: -0.795D-05 -0.840D-05
Maxdispl :   0.0659   ||displ|| :   0.0791   Lambda : -0.777D-05
Largest |displ|/coords:  0.0659 (   2)  0.0342 (   1)  0.0126 (   5)
................................................................................
.............................. CYCLE  120 ......................................
................................................................................
   1    -45.6327646 -0.456328E+02  0.348E-02    9.18       0.0  T
   2    -45.6327648 -0.165883E-06  0.263E-02    9.18       1.0  T
   3    -45.6327649 -0.133473E-06  0.232E-03    9.18       9.0  T
   4    -45.6327649 -0.226280E-07  0.100E-03    9.18      20.8  T
   5    -45.6327649 -0.131614E-08  0.306E-04    9.18      68.1  T
   6    -45.6327649 -0.923848E-10  0.179E-04    9.18     116.3  T
speedup  1.11
cpu  time for SCC    0.00 s
wall time for SCC    0.00 s
speedup  1.03
cpu  time for grad    0.01 s
wall time for grad    0.01 s
 E :    -45.37054292  G :  0.001240    pred/act E change: -0.672D-05 -0.483D-05
Maxdispl :   0.0279   ||displ|| :   0.0440   Lambda : -0.558D-05
Largest |displ|/coords:  0.0279 (   2)  0.0200 (   1)  0.0104 (  11)
................................................................................
.............................. CYCLE  121 ......................................
................................................................................
   1    -45.6328553 -0.456329E+02  0.154E-02    9.18       0.0  T
   2    -45.6328554 -0.861778E-07  0.115E-02    9.18       1.8  T
   3    -45.6328554 -0.507343E-07  0.213E-03    9.18       9.8  T
   4    -45.6328554 -0.124006E-07  0.741E-04    9.18      28.1  T
   5    -45.6328554 -0.784816E-09  0.156E-04    9.18     133.4  T
speedup  1.08
cpu  time for SCC    0.00 s
wall time for SCC    0.00 s
speedup  1.00
cpu  time for grad    0.01 s
wall time for grad    0.01 s
 E :    -45.37054602  G :  0.000922    pred/act E change: -0.391D-05 -0.310D-05
Maxdispl :   0.0180   ||displ|| :   0.0251   Lambda : -0.260D-05
Largest |displ|/coords:  0.0180 (   2)  0.0127 (   1)  0.0047 (   3)
................................................................................
.............................. CYCLE  122 ......................................
................................................................................
   1    -45.6327353 -0.456327E+02  0.120E-02    9.18       0.0  T
   2    -45.6327353 -0.368077E-07  0.896E-03    9.18       2.3  T
   3    -45.6327353 -0.154732E-07  0.150E-03    9.18      13.9  T
   4    -45.6327353 -0.604786E-08  0.429E-04    9.18      48.6  T
   5    -45.6327353 -0.325571E-09  0.108E-04    9.18     193.6  T
speedup  0.81
cpu  time for SCC    0.00 s
wall time for SCC    0.00 s
speedup  1.02
cpu  time for grad    0.01 s
wall time for grad    0.01 s
 E :    -45.37054755  G :  0.000704    pred/act E change: -0.280D-05 -0.153D-05
Maxdispl :   0.0074   ||displ|| :   0.0122   Lambda : -0.129D-05
Largest |displ|/coords:  0.0074 (   2)  0.0052 (   1)  0.0038 (  10)
................................................................................
.............................. CYCLE  123 ......................................
................................................................................
   1    -45.6327002 -0.456327E+02  0.840E-03    9.18       0.0  T
   2    -45.6327002 -0.134795E-07  0.627E-03    9.18       3.3  T
   3    -45.6327002 -0.497901E-08  0.903E-04    9.18      23.1  T
   4    -45.6327002 -0.241067E-08  0.312E-04    9.18      66.9  T
speedup  1.00
cpu  time for SCC    0.00 s
wall time for SCC    0.00 s
speedup  0.98
cpu  time for grad    0.01 s
wall time for grad    0.01 s
 E :    -45.37054841  G :  0.000449    pred/act E change: -0.130D-05 -0.854D-06
Maxdispl :   0.0086   ||displ|| :   0.0124   Lambda : -0.619D-06
Largest |displ|/coords:  0.0086 (   2)  0.0055 (   1)  0.0029 (   8)
................................................................................
.............................. CYCLE  124 ......................................
................................................................................
   1    -45.6327282 -0.456327E+02  0.839E-03    9.18       0.0  T
   2    -45.6327282 -0.682777E-08  0.626E-03    9.18       3.3  T
   3    -45.6327282 -0.429891E-08  0.652E-04    9.18      32.0  T
   4    -45.6327282 -0.101527E-08  0.206E-04    9.18     101.1  T
speedup  1.00
cpu  time for SCC    0.00 s
wall time for SCC    0.00 s
speedup  0.98
cpu  time for grad    0.01 s
wall time for grad    0.01 s
 E :    -45.37054882  G :  0.000327    pred/act E change: -0.647D-06 -0.414D-06
Maxdispl :   0.0076   ||displ|| :   0.0110   Lambda : -0.333D-06
Largest |displ|/coords:  0.0076 (   2)  0.0050 (   1)  0.0033 (  11)
................................................................................
.............................. CYCLE  125 ......................................
................................................................................
   1    -45.6327846 -0.456328E+02  0.749E-03    9.18       0.0  T
   2    -45.6327846 -0.424422E-08  0.562E-03    9.18       3.7  T
   3    -45.6327846 -0.503070E-08  0.494E-04    9.18      42.2  T
   4    -45.6327846 -0.288075E-09  0.130E-04    9.18     160.1  T
speedup  1.00
cpu  time for SCC    0.00 s
wall time for SCC    0.00 s
speedup  0.99
cpu  time for grad    0.01 s
wall time for grad    0.01 s
 E :    -45.37054905  G :  0.000250    pred/act E change: -0.309D-06 -0.230D-06
Maxdispl :   0.0076   ||displ|| :   0.0101   Lambda : -0.224D-06
Largest |displ|/coords:  0.0076 (   2)  0.0038 (   1)  0.0035 (  11)
................................................................................
.............................. CYCLE  126 ......................................
................................................................................
   1    -45.6328279 -0.456328E+02  0.728E-03    9.18       0.0  T
   2    -45.6328279 -0.319208E-08  0.547E-03    9.18       3.8  T
   3    -45.6328279 -0.351176E-08  0.423E-04    9.18      49.2  T
   4    -45.6328279 -0.250843E-09  0.152E-04    9.18     136.8  T
speedup  1.00
cpu  time for SCC    0.00 s
wall time for SCC    0.00 s
speedup  0.99
cpu  time for grad    0.01 s
wall time for grad    0.01 s
 E :    -45.37054921  G :  0.000185    pred/act E change: -0.167D-06 -0.156D-06
Maxdispl :   0.0031   ||displ|| :   0.0053   Lambda : -0.147D-06
Largest |displ|/coords:  0.0031 (   2)  0.0028 (  11)  0.0016 (   1)
................................................................................
.............................. CYCLE  127 ......................................
................................................................................
   1    -45.6328630 -0.456329E+02  0.444E-03    9.18       0.0  T
   2    -45.6328630 -0.234503E-08  0.334E-03    9.18       6.2  T
   3    -45.6328630 -0.188818E-08  0.379E-04    9.18      55.0  T
   4    -45.6328630 -0.324853E-09  0.151E-04    9.18     137.7  T
speedup  1.00
cpu  time for SCC    0.00 s
wall time for SCC    0.00 s
speedup  0.98
cpu  time for grad    0.01 s
wall time for grad    0.01 s
 E :    -45.37054931  G :  0.000151    pred/act E change: -0.112D-06 -0.106D-06
Maxdispl :   0.0022   ||displ|| :   0.0043   Lambda : -0.123D-06
Largest |displ|/coords:  0.0022 (  11)  0.0019 (   5)  0.0013 (   7)
................................................................................
.............................. CYCLE  128 ......................................
................................................................................
   1    -45.6328741 -0.456329E+02  0.367E-03    9.18       0.0  T
   2    -45.6328741 -0.286459E-08  0.275E-03    9.18       7.6  T
   3    -45.6328741 -0.155662E-08  0.427E-04    9.18      48.8  T
   4    -45.6328741 -0.491305E-09  0.166E-04    9.18     125.6  T
speedup  0.97
cpu  time for SCC    0.00 s
wall time for SCC    0.00 s
speedup  0.98
cpu  time for grad    0.01 s
wall time for grad    0.01 s
 E :    -45.37054940  G :  0.000159    pred/act E change: -0.737D-07 -0.893D-07
Maxdispl :   0.0030   ||displ|| :   0.0052   Lambda : -0.108D-06
Largest |displ|/coords:  0.0030 (   5)  0.0017 (  11)  0.0016 (   7)

   *** GEOMETRY OPTIMIZATION CONVERGED AFTER 128 ITERATIONS ***

------------------------------------------------------------------------
 total energy gain (kcal):     -0.1092
------------------------------------------------------------------------
================
 final structure:
================
$coord
       -3.31576146656422       -0.87659716210859        1.60519695246633      S 
       -3.17846174579746        1.62395105526021        0.50528527377455      O 
       -1.37625294219305       -2.54238332789885        0.55802093030182      O 
       -3.46013834964960       -0.90275205109129        4.32819203007708      O 
       -5.90996448023165       -2.09404237553863        0.62286517844261      O 
       -7.11476957012576       -1.49486820011453        1.81744628923975      H 
        3.67495752437535        2.59124546734264        0.55705958286745      O 
        4.78413118583403        3.84089600344014        1.25565734714078      H 
        3.86828728071508       -2.41681952744567       -1.01083735901139      O 
        4.23728931870410       -0.69186194354225       -0.50356634064772      H 
        2.44962010949964       -2.92334991118387        0.02545480229267      H 
       -0.09254112526563        3.49884002252485       -2.89801412903997      O 
       -0.04759017822584        0.76649550498424       -3.88324526723066      H 
       -1.45565721128400        3.18110630518232       -1.67591846671676      H 
        1.42034064202994        3.54861358064077       -1.84890592942253      H 
        1.25144271440343        0.60098266799610        4.47274125614583      O 
       -0.56948443382606        0.25394812281218        4.48583469788583      H 
        2.03290037877212       -0.92409465467472        5.06845776686512      H 
        2.62719164740886        1.98492679087121        1.97594609940982      H 
        0.00728919228789       -1.27439124626179       -3.96692930592384      N 
       -0.96119350555185       -1.88595241653839       -2.31327753074853      H 
        1.85472349460379       -1.85896426101744       -3.60097709376860      H 
       -0.72635849881674       -2.00492846253722       -5.57648676550123      H 
$end
 
 Bond Distances (Angstroems)
 ---------------------------
S1-O2=1.4474         S1-O3=1.4620         S1-O4=1.4430         S1-O5=1.6031         O2-S1=1.4474         O3-S1=1.4620         
O4-S1=1.4430         O5-S1=1.6031         O5-H6=0.9522         H6-O5=0.9522         O7-H8=0.9584         O7-H19=0.9870        
H8-O7=0.9584         O9-H10=0.9713        O9-H11=0.9676        H10-O9=0.9713        H11-O9=0.9676        O12-H14=0.9833       
O12-H15=0.9746       H13-N20=1.0813       H14-O12=0.9833       H15-O12=0.9746       O16-H17=0.9810       O16-H18=0.9600       
H17-O16=0.9810       H18-O16=0.9600       H19-O7=0.9870        N20-H13=1.0813       N20-H21=1.0645       N20-H22=1.0435       
N20-H23=1.0127       H21-N20=1.0645       H22-N20=1.0435       H23-N20=1.0127       
 N  H  Rav=1.0505 sigma=0.0256  Rmin=1.0127  Rmax=1.0813     4
 O  H  Rav=0.9706 sigma=0.0114  Rmin=0.9522  Rmax=0.9870     9
 S  O  Rav=1.4889 sigma=0.0663  Rmin=1.4430  Rmax=1.6031     4
 
 selected bond angles (degree)
 --------------------
O3-S1-O2=111.32                O4-S1-O2=114.39                O4-S1-O3=114.20                O5-S1-O2=106.26                
O5-S1-O3=103.65                O5-S1-O4=105.94                H6-O5-S1=102.96                H19-O7-H8=105.96               
H11-O9-H10=105.05              
 
 selected dihedral angles (degree)
 ---------------------------------
H6-O5-S1-O2=274.08            H6-O5-S1-O3=156.66            H6-O5-S1-O4= 36.14            
 
 CMA Distance (Angstroems)
 ---------------------------
R(CMA):  3.0590

========================================================================
 FINAL SINGLEPOINT CALCULATION ON OPTIMIZED GEOMETRY
========================================================================

 Ncao       : 59
 Nao        : 58
 Nshell     : 34
 Nel        : 72
 T(el)      :   300.0
 intcut     :    25.0
 scfconv/Eh :  0.100E-05
   qconv/e  :  0.100E-03
 intneglect :  0.100E-07
 broydamp   :      0.250
 iter      E             dE          RMSdq      gap      omega  full diag
   1    -45.6328741 -0.456329E+02  0.633E-05    9.18       0.0  T
   2    -45.6328741 -0.186162E-11  0.387E-05    9.18     538.2  T
   3    -45.6328741 -0.738964E-12  0.657E-06    9.18    3172.4  T
speedup  1.30
cpu  time for SCC    0.00 s
wall time for SCC    0.00 s

   *** convergence criteria satisfied after 3 iterations ***

          eigenvalues
 #    :          24         25         26         27         28         29         30         31
 occ. :        2.000      2.000      2.000      2.000      2.000      2.000      2.000      2.000
 eps  :       -13.643    -13.639    -13.110    -12.422    -12.374    -12.188    -12.085    -12.074
 #    :          32         33         34         35         36         37         38         39
 occ. :        2.000      2.000      2.000      2.000      2.000      0.000      0.000      0.000
 eps  :       -12.011    -11.972    -11.803    -11.734    -11.501     -2.320     -0.827     -0.352
 #    :          40         41         42         43         44         45         46         47
 occ. :        0.000      0.000      0.000      0.000      0.000      0.000      0.000      0.000
 eps  :         0.889      1.156      1.630      3.035      3.276      4.384      4.532      4.932


   #   Z            q   n(s)   n(p)   n(d)      C6AA      α(0)
   1  16 S      1.647  1.590  1.797  0.966    89.974    15.965
   2   8 O     -0.738  1.765  4.973  0.000    29.777     7.316
   3   8 O     -0.733  1.759  4.974  0.000    29.622     7.297
   4   8 O     -0.727  1.774  4.953  0.000    29.467     7.278
   5   8 O     -0.600  1.752  4.848  0.000    25.155     6.771
   6   1 H      0.340  0.660  0.000  0.000     0.605     1.218
   7   8 O     -0.623  1.746  4.877  0.000    25.748     6.848
   8   1 H      0.288  0.712  0.000  0.000     0.758     1.367
   9   8 O     -0.611  1.751  4.860  0.000    25.451     6.809
  10   1 H      0.319  0.681  0.000  0.000     0.666     1.282
  11   1 H      0.311  0.689  0.000  0.000     0.688     1.303
  12   8 O     -0.609  1.756  4.853  0.000    25.399     6.802
  13   1 H      0.300  0.700  0.000  0.000     0.713     1.322
  14   1 H      0.337  0.663  0.000  0.000     0.621     1.238
  15   1 H      0.323  0.677  0.000  0.000     0.655     1.272
  16   8 O     -0.620  1.739  4.881  0.000    25.681     6.840
  17   1 H      0.321  0.679  0.000  0.000     0.660     1.276
  18   1 H      0.296  0.704  0.000  0.000     0.734     1.346
  19   1 H      0.339  0.661  0.000  0.000     0.614     1.231
  20   7 N     -0.352  1.277  4.075  0.000    29.046     8.005
  21   1 H      0.289  0.711  0.000  0.000     0.748     1.355
  22   1 H      0.280  0.720  0.000  0.000     0.776     1.380
  23   1 H      0.224  0.776  0.000  0.000     0.989     1.558

 Mol. C6AA /au·bohr⁶  :       4496.836756
 Mol. C8AA /au·bohr⁸  :      99101.450398
 Mol. α(0) /au        :         97.079949

 
 Wiberg/Mayer (AO) data. WBOs > 0.1 written file <wbo>
 largest (>0.05) Wiberg bond orders for each atom
           total WBO             WBO to atom ...
     1  S   4.883    O    4 1.346    O    2 1.340    O    3 1.288    O    5 0.871
     2  O   1.715    S    1 1.340    O    3 0.113    O    4 0.111    O    5 0.075    H   14 0.053
     3  O   1.748    S    1 1.288    O    2 0.113    H   21 0.109    O    4 0.103    O    5 0.061
     4  O   1.744    S    1 1.346    O    2 0.111    O    3 0.103    O    5 0.077    H   17 0.064
     5  O   1.956    S    1 0.871    H    6 0.869    O    4 0.077    O    2 0.075    O    3 0.061
     6  H   0.884    O    5 0.869
     7  O   1.868    H    8 0.910    H   19 0.815
     8  H   0.917    O    7 0.910
     9  O   1.885    H   11 0.886    H   10 0.862    H   22 0.067
    10  H   0.898    O    9 0.862
    11  H   0.903    O    9 0.886
    12  O   1.959    H   15 0.852    H   14 0.829    H   13 0.152    N   20 0.072
    13  H   0.910    N   20 0.753    O   12 0.152
    14  H   0.887    O   12 0.829    O    2 0.053
    15  H   0.896    O   12 0.852
    16  O   1.864    H   18 0.908    H   17 0.822    H   19 0.066
    17  H   0.897    O   16 0.822    O    4 0.064
    18  H   0.913    O   16 0.908
    19  H   0.885    O    7 0.815    O   16 0.066
    20  N   3.515    H   23 0.945    H   22 0.849    H   21 0.799    H   13 0.753    O   12 0.072
    21  H   0.917    N   20 0.799    O    3 0.109
    22  H   0.922    N   20 0.849    O    9 0.067
    23  H   0.950    N   20 0.945
 MOs/occ written to file <molden.input>
 
molecular dipole:
                 x           y           z       tot (Debye)
 q only:        1.000      -0.177      -1.824
   full:        0.447      -0.313      -1.010       2.918
molecular quadrupole (traceless):
                xx          xy          yy          xz          yz          zz
 q only:        0.246       4.058      -5.009       5.914       5.669       4.763
  q+dip:        2.893       6.569      -6.398       5.972       5.824       3.505
   full:        3.609       6.992      -6.818       5.863       5.932       3.210

SCC energy    :     -45.6328741
rep           :       0.2620934
ES            :       0.2375576
AES           :      -0.0675138
AXC           :      -0.0071444
disp          :      -0.0170292
XB            :       0.0000000
fix           :       0.0000000
total E       :     -45.3705494
atomizationE  :       4.4536119     2794.68
(atE without considering molecular charge,
 total energy contains solvation terms)
H-L gap (eV)  :          9.1811
optimized geometry written to: xtbopt.xyz


------------------------------------------------------------------------
 * finished run on 2019/09/16 at 11:59:56.135     
------------------------------------------------------------------------
 total:
 * wall-time:     0 d,  0 h,  0 min,  2.496 sec
 *  cpu-time:     0 d,  0 h,  0 min,  2.469 sec
 * ratio c/w:     0.989 speedup
 SCF:
 * wall-time:     0 d,  0 h,  0 min,  0.122 sec
 *  cpu-time:     0 d,  0 h,  0 min,  0.119 sec
 * ratio c/w:     0.975 speedup
 ANC optimizer:
 * wall-time:     0 d,  0 h,  0 min,  2.353 sec
 *  cpu-time:     0 d,  0 h,  0 min,  2.332 sec
 * ratio c/w:     0.991 speedup

