      -----------------------------------------------------------      
     |                   =====================                   |     
     |                           x T B                           |     
     |                   =====================                   |     
     |                         S. Grimme                         |     
     |          Mulliken Center for Theoretical Chemistry        |     
     |                    University of Bonn                     |     
     |                 Version 6.0.1 (SAW181210)                 |     
      -----------------------------------------------------------      

   This program is distributed in the hope that it will be useful,
   but WITHOUT ANY WARRANTY; without even the implied warranty of
   MERCHANTABILITY or FITNESS FOR A PARTICULAR PURPOSE.
   
   FOR NON-COMMERCIAL, ACADEMIA USE ONLY.
   
   Cite this work as:
   S. Grimme, C. Bannwarth, P. Shushkov, J. Comput. Theory Chem., 2017,
   13, 1989-2009.
   C. Bannwarth, S. Ehlert and S. Grimme., ChemRxiv, 2018, preprint.
   http://doi.org/10.26434/chemrxiv.7246238.v1
   
   for sTDA-xTB:
   S. Grimme and C. Bannwarth, J. Chem. Phys., 2016, 145, 054103.
   
   in the mass-spec context:
   V. Asgeirsson, C. Bauer and S. Grimme, Chem. Sci., 2017, 8, 4879.
   
   if GBSA is used:
   P. Shushkov, F. März and S. Grimme, unpublished.
   
   for ANC optimizer:
   S. Grimme, unpublished.
   Rational Function algorithm used in ANCopt:
   F. Eckert, P. Pulay, H.-J. Werner, J. Comput. Chem., 1997, 18, 1473.
   
   with help from (in alphabetical order)
   C. Bannwarth, F. Bohle, G. Brandenburg, E. Caldeweyher, M. Checinski,
   S. Dohm, S. Ehlert, S. Ehrlich, F. März, H. Neugebauer, J. Pisarek,
   P. Pracht, P. Shushkov, and S. Spicher.
   
 * started run on 2019/09/16 at 12:09:31.587     
========================================================================
 # omp threads = 1
========================================================================
number of atoms            : 23
number of electrons        : 72
charge                     : 0
spin                       : .0
first test random number   : .3591

########################################################################
# WARNING! Please study the warnings concerning your input carefully
#  - XTBPATH is not set, using XTBHOME instead
#  - the use of '-opt' is discouraged, please use '--opt' next time
#  - the use of '-chrg' is discouraged, please use '--chrg' next time
#  - the use of '-uhf' is discouraged, please use '--uhf' next time
########################################################################

           ------------------------------------------------- 
          |                 G F N 2 - x T B                 |
          | Geometry, Frequencies, Noncovalent interactions |
          |            JCTC 2018 parametrisation            |
           ------------------------------------------------- 
      method parameters     
 k(s)        :  1.8500
 k(p)        :  2.2300
 k(d)        :  2.2300
 k(f)        :  2.0000
 kEN (H0ij)  : -2.0000
 D4 a1       :  0.5200
 D4 a2       :  5.0000
 D4 s6       :  1.0000
 D4 s8       :  2.7000
 D4 s9       :  5.0000
 alphaj      :  2.0000


            Z     q(EN)     CN     RAES       Cart. coordinates
     1  S   6.0    0.64    4.26    4.16     4.07716    -0.24273     1.94016
     2  O   6.0   -0.31    1.20    1.80     4.70708     2.39897     1.19670
     3  O   6.0   -0.32    1.24    1.80     1.90309    -0.22117     3.72932
     4  O   6.0   -0.31    1.22    1.80     3.39059    -1.72485    -0.35332
     5  O   6.0   -0.25    2.08    1.84     6.27733    -1.40769     3.17086
     6  H   1.0    0.15    1.21    1.47     6.72037    -0.45334     4.64870
     7  O   6.0   -0.38    1.60    1.81    -3.52934     0.64816    -1.49974
     8  H   1.0    0.17    0.94    1.42    -5.05862     1.35488    -2.30325
     9  O   6.0   -0.29    2.04    1.83     2.91878     4.76767    -2.86699
    10  H   1.0    0.18    1.05    1.44     3.71482     4.14436    -1.35292
    11  H   1.0    0.15    0.97    1.43     3.43005     6.51015    -2.99738
    12  O   6.0   -0.22    2.92    2.59     0.48323     0.55439    -3.59356
    13  H   1.0    0.14    1.05    1.44     1.22784     2.26633    -3.66184
    14  H   1.0    0.15    1.06    1.44     1.58251    -0.65174    -2.68425
    15  H   1.0    0.16    1.22    1.47    -1.25323     0.57414    -2.90375
    16  O   6.0   -0.22    2.92    2.58    -2.92329    -0.11891     2.91193
    17  H   1.0    0.12    0.99    1.43    -3.61423    -1.83748     3.15480
    18  H   1.0    0.16    1.07    1.44    -1.13010    -0.00623     3.42359
    19  H   1.0    0.16    1.21    1.47    -3.19370     0.50388     1.17110
    20  N   5.0   -0.21    2.97    1.92    -4.85738    -4.20891     0.27348
    21  H   1.0    0.12    1.03    1.43    -4.50732    -2.58344    -0.69935
    22  H   1.0    0.10    0.99    1.43    -6.65433    -4.72190    -0.19439
    23  H   1.0    0.11    0.99    1.43    -3.71131    -5.54454    -0.50989

  Z AO/shell   Hii/eV     exponent
  1     Wed Apr 25 08:07:45 CEST 2018   EN: 2.200 GM2: 0.406  GM3: 0.0800  RAES: 1.40
     1s    -10.707211    1.230000
  7     Wed Apr 25 08:07:45 CEST 2018   EN: 3.040 GM2: 0.461  GM3:-0.0640  RAES: 1.90
     2s    -16.686243    2.339881
     2p    -12.523956    2.014332
  8     Wed Apr 25 08:07:45 CEST 2018   EN: 3.440 GM2: 0.452  GM3:-0.0517  RAES: 1.80
     2s    -20.229985    2.439742
     2p    -15.503117    2.137023
 16     Tue Apr 24 11:44:34 CEST 2018   EN: 2.580 GM2: 0.340  GM3:-0.0502  RAES: 3.10
     3s    -20.029654    1.981333
     3p    -11.377694    2.025643
     3d     -0.420282    1.702555
 no old-style atom pair restraining (fixing) potential

molecular fragmentation (1/2 indicates fragments):
11111122222222222222222
# atoms in fragment 1/2:     6    17
 fragment masses (1/2) :       97.07       90.10
CMA distance (Bohr)    :   6.359
constraining FC (au)   :  0.0500
           ------------------------------------------------- 
          |        Self-Consistent Charge Iterations        |
           ------------------------------------------------- 

 Ncao       : 59
 Nao        : 58
 Nshell     : 34
 Nel        : 72
 T(el)      :   300.0
 intcut     :    25.0
 scfconv/Eh :  0.100E-05
   qconv/e  :  0.100E-03
 intneglect :  0.100E-07
 broydamp   :      0.250
 iter      E             dE          RMSdq      gap      omega  full diag
   1    -45.4552967 -0.454553E+02  0.717E+00   10.16       0.0  T
   2    -45.5020191 -0.467223E-01  0.517E+00    9.40       1.0  T
   3    -45.5352586 -0.332395E-01  0.141E+00    7.36       1.0  T
   4    -45.5407057 -0.544713E-02  0.556E-01    7.79       1.0  T
   5    -45.5412739 -0.568135E-03  0.322E-01    7.80       1.0  T
   6    -45.5416943 -0.420399E-03  0.138E-01    7.90       1.0  T
   7    -45.5417868 -0.925285E-04  0.492E-02    7.88       1.0  T
   8    -45.5417966 -0.977638E-05  0.318E-02    7.87       1.0  T
   9    -45.5418027 -0.608093E-05  0.784E-03    7.89       2.7  T
  10    -45.5418030 -0.301386E-06  0.227E-03    7.89       9.2  T
  11    -45.5418030 -0.973191E-08  0.129E-03    7.89      16.1  T
  12    -45.5418030 -0.799172E-08  0.500E-04    7.89      41.7  T
  13    -45.5418030 -0.128099E-08  0.150E-04    7.89     139.4  T
speedup  1.07
cpu  time for SCC    0.01 s
wall time for SCC    0.01 s

   *** convergence criteria satisfied after 13 iterations ***

          eigenvalues
 #    :          24         25         26         27         28         29         30         31
 occ. :        2.000      2.000      2.000      2.000      2.000      2.000      2.000      2.000
 eps  :       -13.099    -12.855    -12.589    -11.940    -11.925    -11.742    -11.534    -11.127
 #    :          32         33         34         35         36         37         38         39
 occ. :        2.000      2.000      2.000      2.000      2.000      0.000      0.000      0.000
 eps  :       -11.026    -10.834    -10.641    -10.319     -9.784     -1.893     -0.288     -0.061
 #    :          40         41         42         43         44         45         46         47
 occ. :        0.000      0.000      0.000      0.000      0.000      0.000      0.000      0.000
 eps  :         0.501      1.044      1.532      2.928      3.252      3.816      4.730      5.569


   #   Z            q   n(s)   n(p)   n(d)      C6AA      α(0)
   1  16 S      1.591  1.583  1.843  0.982    91.276    16.080
   2   8 O     -0.756  1.778  4.979  0.000    30.288     7.379
   3   8 O     -0.761  1.768  4.993  0.000    30.428     7.396
   4   8 O     -0.727  1.764  4.963  0.000    29.458     7.277
   5   8 O     -0.540  1.718  4.822  0.000    23.767     6.581
   6   1 H      0.359  0.641  0.000  0.000     0.558     1.169
   7   8 O     -0.864  1.825  5.039  0.000    33.487     7.762
   8   1 H      0.202  0.798  0.000  0.000     1.109     1.655
   9   8 O     -0.618  1.728  4.890  0.000    25.618     6.831
  10   1 H      0.336  0.664  0.000  0.000     0.621     1.238
  11   1 H      0.288  0.712  0.000  0.000     0.758     1.367
  12   8 O     -0.456  1.657  4.799  0.000    21.905     6.321
  13   1 H      0.399  0.601  0.000  0.000     0.487     1.096
  14   1 H      0.397  0.603  0.000  0.000     0.491     1.101
  15   1 H      0.403  0.597  0.000  0.000     0.472     1.075
  16   8 O     -0.438  1.654  4.784  0.000    21.534     6.267
  17   1 H      0.384  0.616  0.000  0.000     0.515     1.127
  18   1 H      0.403  0.597  0.000  0.000     0.479     1.087
  19   1 H      0.412  0.588  0.000  0.000     0.457     1.058
  20   7 N     -0.480  1.405  4.076  0.000    32.725     8.496
  21   1 H      0.198  0.802  0.000  0.000     1.118     1.657
  22   1 H      0.130  0.870  0.000  0.000     1.544     1.946
  23   1 H      0.136  0.864  0.000  0.000     1.501     1.919

 Mol. C6AA /au·bohr⁶  :       4569.706060
 Mol. C8AA /au·bohr⁸  :     100645.354383
 Mol. α(0) /au        :         97.884271

 
 Wiberg/Mayer (AO) data. WBOs > 0.1 written file <wbo>
 largest (>0.05) Wiberg bond orders for each atom
           total WBO             WBO to atom ...
     1  S   4.927    O    4 1.319    O    2 1.301    O    3 1.271    O    5 0.999
     2  O   1.677    S    1 1.301    O    4 0.116    O    3 0.111    O    5 0.074    H   10 0.053
     3  O   1.688    S    1 1.271    O    4 0.112    O    2 0.111    H   18 0.091    O    5 0.070
     4  O   1.719    S    1 1.319    O    2 0.116    O    3 0.112    H   14 0.079    O    5 0.053
     5  O   2.050    S    1 0.999    H    6 0.847    O    2 0.074    O    3 0.070    O    4 0.053
     6  H   0.870    O    5 0.847
     7  O   1.568    H    8 0.948    H   15 0.205    H   19 0.198    O   12 0.063    O   16 0.060
     8  H   0.959    O    7 0.948
     9  O   1.850    H   11 0.903    H   10 0.831    H   13 0.066
    10  H   0.887    O    9 0.831    O    2 0.053
    11  H   0.917    O    9 0.903
    12  O   2.285    H   13 0.767    H   14 0.756    H   15 0.627    O    7 0.063
    13  H   0.841    O   12 0.767    O    9 0.066
    14  H   0.843    O   12 0.756    O    4 0.079
    15  H   0.837    O   12 0.627    O    7 0.205
    16  O   2.298    H   17 0.816    H   18 0.736    H   19 0.625    O    7 0.060
    17  H   0.852    O   16 0.816
    18  H   0.837    O   16 0.736    O    3 0.091
    19  H   0.830    O   16 0.625    O    7 0.198
    20  N   2.945    H   22 0.980    H   23 0.979    H   21 0.909
    21  H   0.961    N   20 0.909
    22  H   0.983    N   20 0.980
    23  H   0.982    N   20 0.979
 MOs/occ written to file <molden.input>
 
molecular dipole:
                 x           y           z       tot (Debye)
 q only:       -0.919       0.174       0.221
   full:       -0.426       0.099       0.340       1.408
molecular quadrupole (traceless):
                xx          xy          yy          xz          yz          zz
 q only:       -3.368       4.711      -2.107      -1.073      -4.117       5.476
  q+dip:        1.952       6.721      -2.128       7.405      -3.179       0.176
   full:        2.241       6.537      -2.201       7.916      -3.517      -0.041

SCC energy    :     -45.5418030
rep           :       0.2562077
ES            :       0.2642968
AES           :      -0.0599456
AXC           :      -0.0063569
disp          :      -0.0146349
XB            :       0.0000000
fix           :       0.0000000
total E       :     -45.2854089
atomizationE  :       4.3684714     2741.26
(atE without considering molecular charge,
 total energy contains solvation terms)
H-L gap (eV)  :          7.8910
           ------------------------------------------------- 
          |                 ===============                 |
          |                   A N C O P T                   |
          |                 ===============                 |
          |          Approximate Normal Coordinate          |
          |           Rational Function Optimizer           |
           ------------------------------------------------- 
dumping coords to <xtbopt.coord> and <xtbopt.log>
 optlevel               2
 Maxcycle             460
 Maxmicro              25
 Econv         1.000000000000000E-007
 Gconv         2.000000000000000E-004
 Maxdispl       1.00000000000000     
 Hlow          5.000000000000000E-003
 S6             20.0000000000000     
 Nvar               63

generating ANC from model Hessian ...
 Shifting diagonal of input Hessian by   5.087832643915072E-003
 Lowest  eigenvalues of input Hessian
    0.005000   -0.000000   -0.000000   -0.000000   -0.000000    0.000000
    0.000000    0.005220    0.005372    0.006080    0.006123    0.006581
    0.007333    0.008122    0.008579    0.008948    0.009345    0.010505
 Highest eigenvalues
    1.562100    1.585445    1.590425    3.143425    3.218799    3.319089
 
cpu  time for ANC gen    0.01 s
wall time for ANC gen    0.01 s
................................................................................
.............................. CYCLE    1 ......................................
................................................................................
   1    -45.5418030 -0.455418E+02  0.815E-05    7.89       0.0  T
   2    -45.5418030 -0.120082E-10  0.641E-05    7.89     325.2  T
   3    -45.5418030 -0.138343E-10  0.311E-05    7.89     671.1  T
speedup  0.83
cpu  time for SCC    0.00 s
wall time for SCC    0.00 s
speedup  0.99
cpu  time for grad    0.01 s
wall time for grad    0.01 s
 E :    -45.28540886  G :  0.205871    pred/act E change:  0.000D+00  0.448D-07
Maxdispl :   0.1214   ||displ|| :   0.2812   Lambda : -0.298D-01
Largest |displ|/coords:  0.1214 (  11)  0.1019 (  47)  0.0911 (  25)
................................................................................
.............................. CYCLE    2 ......................................
................................................................................
   1    -45.5541740 -0.455542E+02  0.320E-01    7.98       0.0  T
   2    -45.5543786 -0.204584E-03  0.241E-01    8.06       1.0  T
   3    -45.5544708 -0.922409E-04  0.830E-02    8.19       1.0  T
   4    -45.5544853 -0.144698E-04  0.191E-02    8.18       1.1  T
   5    -45.5544862 -0.876651E-06  0.535E-03    8.17       3.9  T
   6    -45.5544862 -0.408631E-07  0.314E-03    8.17       6.6  T
speedup  0.89
cpu  time for SCC    0.00 s
wall time for SCC    0.00 s
speedup  0.93
cpu  time for grad    0.01 s
wall time for grad    0.01 s
 E :    -45.30940616  G :  0.130629    pred/act E change:  0.000D+00 -0.240D-01
Maxdispl :   0.1756   ||displ|| :   0.3161   Lambda : -0.161D-01
Largest |displ|/coords:  0.1756 (  11)  0.1183 (  25)  0.1152 (  22)
................................................................................
.............................. CYCLE    3 ......................................
................................................................................
   1    -45.5603958 -0.455604E+02  0.299E-01    8.24       0.0  T
   2    -45.5606493 -0.253456E-03  0.220E-01    8.30       1.0  T
   3    -45.5607584 -0.109074E-03  0.850E-02    8.38       1.0  T
   4    -45.5607699 -0.115900E-04  0.170E-02    8.37       1.2  T
   5    -45.5607705 -0.593081E-06  0.513E-03    8.37       4.1  T
   6    -45.5607706 -0.376938E-07  0.296E-03    8.37       7.0  T
speedup  0.89
cpu  time for SCC    0.00 s
wall time for SCC    0.00 s
speedup  1.00
cpu  time for grad    0.01 s
wall time for grad    0.01 s
 E :    -45.32252902  G :  0.085430    pred/act E change: -0.161D-01 -0.131D-01
Maxdispl :   0.2404   ||displ|| :   0.3436   Lambda : -0.878D-02
Largest |displ|/coords:  0.2404 (  11)  0.1054 (  12)  0.0925 (  22)
................................................................................
.............................. CYCLE    4 ......................................
................................................................................
   1    -45.5629987 -0.455630E+02  0.317E-01    8.39       0.0  T
   2    -45.5632608 -0.262184E-03  0.230E-01    8.43       1.0  T
   3    -45.5633699 -0.109014E-03  0.821E-02    8.49       1.0  T
   4    -45.5633837 -0.138571E-04  0.163E-02    8.48       1.3  T
   5    -45.5633842 -0.501693E-06  0.538E-03    8.48       3.9  T
   6    -45.5633842 -0.339161E-07  0.296E-03    8.48       7.0  T
speedup  1.11
cpu  time for SCC    0.00 s
wall time for SCC    0.00 s
speedup  1.02
cpu  time for grad    0.01 s
wall time for grad    0.01 s
 E :    -45.32963839  G :  0.058945    pred/act E change: -0.886D-02 -0.711D-02
Maxdispl :   0.1601   ||displ|| :   0.2887   Lambda : -0.493D-02
Largest |displ|/coords:  0.1601 (  11)  0.0873 (  12)  0.0821 (   5)
................................................................................
.............................. CYCLE    5 ......................................
................................................................................
   1    -45.5678532 -0.455679E+02  0.203E-01    8.53       0.0  T
   2    -45.5679864 -0.133257E-03  0.145E-01    8.56       1.0  T
   3    -45.5680417 -0.553264E-04  0.554E-02    8.62       1.0  T
   4    -45.5680467 -0.492436E-05  0.112E-02    8.62       1.9  T
   5    -45.5680469 -0.223229E-06  0.361E-03    8.62       5.8  T
   6    -45.5680469 -0.115715E-07  0.179E-03    8.62      11.7  T
speedup  0.89
cpu  time for SCC    0.00 s
wall time for SCC    0.00 s
speedup  1.02
cpu  time for grad    0.01 s
wall time for grad    0.01 s
 E :    -45.33367527  G :  0.038758    pred/act E change: -0.491D-02 -0.404D-02
Maxdispl :   0.4297   ||displ|| :   0.6145   Lambda : -0.796D-02
Largest |displ|/coords:  0.4297 (  11)  0.2256 (  12)  0.1787 (   6)
................................................................................
.............................. CYCLE    6 ......................................
................................................................................
   1    -45.5631731 -0.455632E+02  0.705E-01    8.49       0.0  T
   2    -45.5644729 -0.129988E-02  0.497E-01    8.54       1.0  T
   3    -45.5649767 -0.503812E-03  0.173E-01    8.64       1.0  T
   4    -45.5650445 -0.677555E-04  0.341E-02    8.65       1.0  T
   5    -45.5650464 -0.191854E-05  0.150E-02    8.65       1.4  T
   6    -45.5650470 -0.575564E-06  0.630E-03    8.65       3.3  T
   7    -45.5650471 -0.587623E-07  0.171E-03    8.65      12.2  T
   8    -45.5650471 -0.470487E-08  0.523E-04    8.65      39.9  T
speedup  1.17
cpu  time for SCC    0.01 s
wall time for SCC    0.01 s
speedup  1.05
cpu  time for grad    0.01 s
wall time for grad    0.01 s
 E :    -45.33629104  G :  0.069390    pred/act E change: -0.267D-02 -0.262D-02
Maxdispl :   0.1578   ||displ|| :   0.4198   Lambda : -0.126D-01
Largest |displ|/coords:  0.1578 (  14)  0.1567 (  11)  0.1470 (   1)
................................................................................
.............................. CYCLE    7 ......................................
................................................................................
   1    -45.5813824 -0.455814E+02  0.672E-01    8.83       0.0  T
   2    -45.5817064 -0.324070E-03  0.501E-01    8.86       1.0  T
   3    -45.5819184 -0.211951E-03  0.104E-01    8.91       1.0  T
   4    -45.5819582 -0.398374E-04  0.213E-02    8.89       1.0  T
   5    -45.5819592 -0.100244E-05  0.114E-02    8.89       1.8  T
   6    -45.5819593 -0.874755E-07  0.461E-03    8.89       4.5  T
   7    -45.5819594 -0.634582E-07  0.107E-03    8.89      19.6  T
speedup  0.93
cpu  time for SCC    0.00 s
wall time for SCC    0.01 s
speedup  1.01
cpu  time for grad    0.01 s
wall time for grad    0.01 s
 E :    -45.33535869  G :  0.084378    pred/act E change: -0.548D-02  0.932D-03
Maxdispl :   0.1535   ||displ|| :   0.3230   Lambda : -0.942D-02
Largest |displ|/coords:  0.1535 (  11)  0.1161 (  12)  0.1134 (   6)
................................................................................
.............................. CYCLE    8 ......................................
................................................................................
   1    -45.5730439 -0.455730E+02  0.519E-01    8.74       0.0  T
   2    -45.5733041 -0.260199E-03  0.381E-01    8.74       1.0  T
   3    -45.5734337 -0.129691E-03  0.905E-02    8.75       1.0  T
   4    -45.5734638 -0.300905E-04  0.172E-02    8.75       1.2  T
   5    -45.5734642 -0.335403E-06  0.787E-03    8.75       2.6  T
   6    -45.5734644 -0.193569E-06  0.372E-03    8.75       5.6  T
   7    -45.5734644 -0.207835E-07  0.814E-04    8.75      25.6  T
speedup  0.96
cpu  time for SCC    0.00 s
wall time for SCC    0.01 s
speedup  0.95
cpu  time for grad    0.01 s
wall time for grad    0.01 s
 E :    -45.33934498  G :  0.038509    pred/act E change: -0.740D-02 -0.399D-02
Maxdispl :   0.2273   ||displ|| :   0.2812   Lambda : -0.183D-02
Largest |displ|/coords:  0.2273 (   4)  0.0930 (   1)  0.0594 (   9)
................................................................................
.............................. CYCLE    9 ......................................
................................................................................
   1    -45.5706340 -0.455706E+02  0.442E-01    8.75       0.0  T
   2    -45.5706889 -0.548710E-04  0.336E-01    8.76       1.0  T
   3    -45.5707275 -0.385625E-04  0.415E-02    8.78       1.0  T
   4    -45.5707360 -0.851659E-05  0.930E-03    8.78       2.2  T
   5    -45.5707361 -0.111202E-06  0.445E-03    8.78       4.7  T
   6    -45.5707361 -0.189911E-07  0.189E-03    8.78      11.0  T
speedup  0.89
cpu  time for SCC    0.00 s
wall time for SCC    0.00 s
speedup  0.92
cpu  time for grad    0.01 s
wall time for grad    0.01 s
 E :    -45.33944796  G :  0.046564    pred/act E change: -0.520D-02 -0.103D-03
Maxdispl :   0.1680   ||displ|| :   0.3475   Lambda : -0.489D-02
Largest |displ|/coords:  0.1680 (   4)  0.1222 (   2)  0.1078 (   1)
................................................................................
.............................. CYCLE   10 ......................................
................................................................................
   1    -45.5872721 -0.455873E+02  0.472E-01    8.87       0.0  T
   2    -45.5873670 -0.949140E-04  0.357E-01    8.89       1.0  T
   3    -45.5874351 -0.681148E-04  0.560E-02    8.95       1.0  T
   4    -45.5874474 -0.122874E-04  0.129E-02    8.94       1.6  T
   5    -45.5874476 -0.238015E-06  0.614E-03    8.94       3.4  T
   6    -45.5874477 -0.312833E-07  0.248E-03    8.94       8.4  T
   7    -45.5874477 -0.116652E-07  0.682E-04    8.94      30.6  T
speedup  0.96
cpu  time for SCC    0.01 s
wall time for SCC    0.01 s
speedup  1.03
cpu  time for grad    0.01 s
wall time for grad    0.01 s
 E :    -45.33891968  G :  0.059522    pred/act E change: -0.990D-03  0.528D-03
Maxdispl :   0.1376   ||displ|| :   0.3271   Lambda : -0.865D-02
Largest |displ|/coords:  0.1376 (   4)  0.0986 (  11)  0.0974 (  19)
................................................................................
.............................. CYCLE   11 ......................................
................................................................................
   1    -45.5678390 -0.455678E+02  0.522E-01    8.78       0.0  T
   2    -45.5679974 -0.158367E-03  0.388E-01    8.78       1.0  T
   3    -45.5680990 -0.101645E-03  0.745E-02    8.77       1.0  T
   4    -45.5681177 -0.186998E-04  0.176E-02    8.76       1.2  T
   5    -45.5681181 -0.431277E-06  0.727E-03    8.76       2.9  T
   6    -45.5681183 -0.148512E-06  0.381E-03    8.77       5.5  T
   7    -45.5681183 -0.235923E-07  0.875E-04    8.77      23.8  T
speedup  0.96
cpu  time for SCC    0.00 s
wall time for SCC    0.01 s
speedup  1.02
cpu  time for grad    0.01 s
wall time for grad    0.01 s
 E :    -45.33931503  G :  0.063536    pred/act E change: -0.274D-02 -0.395D-03
Maxdispl :   0.1209   ||displ|| :   0.3008   Lambda : -0.783D-02
Largest |displ|/coords:  0.1209 (   1)  0.1071 (   5)  0.0846 (  19)
................................................................................
.............................. CYCLE   12 ......................................
................................................................................
   1    -45.5864998 -0.455865E+02  0.399E-01    8.95       0.0  T
   2    -45.5865941 -0.942202E-04  0.297E-01    8.96       1.0  T
   3    -45.5866661 -0.720246E-04  0.564E-02    8.98       1.0  T
   4    -45.5866751 -0.901051E-05  0.155E-02    8.99       1.3  T
   5    -45.5866754 -0.351087E-06  0.617E-03    8.98       3.4  T
   6    -45.5866755 -0.308270E-07  0.278E-03    8.98       7.5  T
   7    -45.5866755 -0.196583E-07  0.713E-04    8.98      29.3  T
speedup  1.15
cpu  time for SCC    0.01 s
wall time for SCC    0.01 s
speedup  1.03
cpu  time for grad    0.01 s
wall time for grad    0.01 s
 E :    -45.34071407  G :  0.037617    pred/act E change: -0.479D-02 -0.140D-02
Maxdispl :   0.0800   ||displ|| :   0.1556   Lambda : -0.232D-02
Largest |displ|/coords:  0.0800 (   4)  0.0562 (   6)  0.0552 (  11)
................................................................................
.............................. CYCLE   13 ......................................
................................................................................
   1    -45.5798555 -0.455799E+02  0.212E-01    8.92       0.0  T
   2    -45.5798871 -0.316110E-04  0.157E-01    8.93       1.0  T
   3    -45.5799038 -0.166478E-04  0.323E-02    8.94       1.0  T
   4    -45.5799079 -0.409732E-05  0.675E-03    8.93       3.1  T
   5    -45.5799079 -0.663212E-07  0.293E-03    8.93       7.1  T
   6    -45.5799079 -0.133682E-07  0.145E-03    8.93      14.3  T
speedup  1.14
cpu  time for SCC    0.01 s
wall time for SCC    0.00 s
speedup  1.11
cpu  time for grad    0.01 s
wall time for grad    0.01 s
 E :    -45.34215333  G :  0.015893    pred/act E change: -0.427D-02 -0.144D-02
Maxdispl :   0.1307   ||displ|| :   0.2215   Lambda : -0.880D-03
Largest |displ|/coords:  0.1307 (   2)  0.0932 (   4)  0.0694 (  11)
................................................................................
.............................. CYCLE   14 ......................................
................................................................................
   1    -45.5798585 -0.455799E+02  0.201E-01    8.93       0.0  T
   2    -45.5798863 -0.278379E-04  0.150E-01    8.93       1.0  T
   3    -45.5798980 -0.117426E-04  0.304E-02    8.93       1.0  T
   4    -45.5799025 -0.446910E-05  0.648E-03    8.94       3.2  T
   5    -45.5799026 -0.557207E-07  0.250E-03    8.94       8.3  T
   6    -45.5799026 -0.548330E-08  0.134E-03    8.94      15.6  T
speedup  0.89
cpu  time for SCC    0.00 s
wall time for SCC    0.00 s
speedup  1.00
cpu  time for grad    0.01 s
wall time for grad    0.01 s
 E :    -45.34267215  G :  0.024414    pred/act E change: -0.119D-02 -0.519D-03
Maxdispl :   0.1724   ||displ|| :   0.4308   Lambda : -0.137D-02
Largest |displ|/coords:  0.1724 (   6)  0.1702 (   1)  0.1699 (   4)
................................................................................
.............................. CYCLE   15 ......................................
................................................................................
   1    -45.5745994 -0.455746E+02  0.339E-01    8.92       0.0  T
   2    -45.5746838 -0.844160E-04  0.248E-01    8.95       1.0  T
   3    -45.5747179 -0.341190E-04  0.495E-02    9.00       1.0  T
   4    -45.5747297 -0.117457E-04  0.118E-02    8.99       1.8  T
   5    -45.5747298 -0.138244E-06  0.491E-03    8.99       4.2  T
   6    -45.5747298 -0.275601E-07  0.239E-03    8.99       8.7  T
speedup  0.89
cpu  time for SCC    0.00 s
wall time for SCC    0.00 s
speedup  0.92
cpu  time for grad    0.01 s
wall time for grad    0.01 s
 E :    -45.34336618  G :  0.041097    pred/act E change: -0.461D-03 -0.694D-03
Maxdispl :   0.1621   ||displ|| :   0.2981   Lambda : -0.164D-02
Largest |displ|/coords:  0.1621 (   2)  0.1271 (   1)  0.1109 (  11)
................................................................................
.............................. CYCLE   16 ......................................
................................................................................
   1    -45.5796359 -0.455796E+02  0.178E-01    9.05       0.0  T
   2    -45.5796530 -0.170766E-04  0.131E-01    9.06       1.0  T
   3    -45.5796620 -0.903000E-05  0.230E-02    9.08       1.0  T
   4    -45.5796642 -0.214153E-05  0.931E-03    9.08       2.2  T
   5    -45.5796642 -0.790453E-07  0.231E-03    9.08       9.0  T
   6    -45.5796642 -0.497216E-08  0.129E-03    9.08      16.1  T
speedup  0.89
cpu  time for SCC    0.00 s
wall time for SCC    0.00 s
speedup  1.01
cpu  time for grad    0.01 s
wall time for grad    0.01 s
 E :    -45.34454738  G :  0.025818    pred/act E change: -0.811D-03 -0.118D-02
Maxdispl :   0.1757   ||displ|| :   0.4684   Lambda : -0.276D-02
Largest |displ|/coords:  0.1757 (  11)  0.1719 (   9)  0.1626 (   1)
................................................................................
.............................. CYCLE   17 ......................................
................................................................................
   1    -45.5919495 -0.455919E+02  0.305E-01    9.28       0.0  T
   2    -45.5920035 -0.539782E-04  0.225E-01    9.27       1.0  T
   3    -45.5920272 -0.236573E-04  0.447E-02    9.24       1.0  T
   4    -45.5920344 -0.722244E-05  0.148E-02    9.26       1.4  T
   5    -45.5920346 -0.182555E-06  0.379E-03    9.26       5.5  T
   6    -45.5920346 -0.113599E-07  0.187E-03    9.26      11.1  T
speedup  1.11
cpu  time for SCC    0.00 s
wall time for SCC    0.00 s
speedup  1.01
cpu  time for grad    0.01 s
wall time for grad    0.01 s
 E :    -45.34481961  G :  0.036931    pred/act E change: -0.892D-03 -0.272D-03
Maxdispl :   0.1723   ||displ|| :   0.3511   Lambda : -0.260D-02
Largest |displ|/coords:  0.1723 (   2)  0.1350 (   1)  0.1339 (   4)
................................................................................
.............................. CYCLE   18 ......................................
................................................................................
   1    -45.5833511 -0.455834E+02  0.293E-01    9.21       0.0  T
   2    -45.5834012 -0.501914E-04  0.215E-01    9.24       1.0  T
   3    -45.5834202 -0.189263E-04  0.416E-02    9.26       1.0  T
   4    -45.5834274 -0.722823E-05  0.102E-02    9.26       2.0  T
   5    -45.5834275 -0.105496E-06  0.386E-03    9.26       5.4  T
   6    -45.5834275 -0.141513E-07  0.179E-03    9.26      11.6  T
speedup  0.89
cpu  time for SCC    0.00 s
wall time for SCC    0.00 s
speedup  1.01
cpu  time for grad    0.01 s
wall time for grad    0.01 s
 E :    -45.34611661  G :  0.023903    pred/act E change: -0.168D-02 -0.130D-02
Maxdispl :   0.1524   ||displ|| :   0.3149   Lambda : -0.141D-02
Largest |displ|/coords:  0.1524 (   8)  0.1294 (   2)  0.1109 (   1)
................................................................................
.............................. CYCLE   19 ......................................
................................................................................
   1    -45.5805770 -0.455806E+02  0.238E-01    9.20       0.0  T
   2    -45.5806359 -0.589158E-04  0.171E-01    9.22       1.0  T
   3    -45.5806624 -0.265411E-04  0.395E-02    9.24       1.0  T
   4    -45.5806684 -0.600801E-05  0.882E-03    9.23       2.4  T
   5    -45.5806685 -0.841378E-07  0.375E-03    9.23       5.6  T
   6    -45.5806685 -0.160124E-07  0.154E-03    9.23      13.5  T
speedup  1.11
cpu  time for SCC    0.00 s
wall time for SCC    0.00 s
speedup  0.99
cpu  time for grad    0.01 s
wall time for grad    0.01 s
 E :    -45.34590740  G :  0.034685    pred/act E change: -0.146D-02  0.209D-03
Maxdispl :   0.1456   ||displ|| :   0.2290   Lambda : -0.226D-02
Largest |displ|/coords:  0.1456 (   7)  0.1059 (   6)  0.0628 (   8)
................................................................................
.............................. CYCLE   20 ......................................
................................................................................
   1    -45.5903448 -0.455903E+02  0.191E-01    9.30       0.0  T
   2    -45.5903680 -0.232804E-04  0.139E-01    9.30       1.0  T
   3    -45.5903784 -0.103978E-04  0.261E-02    9.28       1.0  T
   4    -45.5903812 -0.278969E-05  0.653E-03    9.30       3.2  T
   5    -45.5903813 -0.393894E-07  0.247E-03    9.30       8.4  T
   6    -45.5903813 -0.285829E-08  0.929E-04    9.30      22.4  T
speedup  0.89
cpu  time for SCC    0.00 s
wall time for SCC    0.00 s
speedup  1.01
cpu  time for grad    0.01 s
wall time for grad    0.01 s
 E :    -45.34639815  G :  0.034246    pred/act E change: -0.775D-03 -0.491D-03
Maxdispl :   0.1649   ||displ|| :   0.3082   Lambda : -0.290D-02
Largest |displ|/coords:  0.1649 (   9)  0.1056 (   4)  0.1049 (   8)
................................................................................
.............................. CYCLE   21 ......................................
................................................................................
   1    -45.5895094 -0.455895E+02  0.262E-01    9.34       0.0  T
   2    -45.5896243 -0.114863E-03  0.188E-01    9.34       1.0  T
   3    -45.5896756 -0.513066E-04  0.542E-02    9.34       1.0  T
   4    -45.5896848 -0.917901E-05  0.117E-02    9.34       1.8  T
   5    -45.5896850 -0.222738E-06  0.508E-03    9.34       4.1  T
   6    -45.5896850 -0.174555E-07  0.235E-03    9.34       8.9  T
speedup  0.89
cpu  time for SCC    0.00 s
wall time for SCC    0.00 s
speedup  1.01
cpu  time for grad    0.01 s
wall time for grad    0.01 s
 E :    -45.34677721  G :  0.028022    pred/act E change: -0.119D-02 -0.379D-03
Maxdispl :   0.1117   ||displ|| :   0.2298   Lambda : -0.185D-02
Largest |displ|/coords:  0.1117 (   8)  0.0909 (   1)  0.0873 (  11)
................................................................................
.............................. CYCLE   22 ......................................
................................................................................
   1    -45.5865727 -0.455866E+02  0.170E-01    9.31       0.0  T
   2    -45.5866014 -0.287226E-04  0.123E-01    9.31       1.0  T
   3    -45.5866137 -0.122112E-04  0.287E-02    9.31       1.0  T
   4    -45.5866168 -0.317108E-05  0.556E-03    9.31       3.8  T
   5    -45.5866169 -0.303161E-07  0.243E-03    9.31       8.6  T
speedup  1.08
cpu  time for SCC    0.00 s
wall time for SCC    0.00 s
speedup  1.08
cpu  time for grad    0.01 s
wall time for grad    0.01 s
 E :    -45.34787663  G :  0.016578    pred/act E change: -0.159D-02 -0.110D-02
Maxdispl :   0.1258   ||displ|| :   0.2431   Lambda : -0.102D-02
Largest |displ|/coords:  0.1258 (  11)  0.1108 (   1)  0.0956 (   3)
................................................................................
.............................. CYCLE   23 ......................................
................................................................................
   1    -45.5886527 -0.455887E+02  0.167E-01    9.31       0.0  T
   2    -45.5886742 -0.215398E-04  0.123E-01    9.32       1.0  T
   3    -45.5886867 -0.124542E-04  0.260E-02    9.33       1.0  T
   4    -45.5886890 -0.236158E-05  0.706E-03    9.33       3.0  T
   5    -45.5886891 -0.761460E-07  0.276E-03    9.33       7.6  T
   6    -45.5886891 -0.580856E-08  0.138E-03    9.33      15.1  T
speedup  1.14
cpu  time for SCC    0.00 s
wall time for SCC    0.00 s
speedup  1.01
cpu  time for grad    0.01 s
wall time for grad    0.01 s
 E :    -45.34818024  G :  0.029840    pred/act E change: -0.973D-03 -0.304D-03
Maxdispl :   0.1876   ||displ|| :   0.3554   Lambda : -0.143D-02
Largest |displ|/coords:  0.1876 (   1)  0.1650 (  11)  0.0858 (   4)
................................................................................
.............................. CYCLE   24 ......................................
................................................................................
   1    -45.5890111 -0.455890E+02  0.245E-01    9.30       0.0  T
   2    -45.5890390 -0.279270E-04  0.183E-01    9.31       1.0  T
   3    -45.5890536 -0.145285E-04  0.308E-02    9.31       1.0  T
   4    -45.5890579 -0.436283E-05  0.869E-03    9.31       2.4  T
   5    -45.5890580 -0.691574E-07  0.340E-03    9.31       6.1  T
   6    -45.5890580 -0.100148E-07  0.158E-03    9.31      13.2  T
speedup  0.89
cpu  time for SCC    0.00 s
wall time for SCC    0.00 s
speedup  0.92
cpu  time for grad    0.01 s
wall time for grad    0.01 s
 E :    -45.34920985  G :  0.016235    pred/act E change: -0.539D-03 -0.103D-02
Maxdispl :   0.2459   ||displ|| :   0.5276   Lambda : -0.167D-02
Largest |displ|/coords:  0.2459 (  11)  0.2224 (   1)  0.1766 (   3)
................................................................................
.............................. CYCLE   25 ......................................
................................................................................
   1    -45.5847667 -0.455848E+02  0.355E-01    9.28       0.0  T
   2    -45.5848636 -0.969000E-04  0.263E-01    9.29       1.0  T
   3    -45.5849078 -0.442429E-04  0.559E-02    9.29       1.0  T
   4    -45.5849220 -0.141355E-04  0.135E-02    9.29       1.5  T
   5    -45.5849222 -0.189794E-06  0.570E-03    9.29       3.7  T
   6    -45.5849222 -0.235870E-07  0.252E-03    9.29       8.3  T
   7    -45.5849222 -0.898596E-08  0.691E-04    9.29      30.2  T
speedup  0.98
cpu  time for SCC    0.01 s
wall time for SCC    0.01 s
speedup  1.03
cpu  time for grad    0.01 s
wall time for grad    0.01 s
 E :    -45.35013651  G :  0.031619    pred/act E change: -0.807D-03 -0.927D-03
Maxdispl :   0.1739   ||displ|| :   0.3996   Lambda : -0.203D-02
Largest |displ|/coords:  0.1739 (  11)  0.1657 (   3)  0.1486 (   1)

generating ANC from model Hessian ...
 Shifting diagonal of input Hessian by   4.947032073792137E-003
 Lowest  eigenvalues of input Hessian
   -0.000000    0.000000    0.000000    0.000000    0.000000    0.000000
    0.005000    0.005095    0.005535    0.005999    0.006417    0.007365
    0.007698    0.008908    0.010481    0.011247    0.014554    0.015822
 Highest eigenvalues
    1.385626    1.391896    1.419610    2.526593    3.480644    3.635827
 
cpu  time for ANC gen    0.01 s
wall time for ANC gen    0.01 s
................................................................................
.............................. CYCLE   26 ......................................
................................................................................
   1    -45.5958128 -0.455958E+02  0.279E-01    9.31       0.0  T
   2    -45.5959980 -0.185204E-03  0.201E-01    9.32       1.0  T
   3    -45.5960859 -0.879500E-04  0.688E-02    9.33       1.0  T
   4    -45.5960977 -0.118289E-04  0.136E-02    9.33       1.5  T
   5    -45.5960980 -0.273660E-06  0.607E-03    9.33       3.4  T
   6    -45.5960981 -0.340594E-07  0.273E-03    9.33       7.6  T
   7    -45.5960981 -0.104104E-07  0.709E-04    9.33      29.4  T
   8    -45.5960981 -0.130143E-08  0.208E-04    9.33     100.1  T
speedup  1.00
cpu  time for SCC    0.01 s
wall time for SCC    0.01 s
speedup  0.99
cpu  time for grad    0.01 s
wall time for grad    0.01 s
 E :    -45.35127901  G :  0.033516    pred/act E change:  0.000D+00 -0.114D-02
Maxdispl :   0.1090   ||displ|| :   0.2358   Lambda : -0.207D-02
Largest |displ|/coords:  0.1090 (   2)  0.0951 (   1)  0.0810 (  11)
................................................................................
.............................. CYCLE   27 ......................................
................................................................................
   1    -45.5948196 -0.455948E+02  0.182E-01    9.35       0.0  T
   2    -45.5948447 -0.250316E-04  0.135E-01    9.35       1.0  T
   3    -45.5948580 -0.133202E-04  0.287E-02    9.34       1.0  T
   4    -45.5948613 -0.335511E-05  0.588E-03    9.34       3.5  T
   5    -45.5948614 -0.470396E-07  0.290E-03    9.34       7.2  T
speedup  1.05
cpu  time for SCC    0.00 s
wall time for SCC    0.00 s
speedup  0.97
cpu  time for grad    0.01 s
wall time for grad    0.01 s
 E :    -45.35280832  G :  0.019978    pred/act E change:  0.000D+00 -0.153D-02
Maxdispl :   0.2078   ||displ|| :   0.4216   Lambda : -0.200D-02
Largest |displ|/coords:  0.2078 (   2)  0.1860 (   1)  0.1718 (   6)
................................................................................
.............................. CYCLE   28 ......................................
................................................................................
   1    -45.5943536 -0.455944E+02  0.254E-01    9.35       0.0  T
   2    -45.5944060 -0.523842E-04  0.187E-01    9.35       1.0  T
   3    -45.5944320 -0.260566E-04  0.418E-02    9.35       1.0  T
   4    -45.5944388 -0.671357E-05  0.855E-03    9.35       2.4  T
   5    -45.5944388 -0.885675E-07  0.397E-03    9.35       5.3  T
   6    -45.5944389 -0.143698E-07  0.167E-03    9.35      12.5  T
   7    -45.5944389 -0.536381E-08  0.437E-04    9.35      47.7  T
speedup  0.94
cpu  time for SCC    0.00 s
wall time for SCC    0.01 s
speedup  1.02
cpu  time for grad    0.01 s
wall time for grad    0.01 s
 E :    -45.35421936  G :  0.022601    pred/act E change: -0.109D-02 -0.141D-02
Maxdispl :   0.2414   ||displ|| :   0.4605   Lambda : -0.156D-02
Largest |displ|/coords:  0.2414 (   1)  0.2363 (   2)  0.1602 (   6)
................................................................................
.............................. CYCLE   29 ......................................
................................................................................
   1    -45.5955456 -0.455955E+02  0.265E-01    9.31       0.0  T
   2    -45.5955777 -0.321674E-04  0.198E-01    9.31       1.0  T
   3    -45.5956004 -0.227141E-04  0.352E-02    9.31       1.0  T
   4    -45.5956050 -0.451950E-05  0.846E-03    9.31       2.5  T
   5    -45.5956050 -0.715616E-07  0.396E-03    9.31       5.3  T
   6    -45.5956051 -0.153095E-07  0.175E-03    9.31      11.9  T
speedup  1.11
cpu  time for SCC    0.01 s
wall time for SCC    0.00 s
speedup  1.00
cpu  time for grad    0.01 s
wall time for grad    0.01 s
 E :    -45.35550423  G :  0.026799    pred/act E change: -0.118D-02 -0.128D-02
Maxdispl :   0.3143   ||displ|| :   0.5664   Lambda : -0.218D-02
Largest |displ|/coords:  0.3143 (   1)  0.2826 (   2)  0.1838 (  11)
................................................................................
.............................. CYCLE   30 ......................................
................................................................................
   1    -45.6017807 -0.456018E+02  0.328E-01    9.22       0.0  T
   2    -45.6018193 -0.386550E-04  0.246E-01    9.22       1.0  T
   3    -45.6018536 -0.343138E-04  0.415E-02    9.22       1.0  T
   4    -45.6018580 -0.439931E-05  0.103E-02    9.22       2.0  T
   5    -45.6018582 -0.117029E-06  0.468E-03    9.22       4.5  T
   6    -45.6018582 -0.253361E-07  0.210E-03    9.22       9.9  T
speedup  0.89
cpu  time for SCC    0.00 s
wall time for SCC    0.00 s
speedup  1.00
cpu  time for grad    0.01 s
wall time for grad    0.01 s
 E :    -45.35712760  G :  0.024880    pred/act E change: -0.947D-03 -0.162D-02
Maxdispl :   0.2710   ||displ|| :   0.5093   Lambda : -0.181D-02
Largest |displ|/coords:  0.2710 (   2)  0.2650 (   1)  0.1464 (   3)
................................................................................
.............................. CYCLE   31 ......................................
................................................................................
   1    -45.6077839 -0.456078E+02  0.258E-01    9.22       0.0  T
   2    -45.6078075 -0.236425E-04  0.193E-01    9.22       1.0  T
   3    -45.6078272 -0.197045E-04  0.318E-02    9.22       1.0  T
   4    -45.6078300 -0.283622E-05  0.884E-03    9.22       2.4  T
   5    -45.6078301 -0.942037E-07  0.386E-03    9.22       5.4  T
   6    -45.6078301 -0.175714E-07  0.190E-03    9.22      11.0  T
speedup  1.14
cpu  time for SCC    0.01 s
wall time for SCC    0.00 s
speedup  1.00
cpu  time for grad    0.01 s
wall time for grad    0.01 s
 E :    -45.35847980  G :  0.023324    pred/act E change: -0.144D-02 -0.135D-02
Maxdispl :   0.2548   ||displ|| :   0.4930   Lambda : -0.183D-02
Largest |displ|/coords:  0.2548 (   2)  0.2024 (   1)  0.1720 (   3)
................................................................................
.............................. CYCLE   32 ......................................
................................................................................
   1    -45.6129266 -0.456129E+02  0.257E-01    9.32       0.0  T
   2    -45.6129601 -0.334810E-04  0.191E-01    9.31       1.0  T
   3    -45.6129826 -0.224702E-04  0.373E-02    9.26       1.0  T
   4    -45.6129867 -0.414184E-05  0.105E-02    9.27       2.0  T
   5    -45.6129869 -0.166000E-06  0.398E-03    9.27       5.2  T
   6    -45.6129869 -0.117748E-07  0.207E-03    9.27      10.1  T
speedup  1.14
cpu  time for SCC    0.01 s
wall time for SCC    0.00 s
speedup  1.03
cpu  time for grad    0.01 s
wall time for grad    0.01 s
 E :    -45.35957988  G :  0.017765    pred/act E change: -0.114D-02 -0.110D-02
Maxdispl :   0.3637   ||displ|| :   0.5080   Lambda : -0.144D-02
Largest |displ|/coords:  0.3637 (   2)  0.1676 (   1)  0.1352 (   3)
................................................................................
.............................. CYCLE   33 ......................................
................................................................................
   1    -45.6114796 -0.456115E+02  0.271E-01    9.27       0.0  T
   2    -45.6115029 -0.232307E-04  0.204E-01    9.26       1.0  T
   3    -45.6115195 -0.166249E-04  0.315E-02    9.23       1.0  T
   4    -45.6115227 -0.320476E-05  0.975E-03    9.23       2.1  T
   5    -45.6115228 -0.119747E-06  0.348E-03    9.23       6.0  T
   6    -45.6115228 -0.130323E-07  0.185E-03    9.23      11.3  T
   7    -45.6115228 -0.557650E-08  0.483E-04    9.23      43.2  T
speedup  1.15
cpu  time for SCC    0.01 s
wall time for SCC    0.01 s
speedup  1.02
cpu  time for grad    0.01 s
wall time for grad    0.01 s
 E :    -45.36022707  G :  0.022695    pred/act E change: -0.114D-02 -0.647D-03
Maxdispl :   0.1679   ||displ|| :   0.2701   Lambda : -0.112D-02
Largest |displ|/coords:  0.1679 (   2)  0.1209 (   7)  0.0907 (   1)
................................................................................
.............................. CYCLE   34 ......................................
................................................................................
   1    -45.6141270 -0.456141E+02  0.140E-01    9.16       0.0  T
   2    -45.6141309 -0.395842E-05  0.105E-01    9.15       1.0  T
   3    -45.6141346 -0.369052E-05  0.130E-02    9.13       1.6  T
   4    -45.6141350 -0.358495E-06  0.385E-03    9.13       5.4  T
   5    -45.6141350 -0.188409E-07  0.145E-03    9.13      14.4  T
speedup  1.08
cpu  time for SCC    0.00 s
wall time for SCC    0.00 s
speedup  0.95
cpu  time for grad    0.01 s
wall time for grad    0.01 s
 E :    -45.36085520  G :  0.019590    pred/act E change: -0.909D-03 -0.628D-03
Maxdispl :   0.1793   ||displ|| :   0.3160   Lambda : -0.131D-02
Largest |displ|/coords:  0.1793 (   2)  0.1679 (   3)  0.0860 (  13)
................................................................................
.............................. CYCLE   35 ......................................
................................................................................
   1    -45.6103546 -0.456104E+02  0.190E-01    9.19       0.0  T
   2    -45.6103723 -0.177778E-04  0.142E-01    9.20       1.0  T
   3    -45.6103843 -0.119674E-04  0.253E-02    9.22       1.0  T
   4    -45.6103867 -0.242694E-05  0.871E-03    9.22       2.4  T
   5    -45.6103868 -0.932150E-07  0.276E-03    9.21       7.6  T
   6    -45.6103868 -0.609307E-08  0.151E-03    9.21      13.9  T
speedup  0.89
cpu  time for SCC    0.00 s
wall time for SCC    0.00 s
speedup  0.99
cpu  time for grad    0.01 s
wall time for grad    0.01 s
 E :    -45.36121113  G :  0.028215    pred/act E change: -0.604D-03 -0.356D-03
Maxdispl :   0.1103   ||displ|| :   0.2676   Lambda : -0.135D-02
Largest |displ|/coords:  0.1103 (   5)  0.1082 (  11)  0.1080 (   4)
................................................................................
.............................. CYCLE   36 ......................................
................................................................................
   1    -45.6164453 -0.456164E+02  0.169E-01    9.32       0.0  T
   2    -45.6164613 -0.159893E-04  0.127E-01    9.32       1.0  T
   3    -45.6164724 -0.110911E-04  0.237E-02    9.32       1.0  T
   4    -45.6164744 -0.208222E-05  0.706E-03    9.32       3.0  T
   5    -45.6164745 -0.695297E-07  0.295E-03    9.32       7.1  T
   6    -45.6164745 -0.557952E-08  0.143E-03    9.32      14.6  T
speedup  0.89
cpu  time for SCC    0.00 s
wall time for SCC    0.00 s
speedup  0.99
cpu  time for grad    0.01 s
wall time for grad    0.01 s
 E :    -45.36178681  G :  0.018895    pred/act E change: -0.720D-03 -0.576D-03
Maxdispl :   0.2749   ||displ|| :   0.3880   Lambda : -0.135D-02
Largest |displ|/coords:  0.2749 (   2)  0.1763 (   3)  0.1198 (   6)
................................................................................
.............................. CYCLE   37 ......................................
................................................................................
   1    -45.6137231 -0.456137E+02  0.234E-01    9.07       0.0  T
   2    -45.6137376 -0.144926E-04  0.175E-01    9.07       1.0  T
   3    -45.6137494 -0.118430E-04  0.279E-02    9.07       1.0  T
   4    -45.6137511 -0.166153E-05  0.948E-03    9.07       2.2  T
   5    -45.6137512 -0.113281E-06  0.248E-03    9.07       8.4  T
   6    -45.6137512 -0.619644E-08  0.148E-03    9.07      14.1  T
speedup  1.14
cpu  time for SCC    0.00 s
wall time for SCC    0.00 s
speedup  0.99
cpu  time for grad    0.01 s
wall time for grad    0.01 s
 E :    -45.36233469  G :  0.019973    pred/act E change: -0.723D-03 -0.548D-03
Maxdispl :   0.2002   ||displ|| :   0.3509   Lambda : -0.113D-02
Largest |displ|/coords:  0.2002 (   2)  0.1434 (   4)  0.1140 (   3)
................................................................................
.............................. CYCLE   38 ......................................
................................................................................
   1    -45.6108921 -0.456109E+02  0.203E-01    9.19       0.0  T
   2    -45.6109016 -0.940452E-05  0.151E-01    9.19       1.0  T
   3    -45.6109099 -0.831059E-05  0.213E-02    9.19       1.0  T
   4    -45.6109108 -0.932455E-06  0.731E-03    9.19       2.9  T
   5    -45.6109109 -0.607055E-07  0.248E-03    9.19       8.4  T
   6    -45.6109109 -0.616537E-08  0.127E-03    9.19      16.5  T
speedup  1.11
cpu  time for SCC    0.00 s
wall time for SCC    0.00 s
speedup  0.99
cpu  time for grad    0.01 s
wall time for grad    0.01 s
 E :    -45.36285787  G :  0.027282    pred/act E change: -0.776D-03 -0.523D-03
Maxdispl :   0.2247   ||displ|| :   0.4852   Lambda : -0.211D-02
Largest |displ|/coords:  0.2247 (   1)  0.2027 (   8)  0.1619 (   6)
................................................................................
.............................. CYCLE   39 ......................................
................................................................................
   1    -45.6269594 -0.456270E+02  0.305E-01    9.62       0.0  T
   2    -45.6269991 -0.397377E-04  0.224E-01    9.64       1.0  T
   3    -45.6270190 -0.199133E-04  0.467E-02    9.68       1.0  T
   4    -45.6270243 -0.523595E-05  0.130E-02    9.68       1.6  T
   5    -45.6270245 -0.227971E-06  0.374E-03    9.67       5.6  T
   6    -45.6270245 -0.188268E-07  0.200E-03    9.67      10.4  T
speedup  0.89
cpu  time for SCC    0.00 s
wall time for SCC    0.00 s
speedup  0.99
cpu  time for grad    0.01 s
wall time for grad    0.01 s
 E :    -45.36204156  G :  0.047716    pred/act E change: -0.632D-03  0.816D-03
Maxdispl :   0.1654   ||displ|| :   0.3000   Lambda : -0.380D-02
Largest |displ|/coords:  0.1654 (   4)  0.1178 (   2)  0.0941 (   3)
................................................................................
.............................. CYCLE   40 ......................................
................................................................................
   1    -45.6145202 -0.456145E+02  0.245E-01    9.33       0.0  T
   2    -45.6145429 -0.227382E-04  0.182E-01    9.32       1.0  T
   3    -45.6145570 -0.141447E-04  0.320E-02    9.31       1.0  T
   4    -45.6145600 -0.293443E-05  0.982E-03    9.31       2.1  T
   5    -45.6145601 -0.140500E-06  0.319E-03    9.32       6.5  T
   6    -45.6145601 -0.128289E-07  0.167E-03    9.32      12.5  T
speedup  1.11
cpu  time for SCC    0.01 s
wall time for SCC    0.00 s
speedup  1.08
cpu  time for grad    0.01 s
wall time for grad    0.01 s
 E :    -45.36383802  G :  0.017834    pred/act E change: -0.130D-02 -0.180D-02
Maxdispl :   0.2232   ||displ|| :   0.3642   Lambda : -0.141D-02
Largest |displ|/coords:  0.2232 (   2)  0.1633 (   3)  0.0995 (   4)
................................................................................
.............................. CYCLE   41 ......................................
................................................................................
   1    -45.6120014 -0.456120E+02  0.192E-01    9.25       0.0  T
   2    -45.6120094 -0.804752E-05  0.144E-01    9.24       1.0  T
   3    -45.6120179 -0.848173E-05  0.179E-02    9.21       1.2  T
   4    -45.6120186 -0.638041E-06  0.639E-03    9.22       3.3  T
   5    -45.6120186 -0.528276E-07  0.232E-03    9.22       9.0  T
   6    -45.6120186 -0.625757E-08  0.116E-03    9.22      18.0  T
speedup  1.11
cpu  time for SCC    0.00 s
wall time for SCC    0.00 s
speedup  0.98
cpu  time for grad    0.01 s
wall time for grad    0.01 s
 E :    -45.36430366  G :  0.021981    pred/act E change: -0.207D-02 -0.466D-03
Maxdispl :   0.2199   ||displ|| :   0.2918   Lambda : -0.849D-03
Largest |displ|/coords:  0.2199 (   2)  0.1061 (   3)  0.0867 (   8)
................................................................................
.............................. CYCLE   42 ......................................
................................................................................
   1    -45.6136626 -0.456137E+02  0.139E-01    9.25       0.0  T
   2    -45.6136663 -0.368394E-05  0.104E-01    9.25       1.0  T
   3    -45.6136705 -0.412912E-05  0.126E-02    9.24       1.7  T
   4    -45.6136707 -0.219066E-06  0.338E-03    9.24       6.2  T
   5    -45.6136707 -0.198767E-07  0.145E-03    9.24      14.4  T
speedup  1.05
cpu  time for SCC    0.00 s
wall time for SCC    0.00 s
speedup  1.04
cpu  time for grad    0.01 s
wall time for grad    0.01 s
 E :    -45.36489008  G :  0.014136    pred/act E change: -0.797D-03 -0.586D-03
Maxdispl :   0.1154   ||displ|| :   0.3053   Lambda : -0.971D-03
Largest |displ|/coords:  0.1154 (   8)  0.1051 (   1)  0.1042 (   7)
................................................................................
.............................. CYCLE   43 ......................................
................................................................................
   1    -45.6210779 -0.456211E+02  0.158E-01    9.36       0.0  T
   2    -45.6210868 -0.885490E-05  0.118E-01    9.36       1.0  T
   3    -45.6210936 -0.679225E-05  0.188E-02    9.35       1.1  T
   4    -45.6210946 -0.104096E-05  0.619E-03    9.35       3.4  T
   5    -45.6210947 -0.504672E-07  0.199E-03    9.36      10.5  T
   6    -45.6210947 -0.531193E-08  0.113E-03    9.36      18.5  T
speedup  1.11
cpu  time for SCC    0.01 s
wall time for SCC    0.00 s
speedup  0.98
cpu  time for grad    0.01 s
wall time for grad    0.01 s
 E :    -45.36527277  G :  0.013901    pred/act E change: -0.461D-03 -0.383D-03
Maxdispl :   0.3630   ||displ|| :   0.5107   Lambda : -0.836D-03
Largest |displ|/coords:  0.3630 (   2)  0.2071 (   3)  0.1198 (   4)
................................................................................
.............................. CYCLE   44 ......................................
................................................................................
   1    -45.6162128 -0.456162E+02  0.242E-01    9.29       0.0  T
   2    -45.6162237 -0.108075E-04  0.181E-01    9.29       1.0  T
   3    -45.6162362 -0.125523E-04  0.206E-02    9.29       1.0  T
   4    -45.6162369 -0.721494E-06  0.647E-03    9.29       3.2  T
   5    -45.6162370 -0.533555E-07  0.300E-03    9.29       7.0  T
   6    -45.6162370 -0.155848E-07  0.134E-03    9.29      15.5  T
speedup  0.89
cpu  time for SCC    0.00 s
wall time for SCC    0.00 s
speedup  0.89
cpu  time for grad    0.01 s
wall time for grad    0.01 s
 E :    -45.36570415  G :  0.012741    pred/act E change: -0.531D-03 -0.431D-03
Maxdispl :   0.0931   ||displ|| :   0.1750   Lambda : -0.452D-03
Largest |displ|/coords:  0.0931 (   1)  0.0718 (   5)  0.0557 (  16)
................................................................................
.............................. CYCLE   45 ......................................
................................................................................
   1    -45.6198522 -0.456199E+02  0.102E-01    9.35       0.0  T
   2    -45.6198584 -0.619767E-05  0.731E-02    9.34       1.0  T
   3    -45.6198615 -0.302792E-05  0.179E-02    9.34       1.2  T
   4    -45.6198620 -0.570023E-06  0.590E-03    9.34       3.5  T
   5    -45.6198621 -0.391993E-07  0.141E-03    9.34      14.8  T
   6    -45.6198621 -0.287932E-08  0.810E-04    9.34      25.7  T
speedup  0.89
cpu  time for SCC    0.00 s
wall time for SCC    0.00 s
speedup  0.98
cpu  time for grad    0.01 s
wall time for grad    0.01 s
 E :    -45.36585935  G :  0.010877    pred/act E change: -0.527D-03 -0.155D-03
Maxdispl :   0.0614   ||displ|| :   0.1464   Lambda : -0.334D-03
Largest |displ|/coords:  0.0614 (  16)  0.0605 (   7)  0.0513 (   1)
................................................................................
.............................. CYCLE   46 ......................................
................................................................................
   1    -45.6178945 -0.456179E+02  0.972E-02    9.31       0.0  T
   2    -45.6179020 -0.753651E-05  0.724E-02    9.31       1.0  T
   3    -45.6179045 -0.248034E-05  0.172E-02    9.31       1.2  T
   4    -45.6179058 -0.126493E-05  0.380E-03    9.31       5.5  T
   5    -45.6179058 -0.208838E-07  0.148E-03    9.31      14.1  T
   6    -45.6179058 -0.263384E-08  0.688E-04    9.31      30.3  T
speedup  0.89
cpu  time for SCC    0.00 s
wall time for SCC    0.00 s
speedup  0.98
cpu  time for grad    0.01 s
wall time for grad    0.01 s
 E :    -45.36604094  G :  0.010277    pred/act E change: -0.233D-03 -0.182D-03
Maxdispl :   0.0638   ||displ|| :   0.1473   Lambda : -0.309D-03
Largest |displ|/coords:  0.0638 (   7)  0.0504 (   9)  0.0491 (  16)
................................................................................
.............................. CYCLE   47 ......................................
................................................................................
   1    -45.6207201 -0.456207E+02  0.987E-02    9.32       0.0  T
   2    -45.6207227 -0.252782E-05  0.733E-02    9.32       1.0  T
   3    -45.6207247 -0.203159E-05  0.109E-02    9.32       1.9  T
   4    -45.6207250 -0.268938E-06  0.412E-03    9.32       5.1  T
   5    -45.6207250 -0.175004E-07  0.110E-03    9.32      19.0  T
   6    -45.6207250 -0.142870E-08  0.650E-04    9.32      32.1  T
speedup  1.11
cpu  time for SCC    0.00 s
wall time for SCC    0.00 s
speedup  0.98
cpu  time for grad    0.01 s
wall time for grad    0.01 s
 E :    -45.36616649  G :  0.010393    pred/act E change: -0.171D-03 -0.126D-03
Maxdispl :   0.0855   ||displ|| :   0.2024   Lambda : -0.257D-03
Largest |displ|/coords:  0.0855 (   2)  0.0850 (  16)  0.0716 (   5)
................................................................................
.............................. CYCLE   48 ......................................
................................................................................
   1    -45.6185988 -0.456186E+02  0.115E-01    9.32       0.0  T
   2    -45.6186020 -0.318208E-05  0.863E-02    9.32       1.0  T
   3    -45.6186043 -0.233438E-05  0.118E-02    9.32       1.8  T
   4    -45.6186048 -0.486986E-06  0.421E-03    9.32       4.9  T
   5    -45.6186048 -0.177881E-07  0.125E-03    9.32      16.7  T
   6    -45.6186048 -0.231682E-08  0.721E-04    9.32      28.9  T
speedup  1.11
cpu  time for SCC    0.00 s
wall time for SCC    0.00 s
speedup  0.99
cpu  time for grad    0.01 s
wall time for grad    0.01 s
 E :    -45.36630947  G :  0.007809    pred/act E change: -0.158D-03 -0.143D-03
Maxdispl :   0.0949   ||displ|| :   0.1850   Lambda : -0.255D-03
Largest |displ|/coords:  0.0949 (   5)  0.0729 (   1)  0.0672 (  16)
................................................................................
.............................. CYCLE   49 ......................................
................................................................................
   1    -45.6180441 -0.456180E+02  0.121E-01    9.33       0.0  T
   2    -45.6180471 -0.302287E-05  0.902E-02    9.33       1.0  T
   3    -45.6180495 -0.238061E-05  0.112E-02    9.32       1.9  T
   4    -45.6180499 -0.346076E-06  0.530E-03    9.33       3.9  T
   5    -45.6180499 -0.248111E-07  0.118E-03    9.32      17.7  T
   6    -45.6180499 -0.155685E-08  0.761E-04    9.32      27.4  T
speedup  0.91
cpu  time for SCC    0.00 s
wall time for SCC    0.00 s
speedup  0.99
cpu  time for grad    0.01 s
wall time for grad    0.01 s
 E :    -45.36643723  G :  0.009121    pred/act E change: -0.134D-03 -0.128D-03
Maxdispl :   0.0676   ||displ|| :   0.1357   Lambda : -0.180D-03
Largest |displ|/coords:  0.0676 (   2)  0.0500 (   1)  0.0460 (   8)
................................................................................
.............................. CYCLE   50 ......................................
................................................................................
   1    -45.6194046 -0.456194E+02  0.687E-02    9.32       0.0  T
   2    -45.6194060 -0.142088E-05  0.513E-02    9.32       1.0  T
   3    -45.6194069 -0.858450E-06  0.732E-03    9.32       2.8  T
   4    -45.6194071 -0.205745E-06  0.282E-03    9.32       7.4  T
   5    -45.6194071 -0.796813E-08  0.728E-04    9.32      28.6  T
speedup  0.81
cpu  time for SCC    0.00 s
wall time for SCC    0.00 s
speedup  0.94
cpu  time for grad    0.01 s
wall time for grad    0.01 s
 E :    -45.36652835  G :  0.006755    pred/act E change: -0.132D-03 -0.911D-04
Maxdispl :   0.0738   ||displ|| :   0.1552   Lambda : -0.166D-03
Largest |displ|/coords:  0.0738 (   5)  0.0562 (  16)  0.0507 (   1)
................................................................................
.............................. CYCLE   51 ......................................
................................................................................
   1    -45.6189753 -0.456190E+02  0.988E-02    9.28       0.0  T
   2    -45.6189776 -0.227764E-05  0.740E-02    9.28       1.0  T
   3    -45.6189794 -0.179235E-05  0.105E-02    9.28       2.0  T
   4    -45.6189797 -0.313233E-06  0.428E-03    9.28       4.9  T
   5    -45.6189797 -0.158815E-07  0.103E-03    9.28      20.3  T
   6    -45.6189797 -0.138937E-08  0.631E-04    9.28      33.1  T
speedup  0.89
cpu  time for SCC    0.00 s
wall time for SCC    0.00 s
speedup  0.98
cpu  time for grad    0.01 s
wall time for grad    0.01 s
 E :    -45.36661923  G :  0.009238    pred/act E change: -0.915D-04 -0.909D-04
Maxdispl :   0.0615   ||displ|| :   0.1138   Lambda : -0.157D-03
Largest |displ|/coords:  0.0615 (   5)  0.0486 (   2)  0.0455 (   3)
................................................................................
.............................. CYCLE   52 ......................................
................................................................................
   1    -45.6191537 -0.456192E+02  0.662E-02    9.31       0.0  T
   2    -45.6191552 -0.143372E-05  0.489E-02    9.31       1.0  T
   3    -45.6191563 -0.109321E-05  0.901E-03    9.31       2.3  T
   4    -45.6191564 -0.147535E-06  0.246E-03    9.31       8.5  T
   5    -45.6191564 -0.870846E-08  0.727E-04    9.31      28.7  T
speedup  0.81
cpu  time for SCC    0.00 s
wall time for SCC    0.00 s
speedup  0.96
cpu  time for grad    0.01 s
wall time for grad    0.01 s
 E :    -45.36671524  G :  0.006667    pred/act E change: -0.852D-04 -0.960D-04
Maxdispl :   0.1012   ||displ|| :   0.1811   Lambda : -0.178D-03
Largest |displ|/coords:  0.1012 (   2)  0.0814 (   5)  0.0605 (   3)

generating ANC from model Hessian ...
 Shifting diagonal of input Hessian by   4.879763685391338E-003
 Lowest  eigenvalues of input Hessian
   -0.000000   -0.000000   -0.000000    0.000000    0.000000    0.000000
    0.005000    0.005418    0.005574    0.006424    0.007329    0.007438
    0.008555    0.008734    0.009542    0.009686    0.010770    0.012431
 Highest eigenvalues
    1.396036    1.400408    1.415180    2.592096    3.483402    3.672154
 
cpu  time for ANC gen    0.02 s
wall time for ANC gen    0.02 s
................................................................................
.............................. CYCLE   53 ......................................
................................................................................
   1    -45.6193118 -0.456193E+02  0.101E-01    9.33       0.0  T
   2    -45.6193144 -0.267071E-05  0.753E-02    9.32       1.0  T
   3    -45.6193162 -0.177681E-05  0.111E-02    9.32       1.9  T
   4    -45.6193166 -0.382849E-06  0.376E-03    9.32       5.5  T
   5    -45.6193166 -0.122652E-07  0.113E-03    9.32      18.4  T
   6    -45.6193166 -0.144794E-08  0.556E-04    9.32      37.5  T
   7    -45.6193166 -0.566097E-09  0.174E-04    9.32     119.7  T
speedup  1.15
cpu  time for SCC    0.01 s
wall time for SCC    0.01 s
speedup  1.06
cpu  time for grad    0.01 s
wall time for grad    0.01 s
 E :    -45.36681979  G :  0.006581    pred/act E change:  0.000D+00 -0.105D-03
Maxdispl :   0.0928   ||displ|| :   0.1849   Lambda : -0.389D-03
Largest |displ|/coords:  0.0928 (   2)  0.0927 (   1)  0.0718 (  10)
................................................................................
.............................. CYCLE   54 ......................................
................................................................................
   1    -45.6190601 -0.456191E+02  0.140E-01    9.31       0.0  T
   2    -45.6190625 -0.238135E-05  0.106E-01    9.31       1.0  T
   3    -45.6190656 -0.311809E-05  0.786E-03    9.32       2.7  T
   4    -45.6190657 -0.114335E-06  0.370E-03    9.32       5.6  T
   5    -45.6190658 -0.154598E-07  0.115E-03    9.32      18.2  T
   6    -45.6190658 -0.176780E-08  0.587E-04    9.32      35.5  T
speedup  1.11
cpu  time for SCC    0.00 s
wall time for SCC    0.00 s
speedup  1.08
cpu  time for grad    0.01 s
wall time for grad    0.01 s
 E :    -45.36711127  G :  0.004419    pred/act E change:  0.000D+00 -0.291D-03
Maxdispl :   0.2068   ||displ|| :   0.3190   Lambda : -0.425D-03
Largest |displ|/coords:  0.2068 (   2)  0.1208 (   1)  0.0880 (  12)
................................................................................
.............................. CYCLE   55 ......................................
................................................................................
   1    -45.6171966 -0.456172E+02  0.217E-01    9.30       0.0  T
   2    -45.6172025 -0.584232E-05  0.163E-01    9.30       1.0  T
   3    -45.6172097 -0.723939E-05  0.140E-02    9.31       1.5  T
   4    -45.6172101 -0.372166E-06  0.610E-03    9.31       3.4  T
   5    -45.6172101 -0.419446E-07  0.214E-03    9.31       9.7  T
   6    -45.6172101 -0.596422E-08  0.107E-03    9.31      19.5  T
speedup  1.14
cpu  time for SCC    0.00 s
wall time for SCC    0.00 s
speedup  0.99
cpu  time for grad    0.01 s
wall time for grad    0.01 s
 E :    -45.36731074  G :  0.011977    pred/act E change: -0.201D-03 -0.199D-03
Maxdispl :   0.0670   ||displ|| :   0.1061   Lambda : -0.238D-03
Largest |displ|/coords:  0.0670 (   2)  0.0306 (   8)  0.0295 (  12)
................................................................................
.............................. CYCLE   56 ......................................
................................................................................
   1    -45.6187521 -0.456188E+02  0.614E-02    9.30       0.0  T
   2    -45.6187525 -0.479444E-06  0.458E-02    9.30       1.0  T
   3    -45.6187530 -0.450178E-06  0.484E-03    9.30       4.3  T
   4    -45.6187530 -0.436393E-07  0.179E-03    9.30      11.7  T
   5    -45.6187530 -0.268595E-08  0.546E-04    9.30      38.2  T
speedup  1.08
cpu  time for SCC    0.00 s
wall time for SCC    0.00 s
speedup  0.96
cpu  time for grad    0.01 s
wall time for grad    0.01 s
 E :    -45.36748588  G :  0.006413    pred/act E change: -0.234D-03 -0.175D-03
Maxdispl :   0.2350   ||displ|| :   0.3063   Lambda : -0.318D-03
Largest |displ|/coords:  0.2350 (   2)  0.0840 (   8)  0.0822 (  13)
................................................................................
.............................. CYCLE   57 ......................................
................................................................................
   1    -45.6192340 -0.456192E+02  0.195E-01    9.30       0.0  T
   2    -45.6192391 -0.508207E-05  0.146E-01    9.30       1.0  T
   3    -45.6192455 -0.641646E-05  0.141E-02    9.30       1.5  T
   4    -45.6192458 -0.314214E-06  0.617E-03    9.30       3.4  T
   5    -45.6192459 -0.386499E-07  0.195E-03    9.30      10.7  T
   6    -45.6192459 -0.393329E-08  0.115E-03    9.30      18.1  T
speedup  1.14
cpu  time for SCC    0.00 s
wall time for SCC    0.00 s
speedup  0.97
cpu  time for grad    0.01 s
wall time for grad    0.01 s
 E :    -45.36768713  G :  0.005931    pred/act E change: -0.121D-03 -0.201D-03
Maxdispl :   0.1399   ||displ|| :   0.2032   Lambda : -0.151D-03
Largest |displ|/coords:  0.1399 (   2)  0.0599 (   8)  0.0553 (  12)
................................................................................
.............................. CYCLE   58 ......................................
................................................................................
   1    -45.6197190 -0.456197E+02  0.119E-01    9.30       0.0  T
   2    -45.6197210 -0.201140E-05  0.892E-02    9.30       1.0  T
   3    -45.6197231 -0.215825E-05  0.919E-03    9.30       2.3  T
   4    -45.6197233 -0.195732E-06  0.409E-03    9.30       5.1  T
   5    -45.6197233 -0.185991E-07  0.123E-03    9.30      17.0  T
   6    -45.6197233 -0.166388E-08  0.741E-04    9.30      28.1  T
speedup  1.11
cpu  time for SCC    0.00 s
wall time for SCC    0.00 s
speedup  0.98
cpu  time for grad    0.01 s
wall time for grad    0.01 s
 E :    -45.36778981  G :  0.004945    pred/act E change: -0.174D-03 -0.103D-03
Maxdispl :   0.1177   ||displ|| :   0.2120   Lambda : -0.130D-03
Largest |displ|/coords:  0.1177 (   2)  0.0922 (   8)  0.0635 (  16)
................................................................................
.............................. CYCLE   59 ......................................
................................................................................
   1    -45.6194700 -0.456195E+02  0.151E-01    9.31       0.0  T
   2    -45.6194735 -0.345903E-05  0.114E-01    9.31       1.0  T
   3    -45.6194774 -0.396252E-05  0.106E-02    9.31       2.0  T
   4    -45.6194777 -0.320430E-06  0.430E-03    9.31       4.8  T
   5    -45.6194778 -0.184859E-07  0.162E-03    9.31      12.8  T
   6    -45.6194778 -0.341988E-08  0.808E-04    9.31      25.8  T
speedup  0.89
cpu  time for SCC    0.00 s
wall time for SCC    0.00 s
speedup  0.98
cpu  time for grad    0.01 s
wall time for grad    0.01 s
 E :    -45.36787016  G :  0.006097    pred/act E change: -0.788D-04 -0.803D-04
Maxdispl :   0.0872   ||displ|| :   0.1641   Lambda : -0.128D-03
Largest |displ|/coords:  0.0872 (   2)  0.0622 (   1)  0.0493 (  17)
................................................................................
.............................. CYCLE   60 ......................................
................................................................................
   1    -45.6213606 -0.456214E+02  0.975E-02    9.33       0.0  T
   2    -45.6213623 -0.167556E-05  0.732E-02    9.33       1.0  T
   3    -45.6213634 -0.108706E-05  0.816E-03    9.33       2.6  T
   4    -45.6213637 -0.285143E-06  0.272E-03    9.33       7.7  T
   5    -45.6213637 -0.914220E-08  0.101E-03    9.33      20.6  T
speedup  1.08
cpu  time for SCC    0.00 s
wall time for SCC    0.00 s
speedup  0.96
cpu  time for grad    0.01 s
wall time for grad    0.01 s
 E :    -45.36794010  G :  0.005151    pred/act E change: -0.678D-04 -0.699D-04
Maxdispl :   0.2634   ||displ|| :   0.3539   Lambda : -0.174D-03
Largest |displ|/coords:  0.2634 (   2)  0.1136 (   8)  0.0966 (   9)
................................................................................
.............................. CYCLE   61 ......................................
................................................................................
   1    -45.6194521 -0.456195E+02  0.227E-01    9.35       0.0  T
   2    -45.6194591 -0.701282E-05  0.171E-01    9.35       1.0  T
   3    -45.6194655 -0.642589E-05  0.149E-02    9.35       1.4  T
   4    -45.6194664 -0.907875E-06  0.547E-03    9.35       3.8  T
   5    -45.6194664 -0.317841E-07  0.238E-03    9.35       8.8  T
   6    -45.6194665 -0.697709E-08  0.101E-03    9.35      20.6  T
speedup  0.91
cpu  time for SCC    0.00 s
wall time for SCC    0.00 s
speedup  0.98
cpu  time for grad    0.01 s
wall time for grad    0.01 s
 E :    -45.36798789  G :  0.010956    pred/act E change: -0.655D-04 -0.478D-04
Maxdispl :   0.0400   ||displ|| :   0.0696   Lambda : -0.191D-03
Largest |displ|/coords:  0.0400 (   9)  0.0222 (   1)  0.0220 (  13)
................................................................................
.............................. CYCLE   62 ......................................
................................................................................
   1    -45.6215883 -0.456216E+02  0.617E-02    9.35       0.0  T
   2    -45.6215901 -0.178159E-05  0.458E-02    9.35       1.0  T
   3    -45.6215913 -0.114182E-05  0.803E-03    9.35       2.6  T
   4    -45.6215915 -0.218817E-06  0.238E-03    9.35       8.8  T
   5    -45.6215915 -0.757822E-08  0.841E-04    9.35      24.8  T
speedup  1.05
cpu  time for SCC    0.00 s
wall time for SCC    0.00 s
speedup  0.95
cpu  time for grad    0.01 s
wall time for grad    0.01 s
 E :    -45.36804244  G :  0.005129    pred/act E change: -0.981D-04 -0.546D-04
Maxdispl :   0.0692   ||displ|| :   0.1517   Lambda : -0.228D-03
Largest |displ|/coords:  0.0692 (   1)  0.0659 (   9)  0.0648 (   2)
................................................................................
.............................. CYCLE   63 ......................................
................................................................................
   1    -45.6230056 -0.456230E+02  0.126E-01    9.36       0.0  T
   2    -45.6230089 -0.326359E-05  0.952E-02    9.36       1.0  T
   3    -45.6230121 -0.322206E-05  0.997E-03    9.35       2.1  T
   4    -45.6230125 -0.343447E-06  0.455E-03    9.35       4.6  T
   5    -45.6230125 -0.208467E-07  0.131E-03    9.35      16.0  T
   6    -45.6230125 -0.194921E-08  0.745E-04    9.35      28.0  T
speedup  0.91
cpu  time for SCC    0.00 s
wall time for SCC    0.00 s
speedup  0.98
cpu  time for grad    0.01 s
wall time for grad    0.01 s
 E :    -45.36807002  G :  0.008267    pred/act E change: -0.959D-04 -0.276D-04
Maxdispl :   0.1370   ||displ|| :   0.1753   Lambda : -0.168D-03
Largest |displ|/coords:  0.1370 (   2)  0.0376 (   5)  0.0368 (  24)
................................................................................
.............................. CYCLE   64 ......................................
................................................................................
   1    -45.6215996 -0.456216E+02  0.112E-01    9.36       0.0  T
   2    -45.6216009 -0.131518E-05  0.840E-02    9.36       1.0  T
   3    -45.6216022 -0.126329E-05  0.622E-03    9.35       3.4  T
   4    -45.6216024 -0.165052E-06  0.277E-03    9.36       7.5  T
   5    -45.6216024 -0.890023E-08  0.102E-03    9.36      20.4  T
speedup  1.05
cpu  time for SCC    0.00 s
wall time for SCC    0.00 s
speedup  0.95
cpu  time for grad    0.01 s
wall time for grad    0.01 s
 E :    -45.36818009  G :  0.005771    pred/act E change: -0.117D-03 -0.110D-03
Maxdispl :   0.1790   ||displ|| :   0.2259   Lambda : -0.113D-03
Largest |displ|/coords:  0.1790 (   2)  0.0605 (   8)  0.0469 (  17)
................................................................................
.............................. CYCLE   65 ......................................
................................................................................
   1    -45.6207831 -0.456208E+02  0.110E-01    9.35       0.0  T
   2    -45.6207853 -0.217190E-05  0.824E-02    9.35       1.0  T
   3    -45.6207868 -0.155729E-05  0.817E-03    9.35       2.6  T
   4    -45.6207872 -0.346901E-06  0.274E-03    9.35       7.6  T
   5    -45.6207872 -0.914181E-08  0.115E-03    9.35      18.1  T
speedup  1.05
cpu  time for SCC    0.00 s
wall time for SCC    0.00 s
speedup  1.04
cpu  time for grad    0.01 s
wall time for grad    0.01 s
 E :    -45.36823965  G :  0.006752    pred/act E change: -0.865D-04 -0.596D-04
Maxdispl :   0.1147   ||displ|| :   0.1794   Lambda : -0.111D-03
Largest |displ|/coords:  0.1147 (   2)  0.0594 (  17)  0.0554 (  16)
................................................................................
.............................. CYCLE   66 ......................................
................................................................................
   1    -45.6204140 -0.456204E+02  0.107E-01    9.34       0.0  T
   2    -45.6204156 -0.157738E-05  0.807E-02    9.34       1.0  T
   3    -45.6204167 -0.106786E-05  0.802E-03    9.33       2.6  T
[...]
.............................. CYCLE  142 ......................................
................................................................................
   1    -45.6226623 -0.456227E+02  0.105E-02    9.35       0.0  T
   2    -45.6226623 -0.192902E-07  0.786E-03    9.35       2.7  T
   3    -45.6226623 -0.157893E-07  0.104E-03    9.35      20.0  T
   4    -45.6226623 -0.253590E-08  0.363E-04    9.35      57.5  T
   5    -45.6226623 -0.124722E-09  0.896E-05    9.35     232.7  T
speedup  1.05
cpu  time for SCC    0.00 s
wall time for SCC    0.00 s
speedup  1.00
cpu  time for grad    0.01 s
wall time for grad    0.01 s
 E :    -45.37184323  G :  0.000315    pred/act E change: -0.362D-06 -0.442D-06
Maxdispl :   0.0073   ||displ|| :   0.0140   Lambda : -0.527D-06
Largest |displ|/coords:  0.0073 (  31)  0.0039 (  24)  0.0036 (   6)
................................................................................
.............................. CYCLE  143 ......................................
................................................................................
   1    -45.6226801 -0.456227E+02  0.152E-02    9.35       0.0  T
   2    -45.6226802 -0.635357E-07  0.114E-02    9.35       1.8  T
   3    -45.6226802 -0.185594E-07  0.195E-03    9.35      10.7  T
   4    -45.6226802 -0.127859E-07  0.669E-04    9.35      31.2  T
   5    -45.6226802 -0.266162E-09  0.841E-05    9.35     247.9  T
speedup  1.08
cpu  time for SCC    0.00 s
wall time for SCC    0.00 s
speedup  1.01
cpu  time for grad    0.01 s
wall time for grad    0.01 s
 E :    -45.37184366  G :  0.000265    pred/act E change: -0.364D-06 -0.428D-06
Maxdispl :   0.0201   ||displ|| :   0.0370   Lambda : -0.112D-05
Largest |displ|/coords:  0.0201 (  31)  0.0106 (  24)  0.0101 (  17)
................................................................................
.............................. CYCLE  144 ......................................
................................................................................
   1    -45.6226296 -0.456226E+02  0.417E-02    9.36       0.0  T
   2    -45.6226300 -0.414118E-06  0.313E-02    9.36       1.0  T
   3    -45.6226301 -0.129645E-06  0.494E-03    9.36       4.2  T
   4    -45.6226302 -0.865283E-07  0.161E-03    9.36      12.9  T
   5    -45.6226302 -0.152568E-08  0.232E-04    9.36      89.7  T
   6    -45.6226302 -0.406573E-10  0.152E-04    9.36     136.8  T
speedup  1.11
cpu  time for SCC    0.00 s
wall time for SCC    0.00 s
speedup  1.03
cpu  time for grad    0.01 s
wall time for grad    0.01 s
 E :    -45.37184438  G :  0.000683    pred/act E change: -0.262D-06 -0.724D-06
Maxdispl :   0.0057   ||displ|| :   0.0145   Lambda : -0.583D-06
Largest |displ|/coords:  0.0057 (   2)  0.0055 (  31)  0.0045 (   1)
................................................................................
.............................. CYCLE  145 ......................................
................................................................................
   1    -45.6226448 -0.456226E+02  0.118E-02    9.36       0.0  T
   2    -45.6226449 -0.381479E-07  0.885E-03    9.36       2.4  T
   3    -45.6226449 -0.125708E-07  0.150E-03    9.36      13.9  T
   4    -45.6226449 -0.751268E-08  0.357E-04    9.36      58.5  T
   5    -45.6226449 -0.142450E-09  0.892E-05    9.36     233.8  T
speedup  0.79
cpu  time for SCC    0.00 s
wall time for SCC    0.00 s
speedup  1.00
cpu  time for grad    0.01 s
wall time for grad    0.01 s
 E :    -45.37184484  G :  0.000616    pred/act E change: -0.561D-06 -0.454D-06
Maxdispl :   0.0182   ||displ|| :   0.0358   Lambda : -0.990D-06
Largest |displ|/coords:  0.0182 (  31)  0.0109 (  17)  0.0097 (  24)
................................................................................
.............................. CYCLE  146 ......................................
................................................................................
   1    -45.6225343 -0.456225E+02  0.385E-02    9.35       0.0  T
   2    -45.6225346 -0.292163E-06  0.289E-02    9.35       1.0  T
   3    -45.6225347 -0.105322E-06  0.414E-03    9.36       5.0  T
   4    -45.6225348 -0.606954E-07  0.122E-03    9.36      17.1  T
   5    -45.6225348 -0.877051E-09  0.222E-04    9.35      93.7  T
   6    -45.6225348 -0.380922E-10  0.136E-04    9.35     153.0  T
speedup  0.89
cpu  time for SCC    0.00 s
wall time for SCC    0.00 s
speedup  0.94
cpu  time for grad    0.01 s
wall time for grad    0.01 s
 E :    -45.37184543  G :  0.000877    pred/act E change: -0.292D-06 -0.590D-06
Maxdispl :   0.0096   ||displ|| :   0.0193   Lambda : -0.121D-05
Largest |displ|/coords:  0.0096 (   1)  0.0079 (   2)  0.0078 (   3)

generating ANC from model Hessian ...
 Shifting diagonal of input Hessian by   4.573028304636545E-003
 Lowest  eigenvalues of input Hessian
   -0.000000   -0.000000   -0.000000    0.000000    0.000000    0.000000
    0.005000    0.005347    0.005612    0.006460    0.006830    0.007074
    0.007827    0.008850    0.009902    0.012599    0.013703    0.016231
 Highest eigenvalues
    1.383220    1.386930    1.412109    2.605978    3.470478    3.616281
 
cpu  time for ANC gen    0.02 s
wall time for ANC gen    0.02 s
................................................................................
.............................. CYCLE  147 ......................................
................................................................................
   1    -45.6225787 -0.456226E+02  0.104E-02    9.35       0.0  T
   2    -45.6225787 -0.392386E-07  0.768E-03    9.35       2.7  T
   3    -45.6225787 -0.185354E-07  0.146E-03    9.35      14.2  T
   4    -45.6225787 -0.614984E-08  0.444E-04    9.35      46.9  T
   5    -45.6225787 -0.253799E-09  0.128E-04    9.35     163.2  T
speedup  1.05
cpu  time for SCC    0.00 s
wall time for SCC    0.00 s
speedup  1.07
cpu  time for grad    0.01 s
wall time for grad    0.01 s
 E :    -45.37184577  G :  0.000364    pred/act E change:  0.000D+00 -0.340D-06
Maxdispl :   0.0014   ||displ|| :   0.0032   Lambda : -0.269D-06
Largest |displ|/coords:  0.0014 (   3)  0.0013 (   5)  0.0012 (  10)
................................................................................
.............................. CYCLE  148 ......................................
................................................................................
   1    -45.6225776 -0.456226E+02  0.224E-03    9.35       0.0  T
   2    -45.6225776 -0.196527E-08  0.163E-03    9.35      12.8  T
   3    -45.6225776 -0.982624E-09  0.319E-04    9.35      65.4  T
   4    -45.6225776 -0.243837E-09  0.116E-04    9.35     180.0  T
speedup  0.97
cpu  time for SCC    0.00 s
wall time for SCC    0.00 s
speedup  0.97
cpu  time for grad    0.01 s
wall time for grad    0.01 s
 E :    -45.37184599  G :  0.000254    pred/act E change:  0.000D+00 -0.221D-06
Maxdispl :   0.0043   ||displ|| :   0.0089   Lambda : -0.557D-06
Largest |displ|/coords:  0.0043 (   3)  0.0035 (   4)  0.0030 (  10)
................................................................................
.............................. CYCLE  149 ......................................
................................................................................
   1    -45.6225954 -0.456226E+02  0.657E-03    9.35       0.0  T
   2    -45.6225955 -0.157276E-07  0.476E-03    9.35       4.4  T
   3    -45.6225955 -0.830298E-08  0.920E-04    9.35      22.7  T
   4    -45.6225955 -0.179629E-08  0.308E-04    9.35      67.8  T
speedup  1.00
cpu  time for SCC    0.00 s
wall time for SCC    0.00 s
speedup  0.98
cpu  time for grad    0.01 s
wall time for grad    0.01 s
 E :    -45.37184630  G :  0.000233    pred/act E change: -0.135D-06 -0.308D-06
Maxdispl :   0.0019   ||displ|| :   0.0036   Lambda : -0.124D-06
Largest |displ|/coords:  0.0019 (   5)  0.0018 (   3)  0.0015 (   6)
................................................................................
.............................. CYCLE  150 ......................................
................................................................................
   1    -45.6226078 -0.456226E+02  0.241E-03    9.35       0.0  T
   2    -45.6226078 -0.198003E-08  0.174E-03    9.35      12.0  T
   3    -45.6226078 -0.116738E-08  0.355E-04    9.35      58.8  T
   4    -45.6226078 -0.198561E-09  0.922E-05    9.35     226.3  T
speedup  1.00
cpu  time for SCC    0.00 s
wall time for SCC    0.00 s
speedup  0.98
cpu  time for grad    0.01 s
wall time for grad    0.01 s
 E :    -45.37184636  G :  0.000200    pred/act E change: -0.279D-06 -0.600D-07
Maxdispl :   0.0018   ||displ|| :   0.0029   Lambda : -0.116D-06
Largest |displ|/coords:  0.0018 (   4)  0.0015 (   3)  0.0007 (   1)
................................................................................
.............................. CYCLE  151 ......................................
................................................................................
   1    -45.6226180 -0.456226E+02  0.218E-03    9.35       0.0  T
   2    -45.6226180 -0.215357E-08  0.157E-03    9.35      13.3  T
   3    -45.6226180 -0.137030E-08  0.337E-04    9.35      61.9  T
   4    -45.6226180 -0.218336E-09  0.914E-05    9.35     228.2  T
speedup  1.00
cpu  time for SCC    0.00 s
wall time for SCC    0.00 s
speedup  0.98
cpu  time for grad    0.01 s
wall time for grad    0.01 s
 E :    -45.37184644  G :  0.000159    pred/act E change: -0.621D-07 -0.872D-07
Maxdispl :   0.0016   ||displ|| :   0.0037   Lambda : -0.146D-06
Largest |displ|/coords:  0.0016 (   3)  0.0015 (   4)  0.0010 (   5)

   *** GEOMETRY OPTIMIZATION CONVERGED AFTER 151 ITERATIONS ***

------------------------------------------------------------------------
 total energy gain (kcal):     -0.0004
------------------------------------------------------------------------
================
 final structure:
================
$coord
        3.02436431932970       -0.56001572721291        1.35537846488612      S 
        4.20177864027517        0.89362486722800       -0.64375615984981      O 
        1.33755695959708        0.97346801869349        2.91078696088284      O 
        1.76821241504113       -2.83452027343287        0.47666468096420      O 
        5.26633309076475       -1.44843196047579        3.12968212104283      O 
        6.60047122506535       -0.34065535262060        2.65185076272061      H 
       -2.68918103530602        2.71047744674405       -2.26466705870720      O 
       -1.34228654387718        3.92842581746697       -1.82606824359900      H 
        1.37314894240297        5.05179404487893       -0.50626461376636      O 
        2.57771207370173        3.66850780926218       -0.74328677674305      H 
        1.10983409906321        5.12105482080117        1.28952125155231      H 
        0.39318837799259       -0.89968376510967       -3.95117575312010      O 
        1.88692110854532        0.00752391443453       -4.44724559226980      H 
        0.90294569178646       -1.81715801323611       -2.43239542070998      H 
       -1.79955022008460        1.35159873397356       -3.17703729730595      H 
       -3.33053151268638        0.66854353458551        1.91877981562153      O 
       -3.56039092857073       -1.29467637080636        1.46821981396060      H 
       -1.51143286958549        0.80976313574504        2.53829521387226      H 
       -3.27723824374260        1.62430967580755        0.13184402679690      H 
       -3.38059293496310       -3.95420348885249        0.68724609208759      N 
       -4.02262756322880       -4.28229451016980       -1.08428450099380      H 
       -4.07762068375557       -5.29421977880038        1.85762384541219      H 
       -1.45101440775142       -4.08323257890829        0.66028838614000      H 
$end
 
 Bond Distances (Angstroems)
 ---------------------------
S1-O2=1.4488         S1-O3=1.4604         S1-O4=1.4515         S1-O5=1.5843         O2-S1=1.4488         O3-S1=1.4604         
O4-S1=1.4515         O5-S1=1.5843         O5-H6=0.9518         H6-O5=0.9518         O7-H8=0.9886         O7-H15=0.9858        
H8-O7=0.9886         O9-H10=0.9787        O9-H11=0.9611        H10-O9=0.9787        H11-O9=0.9611        O12-H13=0.9613       
O12-H14=0.9769       H13-O12=0.9613       H14-O12=0.9769       H15-O7=0.9858        O16-H17=1.0728       O16-H18=1.0197       
O16-H19=1.0727       H17-O16=1.0728       H18-O16=1.0197       H19-O16=1.0727       N20-H21=1.0121       N20-H22=1.0112       
N20-H23=1.0235       H21-N20=1.0121       H22-N20=1.0112       H23-N20=1.0235       
 N  H  Rav=1.0156 sigma=0.0056  Rmin=1.0112  Rmax=1.0235     3
 O  H  Rav=0.9970 sigma=0.0419  Rmin=0.9518  Rmax=1.0728    10
 S  O  Rav=1.4863 sigma=0.0568  Rmin=1.4488  Rmax=1.5843     4
 
 selected bond angles (degree)
 --------------------
O3-S1-O2=112.29                O4-S1-O2=113.78                O4-S1-O3=111.19                O5-S1-O2=105.56                
O5-S1-O3=106.77                O5-S1-O4=106.66                H6-O5-S1=102.43                H15-O7-H8=104.26               
H11-O9-H10=104.46              
 
 selected dihedral angles (degree)
 ---------------------------------
H6-O5-S1-O2= 17.41            H6-O5-S1-O3=257.73            H6-O5-S1-O4=138.77            
 
 CMA Distance (Angstroems)
 ---------------------------
R(CMA):  2.7900

========================================================================
 FINAL SINGLEPOINT CALCULATION ON OPTIMIZED GEOMETRY
========================================================================

 Ncao       : 59
 Nao        : 58
 Nshell     : 34
 Nel        : 72
 T(el)      :   300.0
 intcut     :    25.0
 scfconv/Eh :  0.100E-05
   qconv/e  :  0.100E-03
 intneglect :  0.100E-07
 broydamp   :      0.250
 iter      E             dE          RMSdq      gap      omega  full diag
   1    -45.6226180 -0.456226E+02  0.290E-05    9.35       0.0  T
   2    -45.6226180 -0.568434E-12  0.185E-05    9.35    1125.1  T
   3    -45.6226180 -0.355271E-12  0.444E-06    9.35    4696.9  T
speedup  0.87
cpu  time for SCC    0.00 s
wall time for SCC    0.00 s

   *** convergence criteria satisfied after 3 iterations ***

          eigenvalues
 #    :          24         25         26         27         28         29         30         31
 occ. :        2.000      2.000      2.000      2.000      2.000      2.000      2.000      2.000
 eps  :       -14.074    -13.771    -13.403    -12.682    -12.444    -12.421    -12.341    -12.253
 #    :          32         33         34         35         36         37         38         39
 occ. :        2.000      2.000      2.000      2.000      2.000      0.000      0.000      0.000
 eps  :       -12.204    -12.069    -12.021    -11.920    -11.903     -2.549     -0.665     -0.482
 #    :          40         41         42         43         44         45         46         47
 occ. :        0.000      0.000      0.000      0.000      0.000      0.000      0.000      0.000
 eps  :         0.619      0.762      1.218      2.786      3.340      4.521      4.975      5.080


   #   Z            q   n(s)   n(p)   n(d)      C6AA      α(0)
   1  16 S      1.685  1.583  1.784  0.948    89.105    15.887
   2   8 O     -0.753  1.774  4.979  0.000    30.191     7.367
   3   8 O     -0.744  1.767  4.977  0.000    29.923     7.335
   4   8 O     -0.738  1.766  4.973  0.000    29.769     7.315
   5   8 O     -0.591  1.752  4.839  0.000    24.938     6.742
   6   1 H      0.348  0.652  0.000  0.000     0.584     1.196
   7   8 O     -0.614  1.763  4.851  0.000    25.481     6.815
   8   1 H      0.338  0.662  0.000  0.000     0.618     1.235
   9   8 O     -0.610  1.745  4.866  0.000    25.436     6.807
  10   1 H      0.318  0.682  0.000  0.000     0.669     1.285
  11   1 H      0.296  0.704  0.000  0.000     0.732     1.344
  12   8 O     -0.616  1.742  4.874  0.000    25.577     6.826
  13   1 H      0.302  0.698  0.000  0.000     0.716     1.329
  14   1 H      0.314  0.686  0.000  0.000     0.680     1.296
  15   1 H      0.333  0.667  0.000  0.000     0.629     1.246
  16   8 O     -0.524  1.733  4.790  0.000    23.345     6.526
  17   1 H      0.352  0.648  0.000  0.000     0.572     1.182
  18   1 H      0.374  0.626  0.000  0.000     0.535     1.149
  19   1 H      0.384  0.616  0.000  0.000     0.511     1.121
  20   7 N     -0.430  1.341  4.089  0.000    31.206     8.297
  21   1 H      0.182  0.818  0.000  0.000     1.203     1.718
  22   1 H      0.174  0.826  0.000  0.000     1.250     1.752
  23   1 H      0.220  0.780  0.000  0.000     1.012     1.576

 Mol. C6AA /au·bohr⁶  :       4518.114460
 Mol. C8AA /au·bohr⁸  :      99388.378472
 Mol. α(0) /au        :         97.343948

 
 Wiberg/Mayer (AO) data. WBOs > 0.1 written file <wbo>
 largest (>0.05) Wiberg bond orders for each atom
           total WBO             WBO to atom ...
     1  S   4.849    O    2 1.324    O    4 1.314    O    3 1.279    O    5 0.892
     2  O   1.711    S    1 1.324    O    3 0.108    O    4 0.108    O    5 0.078    H   10 0.054
     3  O   1.733    S    1 1.279    H   18 0.116    O    4 0.112    O    2 0.108    O    5 0.068
     4  O   1.734    S    1 1.314    O    3 0.112    O    2 0.108    O    5 0.065    H   14 0.055
     5  O   1.972    S    1 0.892    H    6 0.862    O    2 0.078    O    3 0.068    O    4 0.065
     6  H   0.879    O    5 0.862
     7  O   1.993    H   15 0.821    H    8 0.814    H   19 0.216    O   16 0.073
     8  H   0.886    O    7 0.814    O    9 0.070
     9  O   1.880    H   11 0.905    H   10 0.840    H    8 0.070
    10  H   0.899    O    9 0.840    O    2 0.054
    11  H   0.912    O    9 0.905
    12  O   1.872    H   13 0.902    H   14 0.840    H   15 0.066
    13  H   0.909    O   12 0.902
    14  H   0.901    O   12 0.840    O    4 0.055
    15  H   0.889    O    7 0.821    O   12 0.066
    16  O   2.223    H   18 0.736    H   17 0.641    H   19 0.634    N   20 0.083    O    7 0.073
    17  H   0.876    O   16 0.641    N   20 0.231
    18  H   0.860    O   16 0.736    O    3 0.116
    19  H   0.853    O   16 0.634    O    7 0.216
    20  N   3.186    H   22 0.966    H   21 0.964    H   23 0.914    H   17 0.231    O   16 0.083
    21  H   0.967    N   20 0.964
    22  H   0.970    N   20 0.966
    23  H   0.952    N   20 0.914
 MOs/occ written to file <molden.input>
 
molecular dipole:
                 x           y           z       tot (Debye)
 q only:       -1.299      -0.585       0.311
   full:       -0.166      -1.097       0.528       3.123
molecular quadrupole (traceless):
                xx          xy          yy          xz          yz          zz
 q only:        6.015       8.314      -1.373      -1.609       2.071      -4.642
  q+dip:        6.847      10.994      -0.790      -0.357       3.195      -6.057
   full:        7.180      11.097      -1.139      -0.108       2.946      -6.041

SCC energy    :     -45.6226180
rep           :       0.2505655
ES            :       0.2185436
AES           :      -0.0647622
AXC           :      -0.0068847
disp          :      -0.0175812
XB            :       0.0000000
fix           :       0.0000000
total E       :     -45.3718464
atomizationE  :       4.4549089     2795.50
(atE without considering molecular charge,
 total energy contains solvation terms)
H-L gap (eV)  :          9.3539
optimized geometry written to: xtbopt.xyz


------------------------------------------------------------------------
 * finished run on 2019/09/16 at 12:09:34.336     
------------------------------------------------------------------------
 total:
 * wall-time:     0 d,  0 h,  0 min,  2.747 sec
 *  cpu-time:     0 d,  0 h,  0 min,  2.722 sec
 * ratio c/w:     0.991 speedup
 SCF:
 * wall-time:     0 d,  0 h,  0 min,  0.118 sec
 *  cpu-time:     0 d,  0 h,  0 min,  0.115 sec
 * ratio c/w:     0.977 speedup
 ANC optimizer:
 * wall-time:     0 d,  0 h,  0 min,  2.607 sec
 *  cpu-time:     0 d,  0 h,  0 min,  2.586 sec
 * ratio c/w:     0.992 speedup

