      -----------------------------------------------------------      
     |                   =====================                   |     
     |                           x T B                           |     
     |                   =====================                   |     
     |                         S. Grimme                         |     
     |          Mulliken Center for Theoretical Chemistry        |     
     |                    University of Bonn                     |     
     |                 Version 6.0.1 (SAW181210)                 |     
      -----------------------------------------------------------      

   This program is distributed in the hope that it will be useful,
   but WITHOUT ANY WARRANTY; without even the implied warranty of
   MERCHANTABILITY or FITNESS FOR A PARTICULAR PURPOSE.
   
   FOR NON-COMMERCIAL, ACADEMIA USE ONLY.
   
   Cite this work as:
   S. Grimme, C. Bannwarth, P. Shushkov, J. Comput. Theory Chem., 2017,
   13, 1989-2009.
   C. Bannwarth, S. Ehlert and S. Grimme., ChemRxiv, 2018, preprint.
   http://doi.org/10.26434/chemrxiv.7246238.v1
   
   for sTDA-xTB:
   S. Grimme and C. Bannwarth, J. Chem. Phys., 2016, 145, 054103.
   
   in the mass-spec context:
   V. Asgeirsson, C. Bauer and S. Grimme, Chem. Sci., 2017, 8, 4879.
   
   if GBSA is used:
   P. Shushkov, F. März and S. Grimme, unpublished.
   
   for ANC optimizer:
   S. Grimme, unpublished.
   Rational Function algorithm used in ANCopt:
   F. Eckert, P. Pulay, H.-J. Werner, J. Comput. Chem., 1997, 18, 1473.
   
   with help from (in alphabetical order)
   C. Bannwarth, F. Bohle, G. Brandenburg, E. Caldeweyher, M. Checinski,
   S. Dohm, S. Ehlert, S. Ehrlich, F. März, H. Neugebauer, J. Pisarek,
   P. Pracht, P. Shushkov, and S. Spicher.
   
 * started run on 2019/09/16 at 12:44:01.810     
========================================================================
 # omp threads = 1
========================================================================
number of atoms            : 26
number of electrons        : 80
charge                     : 0
spin                       : .0
first test random number   : .4695

########################################################################
# WARNING! Please study the warnings concerning your input carefully
#  - XTBPATH is not set, using XTBHOME instead
#  - the use of '-opt' is discouraged, please use '--opt' next time
#  - the use of '-chrg' is discouraged, please use '--chrg' next time
#  - the use of '-uhf' is discouraged, please use '--uhf' next time
########################################################################

           ------------------------------------------------- 
          |                 G F N 2 - x T B                 |
          | Geometry, Frequencies, Noncovalent interactions |
          |            JCTC 2018 parametrisation            |
           ------------------------------------------------- 
      method parameters     
 k(s)        :  1.8500
 k(p)        :  2.2300
 k(d)        :  2.2300
 k(f)        :  2.0000
 kEN (H0ij)  : -2.0000
 D4 a1       :  0.5200
 D4 a2       :  5.0000
 D4 s6       :  1.0000
 D4 s8       :  2.7000
 D4 s9       :  5.0000
 alphaj      :  2.0000


            Z     q(EN)     CN     RAES       Cart. coordinates
     1  S   6.0    0.67    4.16    3.97     0.39211     0.05348    -1.92105
     2  O   6.0   -0.32    1.21    1.80    -0.75708    -2.44502    -1.31690
     3  O   6.0   -0.31    1.19    1.80     3.08656     0.06948    -1.10388
     4  O   6.0   -0.30    1.20    1.80     0.25042     0.50520    -4.69666
     5  O   6.0   -0.34    1.29    1.80    -1.01147     2.08425    -0.56679
     6  O   6.0   -0.39    1.65    1.81     2.42430    -0.96819     5.31270
     7  H   1.0    0.17    0.94    1.42     2.53659    -1.33377     7.13958
     8  O   6.0   -0.27    1.98    1.82     6.02174     1.10526     2.91582
     9  H   1.0    0.17    1.03    1.43     5.39210     0.76604     1.24158
    10  H   1.0    0.17    1.08    1.44     4.93466     0.17017     4.03764
    11  O   6.0   -0.29    2.02    1.83    -5.80987     2.65149    -2.24891
    12  H   1.0    0.17    1.05    1.44    -4.12421     2.61250    -1.56213
    13  H   1.0    0.15    0.97    1.43    -6.59771     4.11624    -1.50837
    14  O   6.0   -0.22    2.92    2.58     1.32747     3.11395     3.64969
    15  H   1.0    0.13    0.97    1.43     2.97497     3.88545     3.22499
    16  H   1.0    0.15    1.08    1.44     0.21748     2.96526     2.15442
    17  H   1.0    0.16    1.19    1.46     1.52767     1.48144     4.53644
    18  O   6.0   -0.22    2.92    2.58     2.37695    -4.16815     2.10827
    19  H   1.0    0.13    0.96    1.43     4.00921    -4.04554     1.20797
    20  H   1.0    0.16    1.21    1.47     2.30683    -3.03153     3.58921
    21  H   1.0    0.15    1.07    1.44     0.92458    -3.91143     0.96100
    22  N   5.0   -0.14    3.95    2.74    -4.48066    -1.13532    -5.43092
    23  H   1.0    0.12    1.09    1.44    -2.65528    -0.53413    -5.73255
    24  H   1.0    0.08    0.99    1.43    -5.35462    -1.43864    -7.14225
    25  H   1.0    0.09    0.99    1.43    -4.45764    -2.79225    -4.41186
    26  H   1.0    0.11    1.05    1.44    -5.45512     0.22375    -4.43703

  Z AO/shell   Hii/eV     exponent
  1     Wed Apr 25 08:07:45 CEST 2018   EN: 2.200 GM2: 0.406  GM3: 0.0800  RAES: 1.40
     1s    -10.707211    1.230000
  7     Wed Apr 25 08:07:45 CEST 2018   EN: 3.040 GM2: 0.461  GM3:-0.0640  RAES: 1.90
     2s    -16.686243    2.339881
     2p    -12.523956    2.014332
  8     Wed Apr 25 08:07:45 CEST 2018   EN: 3.440 GM2: 0.452  GM3:-0.0517  RAES: 1.80
     2s    -20.229985    2.439742
     2p    -15.503117    2.137023
 16     Tue Apr 24 11:44:34 CEST 2018   EN: 2.580 GM2: 0.340  GM3:-0.0502  RAES: 3.10
     3s    -20.029654    1.981333
     3p    -11.377694    2.025643
     3d     -0.420282    1.702555
 no old-style atom pair restraining (fixing) potential

molecular fragmentation (1/2 indicates fragments):
11111222222222222222222222
# atoms in fragment 1/2:     5    21
 fragment masses (1/2) :       96.06      109.12
CMA distance (Bohr)    :   2.977
constraining FC (au)   :  0.0500
           ------------------------------------------------- 
          |        Self-Consistent Charge Iterations        |
           ------------------------------------------------- 

 Ncao       : 65
 Nao        : 64
 Nshell     : 38
 Nel        : 80
 T(el)      :   300.0
 intcut     :    25.0
 scfconv/Eh :  0.100E-05
   qconv/e  :  0.100E-03
 intneglect :  0.100E-07
 broydamp   :      0.250
 iter      E             dE          RMSdq      gap      omega  full diag
   1    -50.5501697 -0.505502E+02  0.703E+00   10.38       0.0  T
   2    -50.5932964 -0.431267E-01  0.505E+00    9.96       1.0  T
   3    -50.6302919 -0.369955E-01  0.113E+00    7.51       1.0  T
   4    -50.6343124 -0.402055E-02  0.561E-01    7.77       1.0  T
   5    -50.6351055 -0.793052E-03  0.244E-01    7.62       1.0  T
   6    -50.6353684 -0.262899E-03  0.126E-01    7.63       1.0  T
   7    -50.6354629 -0.945429E-04  0.435E-02    7.69       1.0  T
   8    -50.6354703 -0.741594E-05  0.275E-02    7.69       1.0  T
   9    -50.6354748 -0.443185E-05  0.843E-03    7.69       2.3  T
  10    -50.6354751 -0.304156E-06  0.188E-03    7.69      10.4  T
  11    -50.6354751 -0.148697E-07  0.930E-04    7.69      21.1  T
  12    -50.6354751 -0.409931E-08  0.267E-04    7.69      73.4  T
speedup  0.96
cpu  time for SCC    0.01 s
wall time for SCC    0.01 s

   *** convergence criteria satisfied after 12 iterations ***

          eigenvalues
 #    :          28         29         30         31         32         33         34         35
 occ. :        2.000      2.000      2.000      2.000      2.000      2.000      2.000      2.000
 eps  :       -12.148    -11.861    -10.997    -10.721    -10.507    -10.215    -10.115    -10.104
 #    :          36         37         38         39         40         41         42         43
 occ. :        2.000      2.000      2.000      2.000      2.000      0.000      0.000      0.000
 eps  :        -9.920     -9.812     -9.692     -9.622     -9.467     -1.779     -0.782      0.431
 #    :          44         45         46         47         48         49         50         51
 occ. :        0.000      0.000      0.000      0.000      0.000      0.000      0.000      0.000
 eps  :         0.666      1.857      2.393      2.581      2.847      2.900      3.695      5.116


   #   Z            q   n(s)   n(p)   n(d)      C6AA      α(0)
   1  16 S      1.487  1.609  1.907  0.997    93.776    16.299
   2   8 O     -0.810  1.780  5.031  0.000    31.904     7.573
   3   8 O     -0.782  1.775  5.006  0.000    31.040     7.470
   4   8 O     -0.778  1.783  4.994  0.000    30.917     7.455
   5   8 O     -0.802  1.780  5.023  0.000    31.649     7.543
   6   8 O     -0.851  1.826  5.025  0.000    33.107     7.717
   7   1 H      0.205  0.795  0.000  0.000     1.094     1.643
   8   8 O     -0.683  1.766  4.917  0.000    27.272     7.048
   9   1 H      0.304  0.696  0.000  0.000     0.710     1.324
  10   1 H      0.309  0.691  0.000  0.000     0.695     1.309
  11   8 O     -0.624  1.730  4.894  0.000    25.774     6.852
  12   1 H      0.334  0.666  0.000  0.000     0.627     1.244
  13   1 H      0.285  0.715  0.000  0.000     0.769     1.377
  14   8 O     -0.430  1.650  4.780  0.000    21.392     6.247
  15   1 H      0.387  0.613  0.000  0.000     0.509     1.121
  16   1 H      0.396  0.604  0.000  0.000     0.492     1.102
  17   1 H      0.411  0.589  0.000  0.000     0.459     1.062
  18   8 O     -0.422  1.648  4.774  0.000    21.224     6.222
  19   1 H      0.381  0.619  0.000  0.000     0.521     1.135
  20   1 H      0.410  0.590  0.000  0.000     0.460     1.062
  21   1 H      0.399  0.601  0.000  0.000     0.487     1.096
  22   7 N     -0.269  1.240  4.029  0.000    26.951     7.710
  23   1 H      0.317  0.683  0.000  0.000     0.664     1.276
  24   1 H      0.244  0.756  0.000  0.000     0.907     1.492
  25   1 H      0.274  0.726  0.000  0.000     0.797     1.399
  26   1 H      0.311  0.689  0.000  0.000     0.683     1.294

 Mol. C6AA /au·bohr⁶  :       5518.933289
 Mol. C8AA /au·bohr⁸  :     120117.498007
 Mol. α(0) /au        :        107.071653

 
 Wiberg/Mayer (AO) data. WBOs > 0.1 written file <wbo>
 largest (>0.05) Wiberg bond orders for each atom
           total WBO             WBO to atom ...
     1  S   5.002    O    3 1.297    O    4 1.260    O    2 1.224    O    5 1.188
     2  O   1.651    S    1 1.224    O    3 0.099    H   21 0.096    O    4 0.095    O    5 0.091
     3  O   1.648    S    1 1.297    O    2 0.099    O    5 0.095    O    4 0.091
     4  O   1.688    S    1 1.260    H   23 0.096    O    2 0.095    O    3 0.091    O    5 0.090
     5  O   1.685    S    1 1.188    H   16 0.102    O    3 0.095    O    2 0.091    O    4 0.090    H   12 0.057
     6  O   1.600    H    7 0.947    H   20 0.205    H   17 0.190    H   10 0.082    O   18 0.062    O   14 0.059
     7  H   0.958    O    6 0.947
     8  O   1.788    H    9 0.867    H   10 0.819
     9  H   0.908    O    8 0.867
    10  H   0.905    O    8 0.819    O    6 0.082
    11  O   1.840    H   13 0.907    H   12 0.827    H   26 0.054
    12  H   0.888    O   11 0.827    O    5 0.057
    13  H   0.919    O   11 0.907
    14  O   2.306    H   15 0.824    H   16 0.731    H   17 0.633    O    6 0.059
    15  H   0.850    O   14 0.824
    16  H   0.843    O   14 0.731    O    5 0.102
    17  H   0.831    O   14 0.633    O    6 0.190
    18  O   2.310    H   19 0.843    H   21 0.736    H   20 0.621    O    6 0.062
    19  H   0.855    O   18 0.843
    20  H   0.832    O   18 0.621    O    6 0.205
    21  H   0.841    O   18 0.736    O    2 0.096
    22  N   3.575    H   24 0.936    H   25 0.917    H   26 0.843    H   23 0.795
    23  H   0.899    N   22 0.795    O    4 0.096
    24  H   0.940    N   22 0.936
    25  H   0.925    N   22 0.917
    26  H   0.904    N   22 0.843    O   11 0.054
 MOs/occ written to file <molden.input>
 
molecular dipole:
                 x           y           z       tot (Debye)
 q only:       -3.451      -1.137      -0.657
   full:       -3.488      -1.058      -0.666       9.420
molecular quadrupole (traceless):
                xx          xy          yy          xz          yz          zz
 q only:       -5.139      -2.899       3.243      23.409      11.132       1.897
  q+dip:       -6.932      -4.688       3.286      21.693      10.251       3.647
   full:       -7.049      -4.636       3.054      21.800      10.270       3.996

SCC energy    :     -50.6354751
rep           :       0.2821594
ES            :       0.3931094
AES           :      -0.0830520
AXC           :      -0.0098348
disp          :      -0.0190653
XB            :       0.0000000
fix           :       0.0000000
total E       :     -50.3531801
atomizationE  :       4.8834843     3064.43
(atE without considering molecular charge,
 total energy contains solvation terms)
H-L gap (eV)  :          7.6880
           ------------------------------------------------- 
          |                 ===============                 |
          |                   A N C O P T                   |
          |                 ===============                 |
          |          Approximate Normal Coordinate          |
          |           Rational Function Optimizer           |
           ------------------------------------------------- 
dumping coords to <xtbopt.coord> and <xtbopt.log>
 optlevel               2
 Maxcycle             520
 Maxmicro              25
 Econv         1.000000000000000E-007
 Gconv         2.000000000000000E-004
 Maxdispl       1.00000000000000     
 Hlow          5.000000000000000E-003
 S6             20.0000000000000     
 Nvar               72

generating ANC from model Hessian ...
 Shifting diagonal of input Hessian by   4.946301914351509E-003
 Lowest  eigenvalues of input Hessian
   -0.000000   -0.000000   -0.000000    0.000000    0.000000    0.000000
    0.005000    0.005330    0.005571    0.005937    0.006252    0.006437
    0.006755    0.007130    0.007339    0.007715    0.008199    0.008243
 Highest eigenvalues
    1.553010    1.580827    1.584065    3.074772    3.078189    3.092877
 
cpu  time for ANC gen    0.01 s
wall time for ANC gen    0.02 s
................................................................................
.............................. CYCLE    1 ......................................
................................................................................
   1    -50.6354751 -0.506355E+02  0.122E-04    7.69       0.0  T
   2    -50.6354751 -0.356408E-10  0.944E-05    7.69     207.8  T
   3    -50.6354751 -0.361098E-10  0.434E-05    7.69     452.1  T
speedup  1.03
cpu  time for SCC    0.00 s
wall time for SCC    0.00 s
speedup  0.97
cpu  time for grad    0.01 s
wall time for grad    0.01 s
 E :    -50.35318015  G :  0.187050    pred/act E change:  0.000D+00 -0.167D-07
Maxdispl :   0.1731   ||displ|| :   0.4500   Lambda : -0.444D-01
Largest |displ|/coords:  0.1731 (  20)  0.1580 (  31)  0.1233 (  13)
................................................................................
.............................. CYCLE    2 ......................................
................................................................................
   1    -50.6493621 -0.506494E+02  0.350E-01    8.05       0.0  T
   2    -50.6497608 -0.398727E-03  0.256E-01    8.15       1.0  T
   3    -50.6499323 -0.171473E-03  0.967E-02    8.33       1.0  T
   4    -50.6499524 -0.200674E-04  0.286E-02    8.35       1.0  T
   5    -50.6499538 -0.137816E-05  0.832E-03    8.35       2.4  T
   6    -50.6499539 -0.128882E-06  0.447E-03    8.35       4.4  T
   7    -50.6499540 -0.687912E-07  0.179E-03    8.34      10.9  T
speedup  0.97
cpu  time for SCC    0.01 s
wall time for SCC    0.01 s
speedup  1.00
cpu  time for grad    0.01 s
wall time for grad    0.01 s
 E :    -50.38980479  G :  0.112508    pred/act E change:  0.000D+00 -0.366D-01
Maxdispl :   0.2155   ||displ|| :   0.5117   Lambda : -0.272D-01
Largest |displ|/coords:  0.2155 (  31)  0.1785 (  20)  0.1537 (  18)
................................................................................
.............................. CYCLE    3 ......................................
................................................................................
   1    -50.6581516 -0.506582E+02  0.351E-01    8.65       0.0  T
   2    -50.6588213 -0.669696E-03  0.250E-01    8.73       1.0  T
   3    -50.6590935 -0.272169E-03  0.115E-01    8.84       1.0  T
   4    -50.6591104 -0.169306E-04  0.322E-02    8.85       1.0  T
   5    -50.6591119 -0.151774E-05  0.951E-03    8.84       2.1  T
   6    -50.6591121 -0.197810E-06  0.521E-03    8.84       3.8  T
   7    -50.6591122 -0.112037E-06  0.224E-03    8.84       8.8  T
speedup  0.97
cpu  time for SCC    0.01 s
wall time for SCC    0.01 s
speedup  1.00
cpu  time for grad    0.01 s
wall time for grad    0.01 s
 E :    -50.41160821  G :  0.073265    pred/act E change: -0.267D-01 -0.218D-01
Maxdispl :   0.2177   ||displ|| :   0.5052   Lambda : -0.138D-01
Largest |displ|/coords:  0.2177 (  18)  0.1484 (  21)  0.1397 (  31)
................................................................................
.............................. CYCLE    4 ......................................
................................................................................
   1    -50.6629209 -0.506629E+02  0.313E-01    8.97       0.0  T
   2    -50.6635211 -0.600152E-03  0.221E-01    9.01       1.0  T
   3    -50.6637613 -0.240216E-03  0.106E-01    9.05       1.0  T
   4    -50.6637733 -0.120311E-04  0.310E-02    9.05       1.0  T
   5    -50.6637749 -0.157267E-05  0.866E-03    9.04       2.3  T
   6    -50.6637751 -0.164044E-06  0.468E-03    9.04       4.2  T
   7    -50.6637752 -0.870367E-07  0.203E-03    9.04       9.7  T
speedup  0.98
cpu  time for SCC    0.01 s
wall time for SCC    0.01 s
speedup  1.00
cpu  time for grad    0.01 s
wall time for grad    0.01 s
 E :    -50.42193386  G :  0.051406    pred/act E change: -0.172D-01 -0.103D-01
Maxdispl :   0.1686   ||displ|| :   0.4333   Lambda : -0.588D-02
Largest |displ|/coords:  0.1686 (  21)  0.1593 (   4)  0.1293 (   6)
................................................................................
.............................. CYCLE    5 ......................................
................................................................................
   1    -50.6666321 -0.506666E+02  0.295E-01    9.14       0.0  T
   2    -50.6668637 -0.231681E-03  0.216E-01    9.17       1.0  T
   3    -50.6669541 -0.903449E-04  0.771E-02    9.23       1.0  T
   4    -50.6669692 -0.151215E-04  0.194E-02    9.23       1.0  T
   5    -50.6669705 -0.125272E-05  0.514E-03    9.23       3.8  T
   6    -50.6669705 -0.421193E-07  0.302E-03    9.23       6.5  T
speedup  1.13
cpu  time for SCC    0.01 s
wall time for SCC    0.01 s
speedup  1.04
cpu  time for grad    0.01 s
wall time for grad    0.01 s
 E :    -50.42671372  G :  0.039956    pred/act E change: -0.867D-02 -0.478D-02
Maxdispl :   0.2950   ||displ|| :   0.5812   Lambda : -0.749D-02
Largest |displ|/coords:  0.2950 (  21)  0.2379 (   7)  0.1526 (  10)
................................................................................
.............................. CYCLE    6 ......................................
................................................................................
   1    -50.6724213 -0.506724E+02  0.489E-01    9.38       0.0  T
   2    -50.6732485 -0.827265E-03  0.350E-01    9.45       1.0  T
   3    -50.6735730 -0.324489E-03  0.138E-01    9.54       1.0  T
   4    -50.6736090 -0.360351E-04  0.338E-02    9.54       1.0  T
   5    -50.6736125 -0.341858E-05  0.926E-03    9.54       2.1  T
   6    -50.6736126 -0.109676E-06  0.570E-03    9.54       3.4  T
   7    -50.6736126 -0.515501E-07  0.149E-03    9.54      13.2  T
speedup  0.95
cpu  time for SCC    0.01 s
wall time for SCC    0.01 s
speedup  0.98
cpu  time for grad    0.01 s
wall time for grad    0.01 s
 E :    -50.43097783  G :  0.048046    pred/act E change: -0.349D-02 -0.426D-02
Maxdispl :   0.2898   ||displ|| :   0.5286   Lambda : -0.632D-02
Largest |displ|/coords:  0.2898 (   4)  0.2376 (   6)  0.1751 (   9)
................................................................................
.............................. CYCLE    7 ......................................
................................................................................
   1    -50.6777080 -0.506777E+02  0.640E-01    9.63       0.0  T
   2    -50.6780969 -0.388929E-03  0.479E-01    9.63       1.0  T
   3    -50.6782473 -0.150326E-03  0.987E-02    9.62       1.0  T
   4    -50.6783119 -0.645984E-04  0.231E-02    9.63       1.0  T
   5    -50.6783129 -0.100216E-05  0.756E-03    9.63       2.6  T
   6    -50.6783129 -0.469006E-07  0.396E-03    9.63       5.0  T
   7    -50.6783129 -0.201026E-07  0.955E-04    9.63      20.5  T
speedup  1.13
cpu  time for SCC    0.01 s
wall time for SCC    0.01 s
speedup  1.06
cpu  time for grad    0.01 s
wall time for grad    0.01 s
 E :    -50.43128678  G :  0.061578    pred/act E change: -0.501D-02 -0.309D-03
Maxdispl :   0.2564   ||displ|| :   0.5061   Lambda : -0.136D-01
Largest |displ|/coords:  0.2564 (   6)  0.2296 (   7)  0.1933 (   9)
................................................................................
.............................. CYCLE    8 ......................................
................................................................................
   1    -50.6822161 -0.506822E+02  0.837E-01    9.55       0.0  T
   2    -50.6825685 -0.352443E-03  0.633E-01    9.55       1.0  T
   3    -50.6827734 -0.204896E-03  0.104E-01    9.53       1.0  T
   4    -50.6828338 -0.603181E-04  0.196E-02    9.54       1.0  T
   5    -50.6828347 -0.965793E-06  0.101E-02    9.54       1.9  T
   6    -50.6828348 -0.657561E-07  0.407E-03    9.54       4.8  T
   7    -50.6828348 -0.342364E-07  0.940E-04    9.54      20.9  T
speedup  0.97
cpu  time for SCC    0.01 s
wall time for SCC    0.01 s
speedup  1.05
cpu  time for grad    0.01 s
wall time for grad    0.01 s
 E :    -50.43264847  G :  0.049758    pred/act E change: -0.404D-02 -0.136D-02
Maxdispl :   0.1419   ||displ|| :   0.3466   Lambda : -0.383D-02
Largest |displ|/coords:  0.1419 (  21)  0.1325 (   4)  0.1290 (   1)
................................................................................
.............................. CYCLE    9 ......................................
................................................................................
   1    -50.6817016 -0.506817E+02  0.291E-01    9.52       0.0  T
   2    -50.6817906 -0.889978E-04  0.215E-01    9.52       1.0  T
   3    -50.6818327 -0.420484E-04  0.508E-02    9.51       1.0  T
   4    -50.6818452 -0.125024E-04  0.119E-02    9.51       1.6  T
   5    -50.6818455 -0.294384E-06  0.530E-03    9.51       3.7  T
   6    -50.6818455 -0.346096E-07  0.268E-03    9.51       7.3  T
speedup  1.11
cpu  time for SCC    0.01 s
wall time for SCC    0.01 s
speedup  1.04
cpu  time for grad    0.01 s
wall time for grad    0.01 s
 E :    -50.43454424  G :  0.049368    pred/act E change: -0.853D-02 -0.190D-02
Maxdispl :   0.1942   ||displ|| :   0.3402   Lambda : -0.443D-02
Largest |displ|/coords:  0.1942 (   4)  0.1101 (  16)  0.0847 (   5)
................................................................................
.............................. CYCLE   10 ......................................
................................................................................
   1    -50.6856664 -0.506857E+02  0.299E-01    9.56       0.0  T
   2    -50.6857225 -0.560768E-04  0.223E-01    9.55       1.0  T
   3    -50.6857577 -0.351372E-04  0.436E-02    9.54       1.0  T
   4    -50.6857647 -0.709398E-05  0.120E-02    9.54       1.6  T
   5    -50.6857650 -0.227836E-06  0.467E-03    9.54       4.2  T
   6    -50.6857650 -0.265458E-07  0.223E-03    9.54       8.8  T
speedup  1.11
cpu  time for SCC    0.01 s
wall time for SCC    0.01 s
speedup  1.04
cpu  time for grad    0.01 s
wall time for grad    0.01 s
 E :    -50.43543442  G :  0.041211    pred/act E change: -0.214D-02 -0.890D-03
Maxdispl :   0.1232   ||displ|| :   0.3161   Lambda : -0.409D-02
Largest |displ|/coords:  0.1232 (  16)  0.1144 (  21)  0.1058 (   5)
................................................................................
.............................. CYCLE   11 ......................................
................................................................................
   1    -50.6846329 -0.506846E+02  0.267E-01    9.51       0.0  T
   2    -50.6847332 -0.100231E-03  0.196E-01    9.49       1.0  T
   3    -50.6847738 -0.406702E-04  0.551E-02    9.46       1.0  T
   4    -50.6847839 -0.100405E-04  0.132E-02    9.46       1.5  T
   5    -50.6847844 -0.534773E-06  0.391E-03    9.46       5.0  T
   6    -50.6847844 -0.204847E-07  0.232E-03    9.46       8.5  T
speedup  1.13
cpu  time for SCC    0.01 s
wall time for SCC    0.01 s
speedup  1.04
cpu  time for grad    0.01 s
wall time for grad    0.01 s
 E :    -50.43742967  G :  0.036283    pred/act E change: -0.247D-02 -0.200D-02
Maxdispl :   0.1781   ||displ|| :   0.3619   Lambda : -0.337D-02
Largest |displ|/coords:  0.1781 (   2)  0.1482 (  21)  0.0956 (   8)
................................................................................
.............................. CYCLE   12 ......................................
................................................................................
   1    -50.6770441 -0.506770E+02  0.350E-01    9.38       0.0  T
   2    -50.6770986 -0.545395E-04  0.263E-01    9.38       1.0  T
   3    -50.6771349 -0.363381E-04  0.408E-02    9.37       1.0  T
   4    -50.6771429 -0.794623E-05  0.106E-02    9.37       1.9  T
   5    -50.6771431 -0.181970E-06  0.485E-03    9.37       4.0  T
   6    -50.6771431 -0.298542E-07  0.266E-03    9.37       7.4  T
speedup  0.93
cpu  time for SCC    0.00 s
wall time for SCC    0.01 s
speedup  0.96
cpu  time for grad    0.01 s
wall time for grad    0.01 s
 E :    -50.43827085  G :  0.053753    pred/act E change: -0.225D-02 -0.841D-03
Maxdispl :   0.1611   ||displ|| :   0.3531   Lambda : -0.810D-02
Largest |displ|/coords:  0.1611 (  22)  0.1030 (  23)  0.1006 (  12)
................................................................................
.............................. CYCLE   13 ......................................
................................................................................
   1    -50.7010823 -0.507011E+02  0.528E-01    9.53       0.0  T
   2    -50.7013354 -0.253094E-03  0.393E-01    9.53       1.0  T
   3    -50.7014584 -0.122994E-03  0.880E-02    9.51       1.0  T
   4    -50.7014925 -0.340955E-04  0.162E-02    9.51       1.2  T
   5    -50.7014934 -0.912204E-06  0.735E-03    9.51       2.7  T
   6    -50.7014934 -0.501127E-07  0.352E-03    9.51       5.6  T
   7    -50.7014934 -0.174896E-07  0.740E-04    9.51      26.5  T
speedup  0.97
cpu  time for SCC    0.01 s
wall time for SCC    0.01 s
speedup  0.99
cpu  time for grad    0.01 s
wall time for grad    0.01 s
 E :    -50.43613126  G :  0.077012    pred/act E change: -0.191D-02  0.214D-02
Maxdispl :   0.1299   ||displ|| :   0.3742   Lambda : -0.145D-01
Largest |displ|/coords:  0.1299 (  25)  0.1267 (  22)  0.1244 (  23)
................................................................................
.............................. CYCLE   14 ......................................
................................................................................
   1    -50.6776981 -0.506777E+02  0.592E-01    9.37       0.0  T
   2    -50.6780788 -0.380690E-03  0.435E-01    9.38       1.0  T
   3    -50.6782449 -0.166092E-03  0.106E-01    9.40       1.0  T
   4    -50.6782876 -0.427266E-04  0.174E-02    9.40       1.1  T
   5    -50.6782881 -0.484365E-06  0.851E-03    9.40       2.3  T
   6    -50.6782883 -0.181949E-06  0.382E-03    9.40       5.1  T
   7    -50.6782883 -0.200521E-07  0.824E-04    9.40      23.8  T
speedup  1.11
cpu  time for SCC    0.01 s
wall time for SCC    0.01 s
speedup  1.05
cpu  time for grad    0.01 s
wall time for grad    0.01 s
 E :    -50.43821084  G :  0.068747    pred/act E change: -0.456D-02 -0.208D-02
Maxdispl :   0.1379   ||displ|| :   0.3285   Lambda : -0.998D-02
Largest |displ|/coords:  0.1379 (   2)  0.1124 (  22)  0.1005 (   4)
................................................................................
.............................. CYCLE   15 ......................................
................................................................................
   1    -50.6967762 -0.506968E+02  0.422E-01    9.49       0.0  T
   2    -50.6969860 -0.209788E-03  0.312E-01    9.48       1.0  T
   3    -50.6971070 -0.121007E-03  0.786E-02    9.46       1.0  T
   4    -50.6971305 -0.234758E-04  0.141E-02    9.46       1.4  T
   5    -50.6971308 -0.297593E-06  0.809E-03    9.46       2.4  T
   6    -50.6971308 -0.616758E-07  0.227E-03    9.46       8.6  T
   7    -50.6971308 -0.147527E-07  0.566E-04    9.46      34.6  T
speedup  1.13
cpu  time for SCC    0.01 s
wall time for SCC    0.01 s
speedup  1.06
cpu  time for grad    0.01 s
wall time for grad    0.01 s
 E :    -50.44024715  G :  0.044403    pred/act E change: -0.825D-02 -0.204D-02
Maxdispl :   0.0556   ||displ|| :   0.1634   Lambda : -0.290D-02
Largest |displ|/coords:  0.0556 (   4)  0.0522 (  14)  0.0487 (  11)
................................................................................
.............................. CYCLE   16 ......................................
................................................................................
   1    -50.6936540 -0.506937E+02  0.191E-01    9.48       0.0  T
   2    -50.6936922 -0.381727E-04  0.142E-01    9.48       1.0  T
   3    -50.6937099 -0.177597E-04  0.336E-02    9.49       1.0  T
   4    -50.6937147 -0.476020E-05  0.605E-03    9.48       3.2  T
   5    -50.6937148 -0.100541E-06  0.261E-03    9.48       7.5  T
   6    -50.6937148 -0.543621E-08  0.137E-03    9.48      14.4  T
speedup  0.93
cpu  time for SCC    0.00 s
wall time for SCC    0.01 s
speedup  0.98
cpu  time for grad    0.01 s
wall time for grad    0.01 s
 E :    -50.44222881  G :  0.024911    pred/act E change: -0.553D-02 -0.198D-02
Maxdispl :   0.0789   ||displ|| :   0.2414   Lambda : -0.215D-02
Largest |displ|/coords:  0.0789 (  11)  0.0789 (   7)  0.0724 (   6)
................................................................................
.............................. CYCLE   17 ......................................
................................................................................
   1    -50.6923767 -0.506924E+02  0.251E-01    9.51       0.0  T
   2    -50.6924222 -0.455382E-04  0.188E-01    9.51       1.0  T
   3    -50.6924464 -0.242022E-04  0.379E-02    9.50       1.0  T
   4    -50.6924532 -0.677202E-05  0.707E-03    9.50       2.8  T
   5    -50.6924533 -0.802687E-07  0.362E-03    9.50       5.4  T
   6    -50.6924533 -0.102586E-07  0.167E-03    9.50      11.8  T
speedup  0.94
cpu  time for SCC    0.00 s
wall time for SCC    0.01 s
speedup  0.98
cpu  time for grad    0.01 s
wall time for grad    0.01 s
 E :    -50.44356135  G :  0.039897    pred/act E change: -0.149D-02 -0.133D-02
Maxdispl :   0.0945   ||displ|| :   0.2970   Lambda : -0.258D-02
Largest |displ|/coords:  0.0945 (  14)  0.0859 (   7)  0.0796 (  16)
................................................................................
.............................. CYCLE   18 ......................................
................................................................................
   1    -50.6973608 -0.506974E+02  0.205E-01    9.56       0.0  T
   2    -50.6974326 -0.717691E-04  0.151E-01    9.56       1.0  T
   3    -50.6974656 -0.330623E-04  0.458E-02    9.55       1.0  T
   4    -50.6974737 -0.808301E-05  0.108E-02    9.55       1.8  T
   5    -50.6974739 -0.227359E-06  0.422E-03    9.55       4.6  T
   6    -50.6974739 -0.136352E-07  0.216E-03    9.55       9.1  T
speedup  0.89
cpu  time for SCC    0.01 s
wall time for SCC    0.01 s
speedup  0.96
cpu  time for grad    0.01 s
wall time for grad    0.01 s
 E :    -50.44546017  G :  0.045108    pred/act E change: -0.114D-02 -0.190D-02
Maxdispl :   0.1302   ||displ|| :   0.4659   Lambda : -0.564D-02
Largest |displ|/coords:  0.1302 (  21)  0.1193 (   3)  0.1162 (  33)
................................................................................
.............................. CYCLE   19 ......................................
................................................................................
   1    -50.7123231 -0.507123E+02  0.322E-01    9.62       0.0  T
   2    -50.7124149 -0.917669E-04  0.242E-01    9.61       1.0  T
   3    -50.7124869 -0.719808E-04  0.530E-02    9.60       1.0  T
   4    -50.7124983 -0.114166E-04  0.187E-02    9.60       1.0  T
   5    -50.7124988 -0.475427E-06  0.659E-03    9.60       3.0  T
   6    -50.7124988 -0.408491E-07  0.326E-03    9.60       6.0  T
   7    -50.7124988 -0.185506E-07  0.734E-04    9.60      26.7  T
speedup  0.97
cpu  time for SCC    0.01 s
wall time for SCC    0.01 s
speedup  0.99
cpu  time for grad    0.01 s
wall time for grad    0.01 s
 E :    -50.44881180  G :  0.035078    pred/act E change: -0.141D-02 -0.335D-02
Maxdispl :   0.0824   ||displ|| :   0.2141   Lambda : -0.257D-02
Largest |displ|/coords:  0.0824 (  33)  0.0664 (  14)  0.0656 (   5)
................................................................................
.............................. CYCLE   20 ......................................
................................................................................
   1    -50.7141373 -0.507141E+02  0.153E-01    9.59       0.0  T
   2    -50.7141649 -0.275624E-04  0.113E-01    9.60       1.0  T
   3    -50.7141823 -0.174469E-04  0.290E-02    9.61       1.0  T
   4    -50.7141853 -0.296066E-05  0.733E-03    9.60       2.7  T
   5    -50.7141854 -0.137479E-06  0.328E-03    9.60       6.0  T
   6    -50.7141855 -0.898562E-08  0.152E-03    9.60      12.9  T
speedup  0.94
cpu  time for SCC    0.01 s
wall time for SCC    0.01 s
speedup  0.98
cpu  time for grad    0.01 s
wall time for grad    0.01 s
 E :    -50.44990025  G :  0.025211    pred/act E change: -0.343D-02 -0.109D-02
Maxdispl :   0.0620   ||displ|| :   0.2070   Lambda : -0.146D-02
Largest |displ|/coords:  0.0620 (   3)  0.0575 (   2)  0.0556 (  14)
................................................................................
.............................. CYCLE   21 ......................................
................................................................................
   1    -50.7161535 -0.507162E+02  0.133E-01    9.63       0.0  T
   2    -50.7161866 -0.331562E-04  0.999E-02    9.64       1.0  T
   3    -50.7162032 -0.165612E-04  0.337E-02    9.64       1.0  T
   4    -50.7162064 -0.321348E-05  0.108E-02    9.64       1.8  T
   5    -50.7162067 -0.276326E-06  0.298E-03    9.64       6.6  T
   6    -50.7162067 -0.117446E-07  0.158E-03    9.64      12.4  T
speedup  0.93
cpu  time for SCC    0.00 s
wall time for SCC    0.01 s
speedup  0.98
cpu  time for grad    0.01 s
wall time for grad    0.01 s
 E :    -50.45059596  G :  0.019492    pred/act E change: -0.134D-02 -0.696D-03
Maxdispl :   0.0960   ||displ|| :   0.2539   Lambda : -0.112D-02
Largest |displ|/coords:  0.0960 (  33)  0.0955 (   5)  0.0933 (   1)
................................................................................
.............................. CYCLE   22 ......................................
................................................................................
   1    -50.7133760 -0.507134E+02  0.135E-01    9.60       0.0  T
   2    -50.7133943 -0.183451E-04  0.102E-01    9.61       1.0  T
   3    -50.7134048 -0.105017E-04  0.256E-02    9.61       1.0  T
   4    -50.7134074 -0.254624E-05  0.845E-03    9.61       2.3  T
   5    -50.7134075 -0.117439E-06  0.263E-03    9.61       7.5  T
   6    -50.7134075 -0.107156E-07  0.149E-03    9.61      13.2  T
speedup  1.13
cpu  time for SCC    0.01 s
wall time for SCC    0.01 s
speedup  1.05
cpu  time for grad    0.01 s
wall time for grad    0.01 s
 E :    -50.45115271  G :  0.020261    pred/act E change: -0.762D-03 -0.557D-03
Maxdispl :   0.1192   ||displ|| :   0.2438   Lambda : -0.104D-02
Largest |displ|/coords:  0.1192 (   5)  0.0909 (   9)  0.0841 (   1)
................................................................................
.............................. CYCLE   23 ......................................
................................................................................
   1    -50.7217624 -0.507218E+02  0.124E-01    9.61       0.0  T
   2    -50.7217943 -0.319043E-04  0.942E-02    9.61       1.0  T
   3    -50.7218119 -0.176703E-04  0.350E-02    9.62       1.0  T
   4    -50.7218149 -0.300784E-05  0.118E-02    9.62       1.7  T
   5    -50.7218152 -0.259278E-06  0.318E-03    9.62       6.2  T
   6    -50.7218152 -0.138147E-07  0.178E-03    9.62      11.0  T
speedup  1.11
cpu  time for SCC    0.01 s
wall time for SCC    0.01 s
speedup  1.05
cpu  time for grad    0.01 s
wall time for grad    0.01 s
 E :    -50.45166575  G :  0.024308    pred/act E change: -0.596D-03 -0.513D-03
Maxdispl :   0.2002   ||displ|| :   0.4126   Lambda : -0.155D-02
Largest |displ|/coords:  0.2002 (   1)  0.1829 (   5)  0.1126 (   2)
................................................................................
.............................. CYCLE   24 ......................................
................................................................................
   1    -50.7196398 -0.507196E+02  0.234E-01    9.53       0.0  T
   2    -50.7197509 -0.111133E-03  0.177E-01    9.53       1.0  T
   3    -50.7198028 -0.518832E-04  0.630E-02    9.54       1.0  T
   4    -50.7198135 -0.106950E-04  0.220E-02    9.54       1.0  T
   5    -50.7198144 -0.879422E-06  0.571E-03    9.54       3.4  T
   6    -50.7198144 -0.519126E-07  0.322E-03    9.54       6.1  T
speedup  1.13
cpu  time for SCC    0.01 s
wall time for SCC    0.01 s
speedup  0.98
cpu  time for grad    0.01 s
wall time for grad    0.01 s
 E :    -50.45241080  G :  0.027279    pred/act E change: -0.548D-03 -0.745D-03
Maxdispl :   0.2008   ||displ|| :   0.3863   Lambda : -0.184D-02
Largest |displ|/coords:  0.2008 (   1)  0.1450 (   2)  0.1220 (  33)
................................................................................
.............................. CYCLE   25 ......................................
................................................................................
   1    -50.7213640 -0.507214E+02  0.220E-01    9.46       0.0  T
   2    -50.7215208 -0.156826E-03  0.165E-01    9.46       1.0  T
   3    -50.7215899 -0.690892E-04  0.728E-02    9.46       1.0  T
   4    -50.7215998 -0.984463E-05  0.235E-02    9.47       1.0  T
   5    -50.7216007 -0.982912E-06  0.639E-03    9.47       3.1  T
   6    -50.7216008 -0.677006E-07  0.346E-03    9.47       5.7  T
   7    -50.7216008 -0.130020E-07  0.114E-03    9.47      17.2  T
speedup  0.98
cpu  time for SCC    0.01 s
wall time for SCC    0.01 s
speedup  1.00
cpu  time for grad    0.01 s
wall time for grad    0.01 s
 E :    -50.45351744  G :  0.029195    pred/act E change: -0.904D-03 -0.111D-02
Maxdispl :   0.1670   ||displ|| :   0.4282   Lambda : -0.229D-02
Largest |displ|/coords:  0.1670 (   4)  0.1402 (   9)  0.1314 (   1)

generating ANC from model Hessian ...
 Shifting diagonal of input Hessian by   4.903823545823562E-003
 Lowest  eigenvalues of input Hessian
   -0.000000   -0.000000   -0.000000    0.000000    0.000000    0.000000
    0.005000    0.005267    0.005444    0.006164    0.006435    0.006740
    0.007123    0.008087    0.009008    0.009604    0.009883    0.011457
 Highest eigenvalues
    1.389916    1.459256    1.480825    2.759066    3.286358    3.562874
 
cpu  time for ANC gen    0.02 s
wall time for ANC gen    0.02 s
................................................................................
.............................. CYCLE   26 ......................................
................................................................................
   1    -50.7291224 -0.507291E+02  0.270E-01    9.35       0.0  T
   2    -50.7293701 -0.247683E-03  0.200E-01    9.34       1.0  T
   3    -50.7294838 -0.113739E-03  0.878E-02    9.34       1.0  T
   4    -50.7294982 -0.143031E-04  0.280E-02    9.34       1.0  T
   5    -50.7294996 -0.149709E-05  0.827E-03    9.34       2.4  T
   6    -50.7294997 -0.966460E-07  0.433E-03    9.34       4.5  T
   7    -50.7294998 -0.196751E-07  0.125E-03    9.34      15.7  T
   8    -50.7294998 -0.349042E-08  0.387E-04    9.34      50.7  T
   9    -50.7294998 -0.518256E-09  0.106E-04    9.34     185.9  T
speedup  1.01
cpu  time for SCC    0.01 s
wall time for SCC    0.01 s
speedup  0.98
cpu  time for grad    0.02 s
wall time for grad    0.02 s
 E :    -50.45445710  G :  0.032473    pred/act E change:  0.000D+00 -0.940D-03
Maxdispl :   0.0808   ||displ|| :   0.2339   Lambda : -0.215D-02
Largest |displ|/coords:  0.0808 (  13)  0.0753 (   8)  0.0748 (  25)
................................................................................
.............................. CYCLE   27 ......................................
................................................................................
   1    -50.7303480 -0.507303E+02  0.151E-01    9.36       0.0  T
   2    -50.7303640 -0.160032E-04  0.113E-01    9.36       1.0  T
   3    -50.7303735 -0.955996E-05  0.218E-02    9.37       1.0  T
   4    -50.7303757 -0.215932E-05  0.679E-03    9.37       2.9  T
   5    -50.7303758 -0.985319E-07  0.242E-03    9.36       8.1  T
   6    -50.7303758 -0.631569E-08  0.135E-03    9.36      14.5  T
speedup  0.94
cpu  time for SCC    0.00 s
wall time for SCC    0.01 s
speedup  0.98
cpu  time for grad    0.01 s
wall time for grad    0.01 s
 E :    -50.45582776  G :  0.015787    pred/act E change:  0.000D+00 -0.137D-02
Maxdispl :   0.0964   ||displ|| :   0.2365   Lambda : -0.937D-03
Largest |displ|/coords:  0.0964 (  13)  0.0878 (   2)  0.0810 (   7)
................................................................................
.............................. CYCLE   28 ......................................
................................................................................
   1    -50.7319021 -0.507319E+02  0.151E-01    9.39       0.0  T
   2    -50.7319173 -0.152057E-04  0.113E-01    9.39       1.0  T
   3    -50.7319252 -0.789267E-05  0.208E-02    9.40       1.0  T
   4    -50.7319275 -0.227942E-05  0.535E-03    9.40       3.7  T
   5    -50.7319276 -0.547677E-07  0.209E-03    9.40       9.4  T
   6    -50.7319276 -0.459161E-08  0.115E-03    9.40      17.0  T
speedup  0.93
cpu  time for SCC    0.01 s
wall time for SCC    0.01 s
speedup  0.98
cpu  time for grad    0.01 s
wall time for grad    0.01 s
 E :    -50.45632066  G :  0.013231    pred/act E change: -0.113D-02 -0.493D-03
Maxdispl :   0.1066   ||displ|| :   0.1882   Lambda : -0.393D-03
Largest |displ|/coords:  0.1066 (   4)  0.0860 (   2)  0.0639 (  10)
................................................................................
.............................. CYCLE   29 ......................................
................................................................................
   1    -50.7327650 -0.507328E+02  0.104E-01    9.42       0.0  T
   2    -50.7327692 -0.420344E-05  0.780E-02    9.42       1.0  T
   3    -50.7327716 -0.242766E-05  0.115E-02    9.42       1.7  T
   4    -50.7327723 -0.740467E-06  0.369E-03    9.42       5.3  T
   5    -50.7327723 -0.187516E-07  0.139E-03    9.42      14.1  T
   6    -50.7327723 -0.216423E-08  0.757E-04    9.42      25.9  T
speedup  1.11
cpu  time for SCC    0.01 s
wall time for SCC    0.01 s
speedup  1.05
cpu  time for grad    0.01 s
wall time for grad    0.01 s
 E :    -50.45660367  G :  0.012311    pred/act E change: -0.495D-03 -0.283D-03
Maxdispl :   0.1401   ||displ|| :   0.2673   Lambda : -0.461D-03
Largest |displ|/coords:  0.1401 (   4)  0.1075 (   2)  0.0893 (   7)
................................................................................
.............................. CYCLE   30 ......................................
................................................................................
   1    -50.7344985 -0.507345E+02  0.130E-01    9.43       0.0  T
   2    -50.7345060 -0.755076E-05  0.974E-02    9.43       1.0  T
   3    -50.7345112 -0.521494E-05  0.169E-02    9.42       1.2  T
   4    -50.7345123 -0.111753E-05  0.495E-03    9.42       4.0  T
   5    -50.7345124 -0.349653E-07  0.212E-03    9.42       9.2  T
   6    -50.7345124 -0.598793E-08  0.113E-03    9.42      17.3  T
speedup  1.11
cpu  time for SCC    0.01 s
wall time for SCC    0.01 s
speedup  1.04
cpu  time for grad    0.01 s
wall time for grad    0.01 s
 E :    -50.45693750  G :  0.009692    pred/act E change: -0.203D-03 -0.334D-03
Maxdispl :   0.1710   ||displ|| :   0.3059   Lambda : -0.411D-03
Largest |displ|/coords:  0.1710 (   4)  0.1006 (   3)  0.0989 (   7)
................................................................................
.............................. CYCLE   31 ......................................
................................................................................
   1    -50.7364800 -0.507365E+02  0.175E-01    9.41       0.0  T
   2    -50.7364890 -0.897582E-05  0.131E-01    9.41       1.0  T
   3    -50.7364954 -0.638942E-05  0.188E-02    9.39       1.0  T
   4    -50.7364967 -0.134727E-05  0.574E-03    9.40       3.4  T
   5    -50.7364968 -0.503427E-07  0.239E-03    9.40       8.2  T
   6    -50.7364968 -0.756723E-08  0.134E-03    9.40      14.6  T
speedup  1.11
cpu  time for SCC    0.01 s
wall time for SCC    0.01 s
speedup  1.05
cpu  time for grad    0.01 s
wall time for grad    0.01 s
 E :    -50.45721655  G :  0.008207    pred/act E change: -0.247D-03 -0.279D-03
Maxdispl :   0.1524   ||displ|| :   0.3056   Lambda : -0.327D-03
Largest |displ|/coords:  0.1524 (   4)  0.1192 (   2)  0.0972 (   7)
................................................................................
.............................. CYCLE   32 ......................................
................................................................................
   1    -50.7363877 -0.507364E+02  0.220E-01    9.35       0.0  T
   2    -50.7364012 -0.134669E-04  0.166E-01    9.34       1.0  T
   3    -50.7364106 -0.946805E-05  0.222E-02    9.33       1.0  T
   4    -50.7364127 -0.208542E-05  0.713E-03    9.33       2.8  T
   5    -50.7364128 -0.903501E-07  0.252E-03    9.33       7.8  T
   6    -50.7364128 -0.504525E-08  0.142E-03    9.33      13.8  T
speedup  1.11
cpu  time for SCC    0.01 s
wall time for SCC    0.01 s
speedup  0.98
cpu  time for grad    0.01 s
wall time for grad    0.01 s
 E :    -50.45737977  G :  0.011913    pred/act E change: -0.225D-03 -0.163D-03
Maxdispl :   0.0464   ||displ|| :   0.0973   Lambda : -0.241D-03
Largest |displ|/coords:  0.0464 (   4)  0.0431 (   3)  0.0216 (   7)
................................................................................
.............................. CYCLE   33 ......................................
................................................................................
   1    -50.7392198 -0.507392E+02  0.800E-02    9.30       0.0  T
   2    -50.7392251 -0.530338E-05  0.597E-02    9.30       1.0  T
   3    -50.7392270 -0.191557E-05  0.132E-02    9.29       1.5  T
   4    -50.7392278 -0.847342E-06  0.389E-03    9.29       5.0  T
   5    -50.7392278 -0.245823E-07  0.105E-03    9.29      18.7  T
   6    -50.7392278 -0.123284E-08  0.612E-04    9.29      32.0  T
speedup  0.94
cpu  time for SCC    0.00 s
wall time for SCC    0.01 s
speedup  0.98
cpu  time for grad    0.01 s
wall time for grad    0.01 s
 E :    -50.45749458  G :  0.008797    pred/act E change: -0.179D-03 -0.115D-03
Maxdispl :   0.0717   ||displ|| :   0.1357   Lambda : -0.201D-03
Largest |displ|/coords:  0.0717 (   3)  0.0713 (   2)  0.0542 (   4)
................................................................................
.............................. CYCLE   34 ......................................
................................................................................
   1    -50.7393920 -0.507394E+02  0.972E-02    9.27       0.0  T
   2    -50.7393962 -0.417088E-05  0.731E-02    9.27       1.0  T
   3    -50.7393982 -0.201508E-05  0.120E-02    9.26       1.6  T
   4    -50.7393989 -0.705592E-06  0.419E-03    9.26       4.7  T
   5    -50.7393989 -0.321708E-07  0.118E-03    9.26      16.6  T
   6    -50.7393989 -0.124521E-08  0.697E-04    9.26      28.1  T
speedup  0.94
cpu  time for SCC    0.00 s
wall time for SCC    0.01 s
speedup  0.98
cpu  time for grad    0.01 s
wall time for grad    0.01 s
 E :    -50.45757779  G :  0.005440    pred/act E change: -0.121D-03 -0.832D-04
Maxdispl :   0.0574   ||displ|| :   0.1164   Lambda : -0.895D-04
Largest |displ|/coords:  0.0574 (   3)  0.0484 (   2)  0.0449 (   5)
................................................................................
.............................. CYCLE   35 ......................................
................................................................................
   1    -50.7386326 -0.507386E+02  0.893E-02    9.24       0.0  T
   2    -50.7386340 -0.137975E-05  0.678E-02    9.24       1.0  T
   3    -50.7386354 -0.141219E-05  0.624E-03    9.24       3.1  T
   4    -50.7386356 -0.147169E-06  0.287E-03    9.24       6.8  T
   5    -50.7386356 -0.986035E-08  0.816E-04    9.24      24.0  T
speedup  1.11
cpu  time for SCC    0.01 s
wall time for SCC    0.00 s
speedup  1.05
cpu  time for grad    0.01 s
wall time for grad    0.01 s
 E :    -50.45763500  G :  0.005132    pred/act E change: -0.102D-03 -0.572D-04
Maxdispl :   0.0779   ||displ|| :   0.1321   Lambda : -0.868D-04
Largest |displ|/coords:  0.0779 (   3)  0.0598 (   2)  0.0415 (   6)
................................................................................
.............................. CYCLE   36 ......................................
................................................................................
   1    -50.7392361 -0.507392E+02  0.760E-02    9.24       0.0  T
   2    -50.7392374 -0.129663E-05  0.574E-02    9.24       1.0  T
   3    -50.7392385 -0.106440E-05  0.678E-03    9.24       2.9  T
   4    -50.7392387 -0.176227E-06  0.357E-03    9.24       5.5  T
   5    -50.7392387 -0.150937E-07  0.777E-04    9.24      25.2  T
   6    -50.7392387 -0.761048E-09  0.495E-04    9.24      39.6  T
speedup  1.13
cpu  time for SCC    0.01 s
wall time for SCC    0.01 s
speedup  0.98
cpu  time for grad    0.01 s
wall time for grad    0.01 s
 E :    -50.45768074  G :  0.004366    pred/act E change: -0.454D-04 -0.457D-04
Maxdispl :   0.1217   ||displ|| :   0.2159   Lambda : -0.981D-04
Largest |displ|/coords:  0.1217 (   3)  0.1153 (   2)  0.0885 (   4)
................................................................................
.............................. CYCLE   37 ......................................
................................................................................
   1    -50.7382837 -0.507383E+02  0.123E-01    9.22       0.0  T
   2    -50.7382858 -0.203800E-05  0.925E-02    9.22       1.0  T
   3    -50.7382875 -0.168369E-05  0.875E-03    9.22       2.2  T
   4    -50.7382877 -0.265405E-06  0.441E-03    9.22       4.4  T
   5    -50.7382877 -0.192018E-07  0.988E-04    9.22      19.8  T
   6    -50.7382877 -0.117076E-08  0.643E-04    9.22      30.5  T
speedup  0.91
cpu  time for SCC    0.00 s
wall time for SCC    0.01 s
speedup  0.97
cpu  time for grad    0.01 s
wall time for grad    0.01 s
 E :    -50.45773506  G :  0.006541    pred/act E change: -0.441D-04 -0.543D-04
Maxdispl :   0.1224   ||displ|| :   0.1646   Lambda : -0.933D-04
Largest |displ|/coords:  0.1224 (   3)  0.0587 (   2)  0.0581 (   4)
................................................................................
.............................. CYCLE   38 ......................................
................................................................................
   1    -50.7387089 -0.507387E+02  0.757E-02    9.24       0.0  T
   2    -50.7387099 -0.934020E-06  0.570E-02    9.24       1.0  T
   3    -50.7387106 -0.759372E-06  0.603E-03    9.25       3.3  T
   4    -50.7387108 -0.116804E-06  0.310E-03    9.25       6.3  T
   5    -50.7387108 -0.770835E-08  0.613E-04    9.25      32.0  T
   6    -50.7387108 -0.395111E-09  0.400E-04    9.25      49.0  T
speedup  0.94
cpu  time for SCC    0.00 s
wall time for SCC    0.01 s
speedup  0.98
cpu  time for grad    0.01 s
wall time for grad    0.01 s
 E :    -50.45779484  G :  0.005773    pred/act E change: -0.513D-04 -0.598D-04
Maxdispl :   0.1094   ||displ|| :   0.1726   Lambda : -0.841D-04
Largest |displ|/coords:  0.1094 (   3)  0.0839 (   2)  0.0414 (   4)
................................................................................
.............................. CYCLE   39 ......................................
................................................................................
   1    -50.7398924 -0.507399E+02  0.675E-02    9.25       0.0  T
   2    -50.7398940 -0.158223E-05  0.505E-02    9.26       1.0  T
   3    -50.7398951 -0.110216E-05  0.759E-03    9.27       2.6  T
   4    -50.7398953 -0.212694E-06  0.256E-03    9.27       7.7  T
   5    -50.7398953 -0.863032E-08  0.772E-04    9.27      25.4  T
speedup  0.89
cpu  time for SCC    0.00 s
wall time for SCC    0.00 s
speedup  0.97
cpu  time for grad    0.01 s
wall time for grad    0.01 s
 E :    -50.45781059  G :  0.007544    pred/act E change: -0.479D-04 -0.158D-04
Maxdispl :   0.1769   ||displ|| :   0.2476   Lambda : -0.127D-03
Largest |displ|/coords:  0.1769 (   3)  0.0976 (   4)  0.0953 (   2)
................................................................................
.............................. CYCLE   40 ......................................
................................................................................
   1    -50.7385660 -0.507386E+02  0.139E-01    9.27       0.0  T
   2    -50.7385688 -0.276201E-05  0.105E-01    9.27       1.0  T
   3    -50.7385718 -0.299928E-05  0.983E-03    9.27       2.0  T
   4    -50.7385720 -0.232879E-06  0.368E-03    9.27       5.3  T
   5    -50.7385720 -0.159217E-07  0.126E-03    9.27      15.6  T
   6    -50.7385720 -0.179055E-08  0.695E-04    9.27      28.2  T
speedup  1.13
cpu  time for SCC    0.01 s
wall time for SCC    0.01 s
speedup  1.06
cpu  time for grad    0.01 s
wall time for grad    0.01 s
 E :    -50.45787407  G :  0.005147    pred/act E change: -0.433D-04 -0.635D-04
Maxdispl :   0.0255   ||displ|| :   0.0531   Lambda : -0.554D-04
Largest |displ|/coords:  0.0255 (   6)  0.0207 (   7)  0.0158 (   4)
................................................................................
.............................. CYCLE   41 ......................................
................................................................................
   1    -50.7395081 -0.507395E+02  0.369E-02    9.28       0.0  T
   2    -50.7395088 -0.714588E-06  0.277E-02    9.28       1.0  T
   3    -50.7395093 -0.450956E-06  0.481E-03    9.28       4.1  T
   4    -50.7395094 -0.100615E-06  0.200E-03    9.28       9.8  T
   5    -50.7395094 -0.550236E-08  0.548E-04    9.28      35.8  T
speedup  1.11
cpu  time for SCC    0.00 s
wall time for SCC    0.00 s
speedup  1.05
cpu  time for grad    0.01 s
wall time for grad    0.01 s
 E :    -50.45789506  G :  0.005515    pred/act E change: -0.672D-04 -0.210D-04
Maxdispl :   0.0938   ||displ|| :   0.1863   Lambda : -0.107D-03
Largest |displ|/coords:  0.0938 (   2)  0.0870 (   3)  0.0698 (   4)
................................................................................
.............................. CYCLE   42 ......................................
................................................................................
   1    -50.7373093 -0.507373E+02  0.122E-01    9.24       0.0  T
   2    -50.7373126 -0.328325E-05  0.920E-02    9.24       1.0  T
   3    -50.7373157 -0.311855E-05  0.937E-03    9.25       2.1  T
   4    -50.7373161 -0.370664E-06  0.439E-03    9.24       4.5  T
   5    -50.7373161 -0.222892E-07  0.133E-03    9.24      14.8  T
   6    -50.7373161 -0.191432E-08  0.778E-04    9.24      25.2  T
speedup  0.93
cpu  time for SCC    0.00 s
wall time for SCC    0.01 s
speedup  0.98
cpu  time for grad    0.01 s
wall time for grad    0.01 s
 E :    -50.45789467  G :  0.006757    pred/act E change: -0.278D-04  0.396D-06
Maxdispl :   0.0313   ||displ|| :   0.0528   Lambda : -0.989D-04
Largest |displ|/coords:  0.0313 (  11)  0.0208 (   8)  0.0159 (  14)
................................................................................
.............................. CYCLE   43 ......................................
................................................................................
   1    -50.7384366 -0.507384E+02  0.477E-02    9.26       0.0  T
   2    -50.7384373 -0.740174E-06  0.360E-02    9.26       1.0  T
   3    -50.7384379 -0.537591E-06  0.505E-03    9.25       3.9  T
   4    -50.7384380 -0.101395E-06  0.183E-03    9.25      10.7  T
   5    -50.7384380 -0.662663E-08  0.544E-04    9.25      36.0  T
speedup  0.91
cpu  time for SCC    0.00 s
wall time for SCC    0.00 s
speedup  0.97
cpu  time for grad    0.01 s
wall time for grad    0.01 s
 E :    -50.45794263  G :  0.003428    pred/act E change: -0.552D-04 -0.480D-04
Maxdispl :   0.0539   ||displ|| :   0.0719   Lambda : -0.258D-04
Largest |displ|/coords:  0.0539 (   3)  0.0186 (   1)  0.0184 (   2)
................................................................................
.............................. CYCLE   44 ......................................
................................................................................
   1    -50.7386491 -0.507386E+02  0.380E-02    9.27       0.0  T
   2    -50.7386495 -0.465852E-06  0.286E-02    9.27       1.0  T
   3    -50.7386499 -0.339782E-06  0.375E-03    9.27       5.2  T
   4    -50.7386499 -0.661278E-07  0.155E-03    9.27      12.7  T
   5    -50.7386499 -0.403723E-08  0.458E-04    9.27      42.8  T
   6    -50.7386499 -0.241897E-09  0.260E-04    9.27      75.3  T
speedup  0.93
cpu  time for SCC    0.00 s
wall time for SCC    0.01 s
speedup  1.01
cpu  time for grad    0.01 s
wall time for grad    0.01 s
 E :    -50.45794994  G :  0.002904    pred/act E change: -0.496D-04 -0.731D-05
Maxdispl :   0.0609   ||displ|| :   0.0987   Lambda : -0.194D-04
Largest |displ|/coords:  0.0609 (   3)  0.0503 (   2)  0.0360 (   4)
................................................................................
.............................. CYCLE   45 ......................................
................................................................................
   1    -50.7379710 -0.507380E+02  0.532E-02    9.27       0.0  T
   2    -50.7379714 -0.419574E-06  0.402E-02    9.27       1.0  T
   3    -50.7379719 -0.439040E-06  0.360E-03    9.27       5.5  T
   4    -50.7379719 -0.368150E-07  0.115E-03    9.27      17.0  T
   5    -50.7379719 -0.151553E-08  0.466E-04    9.27      42.1  T
   6    -50.7379719 -0.178453E-09  0.216E-04    9.27      91.0  T
speedup  0.91
cpu  time for SCC    0.00 s
wall time for SCC    0.01 s
speedup  0.94
cpu  time for grad    0.01 s
wall time for grad    0.01 s
 E :    -50.45796228  G :  0.002829    pred/act E change: -0.130D-04 -0.123D-04
Maxdispl :   0.0290   ||displ|| :   0.0544   Lambda : -0.252D-04
Largest |displ|/coords:  0.0290 (   2)  0.0216 (  10)  0.0156 (  19)
................................................................................
.............................. CYCLE   46 ......................................
................................................................................
   1    -50.7386277 -0.507386E+02  0.345E-02    9.27       0.0  T
   2    -50.7386282 -0.512427E-06  0.258E-02    9.27       1.0  T
   3    -50.7386286 -0.378053E-06  0.446E-03    9.27       4.4  T
   4    -50.7386286 -0.627839E-07  0.127E-03    9.27      15.4  T
   5    -50.7386286 -0.216569E-08  0.413E-04    9.27      47.4  T
   6    -50.7386286 -0.208388E-09  0.226E-04    9.27      86.9  T
speedup  1.13
cpu  time for SCC    0.01 s
wall time for SCC    0.01 s
speedup  1.01
cpu  time for grad    0.01 s
wall time for grad    0.01 s
 E :    -50.45796974  G :  0.003294    pred/act E change: -0.981D-05 -0.745D-05
Maxdispl :   0.0559   ||displ|| :   0.0873   Lambda : -0.168D-04
Largest |displ|/coords:  0.0559 (   3)  0.0449 (   2)  0.0276 (   4)
................................................................................
.............................. CYCLE   47 ......................................
................................................................................
   1    -50.7379983 -0.507380E+02  0.487E-02    9.26       0.0  T
   2    -50.7379985 -0.276169E-06  0.368E-02    9.26       1.0  T
   3    -50.7379988 -0.292450E-06  0.291E-03    9.27       6.7  T
   4    -50.7379988 -0.256754E-07  0.122E-03    9.27      16.1  T
   5    -50.7379989 -0.156183E-08  0.389E-04    9.27      50.4  T
   6    -50.7379989 -0.138947E-09  0.207E-04    9.27      94.9  T
speedup  0.94
cpu  time for SCC    0.00 s
wall time for SCC    0.01 s
speedup  1.01
cpu  time for grad    0.01 s
wall time for grad    0.01 s
 E :    -50.45798066  G :  0.002383    pred/act E change: -0.126D-04 -0.109D-04
Maxdispl :   0.0364   ||displ|| :   0.0543   Lambda : -0.130D-04
Largest |displ|/coords:  0.0364 (   3)  0.0231 (   2)  0.0115 (   6)
................................................................................
.............................. CYCLE   48 ......................................
................................................................................
   1    -50.7381046 -0.507381E+02  0.324E-02    9.27       0.0  T
   2    -50.7381048 -0.165321E-06  0.245E-02    9.27       1.0  T
   3    -50.7381050 -0.150197E-06  0.234E-03    9.27       8.4  T
   4    -50.7381050 -0.206138E-07  0.938E-04    9.27      20.9  T
   5    -50.7381050 -0.997566E-09  0.282E-04    9.27      69.7  T
speedup  0.89
cpu  time for SCC    0.00 s
wall time for SCC    0.00 s
speedup  0.93
cpu  time for grad    0.01 s
wall time for grad    0.01 s
 E :    -50.45798927  G :  0.002041    pred/act E change: -0.845D-05 -0.861D-05
Maxdispl :   0.0318   ||displ|| :   0.0637   Lambda : -0.129D-04
Largest |displ|/coords:  0.0318 (   2)  0.0311 (   3)  0.0188 (   7)
................................................................................
.............................. CYCLE   49 ......................................
................................................................................
   1    -50.7383699 -0.507384E+02  0.403E-02    9.28       0.0  T
   2    -50.7383702 -0.297710E-06  0.305E-02    9.28       1.0  T
   3    -50.7383704 -0.241739E-06  0.311E-03    9.27       6.3  T
   4    -50.7383705 -0.420047E-07  0.127E-03    9.27      15.5  T
   5    -50.7383705 -0.169371E-08  0.327E-04    9.27      60.0  T
   6    -50.7383705 -0.936566E-10  0.193E-04    9.27     101.6  T
speedup  1.11
cpu  time for SCC    0.01 s
wall time for SCC    0.01 s
speedup  1.01
cpu  time for grad    0.01 s
wall time for grad    0.01 s
 E :    -50.45799837  G :  0.002076    pred/act E change: -0.652D-05 -0.910D-05
Maxdispl :   0.0412   ||displ|| :   0.0830   Lambda : -0.146D-04
Largest |displ|/coords:  0.0412 (   2)  0.0398 (   3)  0.0264 (   7)
................................................................................
.............................. CYCLE   50 ......................................
................................................................................
   1    -50.7385752 -0.507386E+02  0.501E-02    9.28       0.0  T
   2    -50.7385756 -0.457273E-06  0.379E-02    9.28       1.0  T
   3    -50.7385760 -0.332528E-06  0.387E-03    9.27       5.1  T
   4    -50.7385760 -0.674121E-07  0.169E-03    9.27      11.6  T
   5    -50.7385760 -0.327179E-08  0.377E-04    9.27      52.0  T
   6    -50.7385760 -0.117836E-09  0.225E-04    9.27      87.0  T
speedup  0.89
cpu  time for SCC    0.00 s
wall time for SCC    0.01 s
speedup  1.00
cpu  time for grad    0.01 s
wall time for grad    0.01 s
 E :    -50.45800743  G :  0.001482    pred/act E change: -0.648D-05 -0.906D-05
Maxdispl :   0.0220   ||displ|| :   0.0450   Lambda : -0.772D-05
Largest |displ|/coords:  0.0220 (   3)  0.0199 (   2)  0.0155 (   7)
................................................................................
.............................. CYCLE   51 ......................................
................................................................................
   1    -50.7387181 -0.507387E+02  0.307E-02    9.27       0.0  T
   2    -50.7387183 -0.201022E-06  0.233E-02    9.27       1.0  T
   3    -50.7387185 -0.128487E-06  0.267E-03    9.27       7.3  T
   4    -50.7387185 -0.320605E-07  0.123E-03    9.27      16.0  T
   5    -50.7387185 -0.162712E-08  0.218E-04    9.27      89.8  T
   6    -50.7387185 -0.440394E-10  0.136E-04    9.27     144.4  T
speedup  0.93
cpu  time for SCC    0.00 s
wall time for SCC    0.01 s
speedup  1.01
cpu  time for grad    0.01 s
wall time for grad    0.01 s
 E :    -50.45801263  G :  0.001328    pred/act E change: -0.734D-05 -0.520D-05
Maxdispl :   0.0219   ||displ|| :   0.0380   Lambda : -0.630D-05
Largest |displ|/coords:  0.0219 (   3)  0.0169 (   2)  0.0128 (   7)
................................................................................
.............................. CYCLE   52 ......................................
................................................................................
   1    -50.7388000 -0.507388E+02  0.253E-02    9.27       0.0  T
   2    -50.7388002 -0.160274E-06  0.190E-02    9.27       1.0  T
   3    -50.7388003 -0.602341E-07  0.278E-03    9.27       7.1  T
   4    -50.7388003 -0.295212E-07  0.119E-03    9.27      16.4  T
   5    -50.7388003 -0.112126E-08  0.168E-04    9.27     116.8  T
   6    -50.7388003 -0.404796E-10  0.108E-04    9.27     181.9  T
speedup  1.11
cpu  time for SCC    0.01 s
wall time for SCC    0.01 s
speedup  1.01
cpu  time for grad    0.01 s
wall time for grad    0.01 s
 E :    -50.45801685  G :  0.000957    pred/act E change: -0.387D-05 -0.422D-05
Maxdispl :   0.0389   ||displ|| :   0.0528   Lambda : -0.471D-05
Largest |displ|/coords:  0.0389 (   3)  0.0241 (   2)  0.0165 (   4)

generating ANC from model Hessian ...
 Shifting diagonal of input Hessian by   5.015026050139607E-003
 Lowest  eigenvalues of input Hessian
    0.005000   -0.000000   -0.000000   -0.000000   -0.000000    0.000000
    0.000000    0.005205    0.005460    0.005652    0.006219    0.007282
    0.007385    0.007903    0.008097    0.010139    0.010795    0.011870
 Highest eigenvalues
    1.404572    1.409933    1.510779    2.648150    3.377695    3.638814
 
cpu  time for ANC gen    0.02 s
wall time for ANC gen    0.02 s
................................................................................
.............................. CYCLE   53 ......................................
................................................................................
   1    -50.7385159 -0.507385E+02  0.306E-02    9.27       0.0  T
   2    -50.7385161 -0.162721E-06  0.229E-02    9.27       1.0  T
   3    -50.7385162 -0.110704E-06  0.273E-03    9.27       7.2  T
   4    -50.7385162 -0.245631E-07  0.112E-03    9.27      17.6  T
   5    -50.7385162 -0.117578E-08  0.261E-04    9.27      75.0  T
   6    -50.7385162 -0.980975E-10  0.167E-04    9.27     117.7  T
speedup  1.11
cpu  time for SCC    0.01 s
wall time for SCC    0.01 s
speedup  1.01
cpu  time for grad    0.01 s
wall time for grad    0.01 s
 E :    -50.45801936  G :  0.001267    pred/act E change:  0.000D+00 -0.252D-05
Maxdispl :   0.0111   ||displ|| :   0.0195   Lambda : -0.488D-05
Largest |displ|/coords:  0.0111 (   5)  0.0110 (   2)  0.0045 (  12)
................................................................................
.............................. CYCLE   54 ......................................
................................................................................
   1    -50.7386948 -0.507387E+02  0.159E-02    9.27       0.0  T
   2    -50.7386948 -0.290171E-07  0.120E-02    9.27       1.6  T
   3    -50.7386949 -0.274167E-07  0.102E-03    9.27      19.3  T
   4    -50.7386949 -0.309623E-08  0.341E-04    9.27      57.5  T
   5    -50.7386949 -0.166395E-09  0.115E-04    9.27     169.9  T
speedup  0.89
cpu  time for SCC    0.00 s
wall time for SCC    0.00 s
speedup  1.00
cpu  time for grad    0.01 s
wall time for grad    0.01 s
 E :    -50.45802283  G :  0.000498    pred/act E change:  0.000D+00 -0.347D-05
Maxdispl :   0.0199   ||displ|| :   0.0334   Lambda : -0.524D-05
Largest |displ|/coords:  0.0199 (   2)  0.0138 (   5)  0.0094 (  11)
................................................................................
.............................. CYCLE   55 ......................................
................................................................................
   1    -50.7388648 -0.507389E+02  0.276E-02    9.27       0.0  T
   2    -50.7388649 -0.885190E-07  0.208E-02    9.27       1.0  T
   3    -50.7388650 -0.806001E-07  0.197E-03    9.27      10.0  T
   4    -50.7388650 -0.974423E-08  0.646E-04    9.27      30.3  T
   5    -50.7388650 -0.398444E-09  0.192E-04    9.27     102.3  T
speedup  0.89
cpu  time for SCC    0.00 s
wall time for SCC    0.00 s
speedup  1.00
cpu  time for grad    0.01 s
wall time for grad    0.01 s
 E :    -50.45802644  G :  0.000766    pred/act E change: -0.244D-05 -0.361D-05
Maxdispl :   0.0291   ||displ|| :   0.0445   Lambda : -0.432D-05
Largest |displ|/coords:  0.0291 (   2)  0.0166 (   5)  0.0116 (  16)
................................................................................
.............................. CYCLE   56 ......................................
................................................................................
   1    -50.7387987 -0.507388E+02  0.369E-02    9.27       0.0  T
   2    -50.7387988 -0.181670E-06  0.278E-02    9.27       1.0  T
   3    -50.7387990 -0.156775E-06  0.260E-03    9.27       7.6  T
   4    -50.7387990 -0.226045E-07  0.905E-04    9.27      21.7  T
   5    -50.7387990 -0.965841E-09  0.284E-04    9.27      68.9  T
speedup  0.89
cpu  time for SCC    0.00 s
wall time for SCC    0.00 s
speedup  1.00
cpu  time for grad    0.01 s
wall time for grad    0.01 s
 E :    -50.45802964  G :  0.000751    pred/act E change: -0.262D-05 -0.320D-05
Maxdispl :   0.0375   ||displ|| :   0.0554   Lambda : -0.394D-05
Largest |displ|/coords:  0.0375 (   2)  0.0187 (   5)  0.0147 (  16)
................................................................................
.............................. CYCLE   57 ......................................
................................................................................
   1    -50.7385673 -0.507386E+02  0.445E-02    9.27       0.0  T
   2    -50.7385675 -0.293829E-06  0.335E-02    9.27       1.0  T
   3    -50.7385678 -0.232074E-06  0.321E-03    9.27       6.1  T
   4    -50.7385678 -0.411341E-07  0.106E-03    9.27      18.4  T
   5    -50.7385678 -0.162366E-08  0.377E-04    9.27      52.1  T
   6    -50.7385678 -0.138577E-09  0.208E-04    9.27      94.5  T
speedup  0.94
cpu  time for SCC    0.00 s
wall time for SCC    0.01 s
speedup  0.94
cpu  time for grad    0.01 s
wall time for grad    0.01 s
 E :    -50.45803188  G :  0.000780    pred/act E change: -0.216D-05 -0.224D-05
Maxdispl :   0.0076   ||displ|| :   0.0142   Lambda : -0.160D-05
Largest |displ|/coords:  0.0076 (   2)  0.0049 (   6)  0.0048 (   1)
................................................................................
.............................. CYCLE   58 ......................................
................................................................................
   1    -50.7385567 -0.507386E+02  0.942E-03    9.27       0.0  T
   2    -50.7385567 -0.159746E-07  0.711E-03    9.27       2.8  T
   3    -50.7385567 -0.114247E-07  0.676E-04    9.27      29.0  T
   4    -50.7385567 -0.246548E-08  0.248E-04    9.27      79.2  T
speedup  1.08
cpu  time for SCC    0.00 s
wall time for SCC    0.00 s
speedup  0.98
cpu  time for grad    0.01 s
wall time for grad    0.01 s
 E :    -50.45803308  G :  0.000490    pred/act E change: -0.198D-05 -0.120D-05
Maxdispl :   0.0135   ||displ|| :   0.0237   Lambda : -0.173D-05
Largest |displ|/coords:  0.0135 (   2)  0.0100 (   1)  0.0068 (  12)
................................................................................
.............................. CYCLE   59 ......................................
................................................................................
   1    -50.7385461 -0.507385E+02  0.161E-02    9.27       0.0  T
   2    -50.7385461 -0.322186E-07  0.121E-02    9.27       1.6  T
   3    -50.7385461 -0.247444E-07  0.914E-04    9.27      21.5  T
   4    -50.7385462 -0.469611E-08  0.379E-04    9.27      51.7  T
speedup  1.08
cpu  time for SCC    0.00 s
wall time for SCC    0.00 s
speedup  0.99
cpu  time for grad    0.01 s
wall time for grad    0.01 s
 E :    -50.45803410  G :  0.000268    pred/act E change: -0.798D-06 -0.102D-05
Maxdispl :   0.0066   ||displ|| :   0.0125   Lambda : -0.391D-06
Largest |displ|/coords:  0.0066 (   2)  0.0054 (   1)  0.0038 (   6)
................................................................................
.............................. CYCLE   60 ......................................
................................................................................
   1    -50.7385645 -0.507386E+02  0.827E-03    9.27       0.0  T
   2    -50.7385645 -0.775317E-08  0.622E-03    9.27       3.2  T
   3    -50.7385645 -0.688652E-08  0.469E-04    9.27      41.8  T
   4    -50.7385645 -0.924089E-09  0.186E-04    9.27     105.3  T
speedup  1.11
cpu  time for SCC    0.00 s
wall time for SCC    0.00 s
speedup  1.00
cpu  time for grad    0.01 s
wall time for grad    0.01 s
 E :    -50.45803440  G :  0.000210    pred/act E change: -0.865D-06 -0.291D-06
Maxdispl :   0.0082   ||displ|| :   0.0163   Lambda : -0.420D-06
Largest |displ|/coords:  0.0082 (   1)  0.0072 (   2)  0.0059 (   3)
................................................................................
.............................. CYCLE   61 ......................................
................................................................................
   1    -50.7386072 -0.507386E+02  0.105E-02    9.27       0.0  T
   2    -50.7386072 -0.110645E-07  0.790E-03    9.27       2.5  T
   3    -50.7386072 -0.967745E-08  0.572E-04    9.27      34.3  T
   4    -50.7386072 -0.140609E-08  0.217E-04    9.27      90.3  T
speedup  1.11
cpu  time for SCC    0.00 s
wall time for SCC    0.00 s
speedup  0.99
cpu  time for grad    0.01 s
wall time for grad    0.01 s
 E :    -50.45803468  G :  0.000217    pred/act E change: -0.196D-06 -0.283D-06
Maxdispl :   0.0057   ||displ|| :   0.0114   Lambda : -0.214D-06
Largest |displ|/coords:  0.0057 (   1)  0.0051 (   3)  0.0040 (   4)
................................................................................
.............................. CYCLE   62 ......................................
................................................................................
   1    -50.7386179 -0.507386E+02  0.625E-03    9.27       0.0  T
   2    -50.7386179 -0.430706E-08  0.469E-03    9.27       4.2  T
   3    -50.7386179 -0.410088E-08  0.377E-04    9.27      52.0  T
   4    -50.7386179 -0.496520E-09  0.127E-04    9.27     154.2  T
speedup  1.11
cpu  time for SCC    0.00 s
wall time for SCC    0.00 s
speedup  0.98
cpu  time for grad    0.01 s
wall time for grad    0.01 s
 E :    -50.45803485  G :  0.000206    pred/act E change: -0.210D-06 -0.168D-06
Maxdispl :   0.0107   ||displ|| :   0.0195   Lambda : -0.324D-06
Largest |displ|/coords:  0.0107 (   3)  0.0099 (   1)  0.0067 (   4)
................................................................................
.............................. CYCLE   63 ......................................
................................................................................
   1    -50.7386209 -0.507386E+02  0.994E-03    9.27       0.0  T
   2    -50.7386209 -0.998458E-08  0.747E-03    9.27       2.6  T
   3    -50.7386209 -0.111413E-07  0.555E-04    9.27      35.4  T
   4    -50.7386209 -0.863082E-09  0.187E-04    9.27     104.8  T
speedup  1.08
cpu  time for SCC    0.00 s
wall time for SCC    0.00 s
speedup  0.98
cpu  time for grad    0.01 s
wall time for grad    0.01 s
 E :    -50.45803508  G :  0.000187    pred/act E change: -0.107D-06 -0.231D-06
Maxdispl :   0.0096   ||displ|| :   0.0162   Lambda : -0.218D-06
Largest |displ|/coords:  0.0096 (   3)  0.0079 (   1)  0.0057 (   4)
................................................................................
.............................. CYCLE   64 ......................................
................................................................................
   1    -50.7386003 -0.507386E+02  0.698E-03    9.27       0.0  T
   2    -50.7386003 -0.464848E-08  0.526E-03    9.27       3.7  T
   3    -50.7386003 -0.636946E-08  0.337E-04    9.27      58.2  T
   4    -50.7386003 -0.186844E-09  0.130E-04    9.27     150.4  T
speedup  1.08
cpu  time for SCC    0.00 s
wall time for SCC    0.00 s
speedup  1.06
cpu  time for grad    0.01 s
wall time for grad    0.01 s
 E :    -50.45803524  G :  0.000144    pred/act E change: -0.162D-06 -0.167D-06
Maxdispl :   0.0115   ||displ|| :   0.0177   Lambda : -0.217D-06
Largest |displ|/coords:  0.0115 (   3)  0.0079 (   1)  0.0060 (   4)
................................................................................
.............................. CYCLE   65 ......................................
................................................................................
   1    -50.7385795 -0.507386E+02  0.736E-03    9.27       0.0  T
   2    -50.7385795 -0.628171E-08  0.556E-03    9.27       3.5  T
   3    -50.7385795 -0.839229E-08  0.349E-04    9.27      56.1  T
   4    -50.7385795 -0.288836E-09  0.154E-04    9.27     127.7  T
speedup  1.08
cpu  time for SCC    0.00 s
wall time for SCC    0.00 s
speedup  1.07
cpu  time for grad    0.01 s
wall time for grad    0.01 s
 E :    -50.45803539  G :  0.000132    pred/act E change: -0.109D-06 -0.149D-06
Maxdispl :   0.0058   ||displ|| :   0.0089   Lambda : -0.101D-06
Largest |displ|/coords:  0.0058 (   3)  0.0035 (   1)  0.0028 (   4)
................................................................................
.............................. CYCLE   66 ......................................
................................................................................
   1    -50.7385664 -0.507386E+02  0.316E-03    9.27       0.0  T
   2    -50.7385664 -0.211895E-08  0.238E-03    9.27       8.2  T
   3    -50.7385664 -0.205151E-08  0.256E-04    9.27      76.6  T
   4    -50.7385664 -0.246736E-09  0.877E-05    9.27     223.6  T
speedup  0.79
cpu  time for SCC    0.00 s
wall time for SCC    0.00 s
speedup  0.97
cpu  time for grad    0.01 s
wall time for grad    0.01 s
 E :    -50.45803547  G :  0.000109    pred/act E change: -0.108D-06 -0.741D-07
Maxdispl :   0.0050   ||displ|| :   0.0074   Lambda : -0.707D-07
Largest |displ|/coords:  0.0050 (   3)  0.0026 (   2)  0.0023 (   1)

   *** GEOMETRY OPTIMIZATION CONVERGED AFTER 66 ITERATIONS ***

------------------------------------------------------------------------
 total energy gain (kcal):     -0.0101
------------------------------------------------------------------------
================
 final structure:
================
$coord
        0.63821972561577       -0.21042732031837       -2.02839587495404      S 
       -0.85499882227528       -2.40220179984205       -1.18232592811878      O 
        3.23989835453701       -0.32967331284649       -1.22217823347516      O 
        0.29486634720103        0.20232834129948       -4.73574414336749      O 
       -0.64023176882855        2.13672131268072       -0.75912073398692      O 
        1.37514894446368       -1.96813523189420        5.66033840948131      O 
       -0.07521986961001       -2.80209761630265        6.35134577169639      H 
        5.62173038882339        2.77567676625719        1.97364914605721      O 
        4.94012043449128        1.75584834687469        0.59007794987937      H 
        6.74778481583954        1.69107234280009        2.89115472093392      H 
       -5.48778559481574        3.15982337854590       -1.99452980920061      O 
       -3.78458109790848        2.98459958144381       -1.29415133145551      H 
       -5.60029486525123        4.85532332074991       -2.62311861932136      H 
        0.86633284479591        2.64218903103169        3.68030922679112      O 
        2.63677123273422        3.08504198604714        3.33738279176712      H 
       -0.05223951797899        2.34019620735631        1.12727062960569      H 
        0.94489799653470        0.98024969635692        4.52089413010657      H 
        2.67284979560011       -4.62792799773387        1.59865345906302      O 
        3.98244537344203       -3.64465501392335        0.80137770058760      H 
        1.97856715477771       -3.05304535882765        4.26481020553868      H 
        1.17299988391578       -4.16427228815872        0.62710751172874      H 
       -4.23772628513409       -1.11083990790290       -4.37613063973742      N 
       -2.42434818110055       -0.42379564247998       -5.07472284100618      H 
       -5.23533414238651       -2.18675791648862       -5.60761750291691      H 
       -3.48098563497729       -2.12518631794500       -2.83914079275435      H 
       -5.23888749359408        0.43994541323625       -3.68719524072313      H 
$end
 
 Bond Distances (Angstroems)
 ---------------------------
S1-O2=1.4731         S1-O3=1.4427         S1-O4=1.4606         S1-O5=1.5657         O2-S1=1.4731         O3-S1=1.4427         
O4-S1=1.4606         O5-S1=1.5657         O5-H16=1.0511        O6-H7=0.9579         O6-H20=0.9884        H7-O6=0.9579         
O8-H9=0.9785         O8-H10=0.9593        H9-O8=0.9785         H10-O8=0.9593        O11-H12=0.9789       O11-H13=0.9587       
H12-O11=0.9789       H13-O11=0.9587       O14-H15=0.9826       O14-H17=0.9864       H15-O14=0.9826       H16-O5=1.0511        
H17-O14=0.9864       O18-H19=0.9638       O18-H21=0.9770       H19-O18=0.9638       H20-O6=0.9884        H21-O18=0.9770       
N22-H23=1.0907       N22-H24=1.0137       N22-H25=1.0536       N22-H26=1.0426       H23-N22=1.0907       H24-N22=1.0137       
H25-N22=1.0536       H26-N22=1.0426       
 N  H  Rav=1.0501 sigma=0.0276  Rmin=1.0137  Rmax=1.0907     4
 O  H  Rav=0.9802 sigma=0.0249  Rmin=0.9579  Rmax=1.0511    11
 S  O  Rav=1.4855 sigma=0.0475  Rmin=1.4427  Rmax=1.5657     4
 
 selected bond angles (degree)
 --------------------
O3-S1-O2=112.80                O4-S1-O2=110.43                O4-S1-O3=114.54                O5-S1-O2=105.21                
O5-S1-O3=108.67                O5-S1-O4=104.38                H16-O5-S1=111.15               H20-O6-H7=106.05               
H10-O8-H9=106.12               
 
 selected dihedral angles (degree)
 ---------------------------------
H16-O5-S1-O2= 80.80           H16-O5-S1-O3=319.75           H16-O5-S1-O4=197.11           
 
 CMA Distance (Angstroems)
 ---------------------------
R(CMA):  1.6407

========================================================================
 FINAL SINGLEPOINT CALCULATION ON OPTIMIZED GEOMETRY
========================================================================

 Ncao       : 65
 Nao        : 64
 Nshell     : 38
 Nel        : 80
 T(el)      :   300.0
 intcut     :    25.0
 scfconv/Eh :  0.100E-05
   qconv/e  :  0.100E-03
 intneglect :  0.100E-07
 broydamp   :      0.250
 iter      E             dE          RMSdq      gap      omega  full diag
   1    -50.7385664 -0.507386E+02  0.317E-05    9.27       0.0  T
   2    -50.7385664 -0.113687E-11  0.199E-05    9.27     985.8  T
   3    -50.7385664 -0.532907E-12  0.466E-06    9.27    4209.8  T
speedup  1.07
cpu  time for SCC    0.00 s
wall time for SCC    0.00 s

   *** convergence criteria satisfied after 3 iterations ***

          eigenvalues
 #    :          28         29         30         31         32         33         34         35
 occ. :        2.000      2.000      2.000      2.000      2.000      2.000      2.000      2.000
 eps  :       -13.338    -13.037    -12.693    -12.510    -12.281    -12.188    -11.977    -11.932
 #    :          36         37         38         39         40         41         42         43
 occ. :        2.000      2.000      2.000      2.000      2.000      0.000      0.000      0.000
 eps  :       -11.844    -11.823    -11.799    -11.724    -11.654     -2.385     -0.906     -0.260
 #    :          44         45         46         47         48         49         50         51
 occ. :        0.000      0.000      0.000      0.000      0.000      0.000      0.000      0.000
 eps  :         0.812      1.015      1.501      2.061      2.604      3.619      3.911      4.847


   #   Z            q   n(s)   n(p)   n(d)      C6AA      α(0)
   1  16 S      1.686  1.589  1.783  0.942    89.096    15.887
   2   8 O     -0.774  1.779  4.995  0.000    30.813     7.442
   3   8 O     -0.726  1.758  4.969  0.000    29.435     7.274
   4   8 O     -0.727  1.771  4.956  0.000    29.423     7.273
   5   8 O     -0.683  1.775  4.908  0.000    27.230     7.044
   6   8 O     -0.618  1.749  4.869  0.000    25.629     6.833
   7   1 H      0.281  0.719  0.000  0.000     0.780     1.387
   8   8 O     -0.605  1.746  4.859  0.000    25.312     6.790
   9   1 H      0.325  0.675  0.000  0.000     0.650     1.267
  10   1 H      0.288  0.712  0.000  0.000     0.759     1.368
  11   8 O     -0.602  1.738  4.865  0.000    25.240     6.781
  12   1 H      0.330  0.670  0.000  0.000     0.638     1.255
  13   1 H      0.293  0.707  0.000  0.000     0.744     1.355
  14   8 O     -0.617  1.765  4.853  0.000    25.578     6.827
  15   1 H      0.336  0.664  0.000  0.000     0.623     1.240
  16   1 H      0.387  0.613  0.000  0.000     0.504     1.113
  17   1 H      0.338  0.662  0.000  0.000     0.617     1.234
  18   8 O     -0.609  1.745  4.864  0.000    25.392     6.801
  19   1 H      0.300  0.700  0.000  0.000     0.720     1.333
  20   1 H      0.330  0.670  0.000  0.000     0.638     1.255
  21   1 H      0.315  0.685  0.000  0.000     0.679     1.294
  22   7 N     -0.356  1.269  4.087  0.000    29.151     8.019
  23   1 H      0.303  0.697  0.000  0.000     0.703     1.313
  24   1 H      0.235  0.765  0.000  0.000     0.945     1.522
  25   1 H      0.286  0.714  0.000  0.000     0.758     1.364
  26   1 H      0.286  0.714  0.000  0.000     0.757     1.363

 Mol. C6AA /au·bohr⁶  :       5455.333536
 Mol. C8AA /au·bohr⁸  :     118079.792534
 Mol. α(0) /au        :        106.634477

 
 Wiberg/Mayer (AO) data. WBOs > 0.1 written file <wbo>
 largest (>0.05) Wiberg bond orders for each atom
           total WBO             WBO to atom ...
     1  S   4.838    O    3 1.354    O    4 1.277    O    2 1.230    O    5 0.938
     2  O   1.707    S    1 1.230    O    4 0.103    O    3 0.102    H   25 0.082    O    5 0.078    H   21 0.051
     3  O   1.734    S    1 1.354    O    2 0.102    O    4 0.099    O    5 0.082
     4  O   1.773    S    1 1.277    H   23 0.152    O    2 0.103    O    3 0.099    O    5 0.066    N   22 0.061
     5  O   1.921    S    1 0.938    H   16 0.626    O    3 0.082    O    2 0.078    O    4 0.066    O   14 0.062
     6  O   1.867    H    7 0.917    H   20 0.812    H   17 0.069
     7  H   0.921    O    6 0.917
     8  O   1.872    H   10 0.915    H    9 0.842    H   15 0.059
     9  H   0.894    O    8 0.842
    10  H   0.917    O    8 0.915
    11  O   1.886    H   13 0.909    H   12 0.841    H   26 0.073
    12  H   0.891    O   11 0.841
    13  H   0.914    O   11 0.909
    14  O   1.983    H   15 0.827    H   17 0.814    H   16 0.207    O    5 0.062
    15  H   0.887    O   14 0.827    O    8 0.059
    16  H   0.850    O    5 0.626    O   14 0.207
    17  H   0.886    O   14 0.814    O    6 0.069
    18  O   1.889    H   19 0.894    H   21 0.846    H   20 0.078
    19  H   0.910    O   18 0.894
    20  H   0.891    O    6 0.812    O   18 0.078
    21  H   0.901    O   18 0.846    O    2 0.051
    22  N   3.508    H   24 0.940    H   26 0.841    H   25 0.827    H   23 0.745    O    4 0.061
    23  H   0.908    N   22 0.745    O    4 0.152
    24  H   0.945    N   22 0.940
    25  H   0.918    N   22 0.827    O    2 0.082
    26  H   0.918    N   22 0.841    O   11 0.073
 MOs/occ written to file <molden.input>
 
molecular dipole:
                 x           y           z       tot (Debye)
 q only:       -2.406      -0.234      -1.009
   full:       -2.136      -0.365      -1.173       6.263
molecular quadrupole (traceless):
                xx          xy          yy          xz          yz          zz
 q only:        7.047       1.510      -7.999      16.445       1.015       0.952
  q+dip:        7.296       0.586      -7.882      14.851      -0.828       0.586
   full:        7.464       0.638      -7.907      15.160      -0.880       0.443

SCC energy    :     -50.7385664
rep           :       0.2803086
ES            :       0.2662198
AES           :      -0.0730127
AXC           :      -0.0092660
disp          :      -0.0189228
XB            :       0.0000000
fix           :       0.0000000
total E       :     -50.4580355
atomizationE  :       4.9883396     3130.23
(atE without considering molecular charge,
 total energy contains solvation terms)
H-L gap (eV)  :          9.2684
optimized geometry written to: xtbopt.xyz


------------------------------------------------------------------------
 * finished run on 2019/09/16 at 12:44:03.831     
------------------------------------------------------------------------
 total:
 * wall-time:     0 d,  0 h,  0 min,  2.018 sec
 *  cpu-time:     0 d,  0 h,  0 min,  1.580 sec
 * ratio c/w:     0.783 speedup
 SCF:
 * wall-time:     0 d,  0 h,  0 min,  0.136 sec
 *  cpu-time:     0 d,  0 h,  0 min,  0.132 sec
 * ratio c/w:     0.974 speedup
 ANC optimizer:
 * wall-time:     0 d,  0 h,  0 min,  1.859 sec
 *  cpu-time:     0 d,  0 h,  0 min,  1.427 sec
 * ratio c/w:     0.768 speedup

