      -----------------------------------------------------------      
     |                   =====================                   |     
     |                           x T B                           |     
     |                   =====================                   |     
     |                         S. Grimme                         |     
     |          Mulliken Center for Theoretical Chemistry        |     
     |                    University of Bonn                     |     
     |                 Version 6.0.1 (SAW181210)                 |     
      -----------------------------------------------------------      

   This program is distributed in the hope that it will be useful,
   but WITHOUT ANY WARRANTY; without even the implied warranty of
   MERCHANTABILITY or FITNESS FOR A PARTICULAR PURPOSE.
   
   FOR NON-COMMERCIAL, ACADEMIA USE ONLY.
   
   Cite this work as:
   S. Grimme, C. Bannwarth, P. Shushkov, J. Comput. Theory Chem., 2017,
   13, 1989-2009.
   C. Bannwarth, S. Ehlert and S. Grimme., ChemRxiv, 2018, preprint.
   http://doi.org/10.26434/chemrxiv.7246238.v1
   
   for sTDA-xTB:
   S. Grimme and C. Bannwarth, J. Chem. Phys., 2016, 145, 054103.
   
   in the mass-spec context:
   V. Asgeirsson, C. Bauer and S. Grimme, Chem. Sci., 2017, 8, 4879.
   
   if GBSA is used:
   P. Shushkov, F. März and S. Grimme, unpublished.
   
   for ANC optimizer:
   S. Grimme, unpublished.
   Rational Function algorithm used in ANCopt:
   F. Eckert, P. Pulay, H.-J. Werner, J. Comput. Chem., 1997, 18, 1473.
   
   with help from (in alphabetical order)
   C. Bannwarth, F. Bohle, G. Brandenburg, E. Caldeweyher, M. Checinski,
   S. Dohm, S. Ehlert, S. Ehrlich, F. März, H. Neugebauer, J. Pisarek,
   P. Pracht, P. Shushkov, and S. Spicher.
   
 * started run on 2019/09/16 at 12:46:27.905     
========================================================================
 # omp threads = 1
========================================================================
number of atoms            : 26
number of electrons        : 80
charge                     : 0
spin                       : .0
first test random number   : .2539

########################################################################
# WARNING! Please study the warnings concerning your input carefully
#  - XTBPATH is not set, using XTBHOME instead
#  - the use of '-opt' is discouraged, please use '--opt' next time
#  - the use of '-chrg' is discouraged, please use '--chrg' next time
#  - the use of '-uhf' is discouraged, please use '--uhf' next time
########################################################################

           ------------------------------------------------- 
          |                 G F N 2 - x T B                 |
          | Geometry, Frequencies, Noncovalent interactions |
          |            JCTC 2018 parametrisation            |
           ------------------------------------------------- 
      method parameters     
 k(s)        :  1.8500
 k(p)        :  2.2300
 k(d)        :  2.2300
 k(f)        :  2.0000
 kEN (H0ij)  : -2.0000
 D4 a1       :  0.5200
 D4 a2       :  5.0000
 D4 s6       :  1.0000
 D4 s8       :  2.7000
 D4 s9       :  5.0000
 alphaj      :  2.0000


            Z     q(EN)     CN     RAES       Cart. coordinates
     1  S   6.0    0.61    4.52    4.59    -3.19402    -1.01991    -4.44056
     2  O   6.0   -0.30    1.19    1.80    -2.75445    -3.31529    -2.87017
     3  O   6.0   -0.30    1.17    1.80    -0.94570     0.66803    -4.28554
     4  O   6.0   -0.27    2.12    1.84    -5.43164     0.33007    -3.50080
     5  O   6.0   -0.25    2.08    1.84    -3.60751    -1.77076    -7.08210
     6  H   1.0    0.14    1.22    1.47    -5.24912    -1.21625    -7.61941
     7  H   1.0    0.18    1.36    1.52    -5.16236     0.82094    -1.77522
     8  O   6.0   -0.41    1.71    1.81     2.17595    -0.99828     2.80177
     9  H   1.0    0.16    0.95    1.42     3.45381    -2.23215     3.37485
    10  O   6.0   -0.39    1.64    1.81    -4.06968     1.28808     0.88425
    11  H   1.0    0.18    0.95    1.42    -5.26447     2.29727     1.90295
    12  O   6.0   -0.28    1.95    1.82     4.75451     2.23272     5.09228
    13  H   1.0    0.17    1.12    1.45     3.80124     0.97015     4.19128
    14  H   1.0    0.14    0.97    1.43     4.14971     2.15929     6.80792
    15  O   6.0   -0.23    2.94    2.63    -1.99078    -2.62243     1.99667
    16  H   1.0    0.15    1.02    1.43    -2.01758    -3.60767     0.40971
    17  H   1.0    0.16    1.19    1.46    -0.25073    -2.20041     2.52973
    18  H   1.0    0.16    1.16    1.46    -3.07815    -1.10614     1.89679
    19  O   6.0   -0.22    2.94    2.62     0.35016     2.36936     0.26775
    20  H   1.0    0.15    1.16    1.46     1.35572     1.22887     1.35310
    21  H   1.0    0.15    1.00    1.43     0.70954     2.10679    -1.54661
    22  H   1.0    0.16    1.16    1.46    -1.47735     2.25886     0.64125
    23  N   5.0   -0.20    2.94    1.92     5.67883     0.53400    -0.72026
    24  H   1.0    0.12    1.05    1.44     4.47950    -0.38256     0.47665
    25  H   1.0    0.11    0.99    1.43     6.49796     1.92847     0.32642
    26  H   1.0    0.10    0.99    1.43     7.08662    -0.72107    -1.11269

  Z AO/shell   Hii/eV     exponent
  1     Wed Apr 25 08:07:45 CEST 2018   EN: 2.200 GM2: 0.406  GM3: 0.0800  RAES: 1.40
     1s    -10.707211    1.230000
  7     Wed Apr 25 08:07:45 CEST 2018   EN: 3.040 GM2: 0.461  GM3:-0.0640  RAES: 1.90
     2s    -16.686243    2.339881
     2p    -12.523956    2.014332
  8     Wed Apr 25 08:07:45 CEST 2018   EN: 3.440 GM2: 0.452  GM3:-0.0517  RAES: 1.80
     2s    -20.229985    2.439742
     2p    -15.503117    2.137023
 16     Tue Apr 24 11:44:34 CEST 2018   EN: 2.580 GM2: 0.340  GM3:-0.0502  RAES: 3.10
     3s    -20.029654    1.981333
     3p    -11.377694    2.025643
     3d     -0.420282    1.702555
 no old-style atom pair restraining (fixing) potential

molecular fragmentation (1/2 indicates fragments):
11111112222222222222222222
# atoms in fragment 1/2:     7    19
 fragment masses (1/2) :       98.07      107.11
CMA distance (Bohr)    :   7.700
constraining FC (au)   :  0.0500
           ------------------------------------------------- 
          |        Self-Consistent Charge Iterations        |
           ------------------------------------------------- 

 Ncao       : 65
 Nao        : 64
 Nshell     : 38
 Nel        : 80
 T(el)      :   300.0
 intcut     :    25.0
 scfconv/Eh :  0.100E-05
   qconv/e  :  0.100E-03
 intneglect :  0.100E-07
 broydamp   :      0.250
 iter      E             dE          RMSdq      gap      omega  full diag
   1    -50.4963881 -0.504964E+02  0.711E+00   10.08       0.0  T
   2    -50.5598356 -0.634475E-01  0.513E+00    8.67       1.0  T
   3    -50.6010309 -0.411953E-01  0.150E+00    5.90       1.0  T
   4    -50.6084337 -0.740285E-02  0.602E-01    6.22       1.0  T
   5    -50.6089921 -0.558386E-03  0.382E-01    6.02       1.0  T
   6    -50.6097476 -0.755472E-03  0.166E-01    6.04       1.0  T
   7    -50.6099256 -0.178003E-03  0.661E-02    6.06       1.0  T
   8    -50.6099483 -0.226815E-04  0.398E-02    6.06       1.0  T
   9    -50.6099591 -0.108264E-04  0.146E-02    6.08       1.3  T
  10    -50.6099606 -0.147998E-05  0.287E-03    6.08       6.8  T
  11    -50.6099606 -0.322425E-07  0.137E-03    6.08      14.3  T
  12    -50.6099606 -0.753677E-08  0.594E-04    6.08      33.0  T
  13    -50.6099606 -0.150493E-08  0.173E-04    6.08     113.6  T
speedup  1.03
cpu  time for SCC    0.02 s
wall time for SCC    0.02 s

   *** convergence criteria satisfied after 13 iterations ***

          eigenvalues
 #    :          28         29         30         31         32         33         34         35
 occ. :        2.000      2.000      2.000      2.000      2.000      2.000      2.000      2.000
 eps  :       -12.891    -12.739    -12.518    -12.459    -12.438    -12.247    -12.109    -11.048
 #    :          36         37         38         39         40         41         42         43
 occ. :        2.000      2.000      2.000      2.000      2.000      0.000      0.000      0.000
 eps  :       -10.991    -10.490    -10.210     -9.977     -9.260     -3.181     -1.882     -0.754
 #    :          44         45         46         47         48         49         50         51
 occ. :        0.000      0.000      0.000      0.000      0.000      0.000      0.000      0.000
 eps  :        -0.424      0.013      1.857      2.495      3.386      3.779      4.238      5.018


   #   Z            q   n(s)   n(p)   n(d)      C6AA      α(0)
   1  16 S      1.707  1.574  1.777  0.942    88.604    15.843
   2   8 O     -0.719  1.766  4.952  0.000    29.218     7.247
   3   8 O     -0.708  1.768  4.939  0.000    28.918     7.210
   4   8 O     -0.600  1.723  4.877  0.000    25.151     6.770
   5   8 O     -0.531  1.718  4.813  0.000    23.575     6.555
   6   1 H      0.380  0.620  0.000  0.000     0.516     1.124
   7   1 H      0.415  0.585  0.000  0.000     0.451     1.051
   8   8 O     -0.866  1.828  5.038  0.000    33.625     7.776
   9   1 H      0.224  0.776  0.000  0.000     1.004     1.574
  10   8 O     -0.865  1.837  5.029  0.000    33.615     7.774
  11   1 H      0.221  0.779  0.000  0.000     1.018     1.585
  12   8 O     -0.650  1.761  4.888  0.000    26.411     6.936
  13   1 H      0.321  0.679  0.000  0.000     0.659     1.275
  14   1 H      0.250  0.750  0.000  0.000     0.892     1.483
  15   8 O     -0.472  1.664  4.809  0.000    22.249     6.371
  16   1 H      0.381  0.619  0.000  0.000     0.522     1.135
  17   1 H      0.397  0.603  0.000  0.000     0.484     1.090
  18   1 H      0.395  0.605  0.000  0.000     0.491     1.099
  19   8 O     -0.457  1.660  4.797  0.000    21.931     6.325
  20   1 H      0.427  0.573  0.000  0.000     0.434     1.033
  21   1 H      0.394  0.606  0.000  0.000     0.496     1.106
  22   1 H      0.395  0.605  0.000  0.000     0.491     1.099
  23   7 N     -0.485  1.420  4.066  0.000    32.876     8.515
  24   1 H      0.185  0.815  0.000  0.000     1.186     1.706
  25   1 H      0.145  0.855  0.000  0.000     1.435     1.876
  26   1 H      0.117  0.883  0.000  0.000     1.648     2.011

 Mol. C6AA /au·bohr⁶  :       5550.575162
 Mol. C8AA /au·bohr⁸  :     119806.978342
 Mol. α(0) /au        :        107.568264

 
 Wiberg/Mayer (AO) data. WBOs > 0.1 written file <wbo>
 largest (>0.05) Wiberg bond orders for each atom
           total WBO             WBO to atom ...
     1  S   4.814    O    3 1.350    O    2 1.332    O    4 1.065    O    5 1.026
     2  O   1.701    S    1 1.332    O    3 0.137    O    4 0.093    O    5 0.072
     3  O   1.708    S    1 1.350    O    2 0.137    O    4 0.094    O    5 0.073
     4  O   2.006    S    1 1.065    H    7 0.653    O    3 0.094    O    2 0.093
     5  O   2.063    S    1 1.026    H    6 0.832    O    3 0.073    O    2 0.072
     6  H   0.855    O    5 0.832
     7  H   0.828    O    4 0.653    O   10 0.154
     8  O   1.577    H    9 0.920    H   17 0.195    H   20 0.123    H   13 0.101    O   15 0.061
     9  H   0.950    O    8 0.920
    10  O   1.608    H   11 0.942    H   22 0.168    H   18 0.166    H    7 0.154    O   19 0.056    O   15 0.055
    11  H   0.951    O   10 0.942
    12  O   1.779    H   14 0.936    H   13 0.787
    13  H   0.897    O   12 0.787    O    8 0.101
    14  H   0.937    O   12 0.936
    15  O   2.267    H   16 0.803    H   18 0.673    H   17 0.639    O    8 0.061    O   10 0.055
    16  H   0.855    O   15 0.803
    17  H   0.842    O   15 0.639    O    8 0.195
    18  H   0.844    O   15 0.673    O   10 0.166
    19  O   2.285    H   21 0.803    H   20 0.678    H   22 0.673    O   10 0.056
    20  H   0.817    O   19 0.678    O    8 0.123
    21  H   0.845    O   19 0.803
    22  H   0.844    O   19 0.673    O   10 0.168
    23  N   2.915    H   26 0.984    H   25 0.976    H   24 0.907
    24  H   0.966    N   23 0.907
    25  H   0.979    N   23 0.976
    26  H   0.986    N   23 0.984
 MOs/occ written to file <molden.input>
 
molecular dipole:
                 x           y           z       tot (Debye)
 q only:       -2.528      -0.468      -1.107
   full:       -2.910      -0.752      -1.039       8.083
molecular quadrupole (traceless):
                xx          xy          yy          xz          yz          zz
 q only:       -2.660      -4.131      -3.896       7.577      -4.362       6.556
  q+dip:        1.855      -9.033     -10.272      14.843      -4.116       8.418
   full:        2.018      -9.350     -10.721      14.786      -3.504       8.703

SCC energy    :     -50.6099606
rep           :       0.2893083
ES            :       0.2927389
AES           :      -0.0540391
AXC           :      -0.0055944
disp          :      -0.0179486
XB            :       0.0000000
fix           :       0.0000000
total E       :     -50.3204589
atomizationE  :       4.8507630     3043.90
(atE without considering molecular charge,
 total energy contains solvation terms)
H-L gap (eV)  :          6.0792
           ------------------------------------------------- 
          |                 ===============                 |
          |                   A N C O P T                   |
          |                 ===============                 |
          |          Approximate Normal Coordinate          |
          |           Rational Function Optimizer           |
           ------------------------------------------------- 
dumping coords to <xtbopt.coord> and <xtbopt.log>
 optlevel               2
 Maxcycle             520
 Maxmicro              25
 Econv         1.000000000000000E-007
 Gconv         2.000000000000000E-004
 Maxdispl       1.00000000000000     
 Hlow          5.000000000000000E-003
 S6             20.0000000000000     
 Nvar               72

generating ANC from model Hessian ...
 Shifting diagonal of input Hessian by   6.793102251041449E-003
 Lowest  eigenvalues of input Hessian
    0.005000    0.006697    0.006785   -0.000000   -0.000000   -0.000000
    0.000000    0.000000    0.000000    0.007225    0.007644    0.007872
    0.007965    0.008300    0.009125    0.009220    0.010466    0.010866
 Highest eigenvalues
    1.567671    1.592823    1.597382    3.212978    3.414082    3.464836
 
cpu  time for ANC gen    0.02 s
wall time for ANC gen    0.02 s
................................................................................
.............................. CYCLE    1 ......................................
................................................................................
   1    -50.6099606 -0.506100E+02  0.624E-05    6.08       0.0  T
   2    -50.6099606 -0.102105E-10  0.481E-05    6.08     408.1  T
   3    -50.6099606 -0.731859E-11  0.235E-05    6.08     834.1  T
speedup  1.00
cpu  time for SCC    0.00 s
wall time for SCC    0.00 s
speedup  0.88
cpu  time for grad    0.01 s
wall time for grad    0.01 s
 E :    -50.32045885  G :  0.255847    pred/act E change:  0.000D+00  0.370D-07
Maxdispl :   0.1146   ||displ|| :   0.2975   Lambda : -0.427D-01
Largest |displ|/coords:  0.1146 (  23)  0.0915 (  54)  0.0875 (  22)
................................................................................
.............................. CYCLE    2 ......................................
................................................................................
   1    -50.6270896 -0.506271E+02  0.314E-01    6.13       0.0  T
   2    -50.6273770 -0.287435E-03  0.242E-01    6.18       1.0  T
   3    -50.6274959 -0.118926E-03  0.104E-01    6.27       1.0  T
   4    -50.6275098 -0.138154E-04  0.278E-02    6.29       1.0  T
   5    -50.6275110 -0.123976E-05  0.577E-03    6.29       3.4  T
   6    -50.6275111 -0.659720E-07  0.327E-03    6.29       6.0  T
speedup  1.07
cpu  time for SCC    0.01 s
wall time for SCC    0.01 s
speedup  0.98
cpu  time for grad    0.01 s
wall time for grad    0.01 s
 E :    -50.35390573  G :  0.159168    pred/act E change:  0.000D+00 -0.334D-01
Maxdispl :   0.0838   ||displ|| :   0.2814   Lambda : -0.202D-01
Largest |displ|/coords:  0.0838 (  23)  0.0787 (  29)  0.0766 (  10)
................................................................................
.............................. CYCLE    3 ......................................
................................................................................
   1    -50.6368390 -0.506368E+02  0.254E-01    6.28       0.0  T
   2    -50.6371555 -0.316505E-03  0.193E-01    6.33       1.0  T
   3    -50.6372764 -0.120901E-03  0.103E-01    6.40       1.0  T
   4    -50.6372828 -0.637313E-05  0.247E-02    6.43       1.0  T
   5    -50.6372839 -0.108347E-05  0.531E-03    6.44       3.7  T
   6    -50.6372839 -0.492393E-07  0.289E-03    6.44       6.8  T
speedup  1.03
cpu  time for SCC    0.01 s
wall time for SCC    0.01 s
speedup  0.96
cpu  time for grad    0.01 s
wall time for grad    0.01 s
 E :    -50.37026148  G :  0.099701    pred/act E change: -0.232D-01 -0.164D-01
Maxdispl :   0.1115   ||displ|| :   0.3028   Lambda : -0.109D-01
Largest |displ|/coords:  0.1115 (  10)  0.0986 (  12)  0.0775 (  20)
................................................................................
.............................. CYCLE    4 ......................................
................................................................................
   1    -50.6421605 -0.506422E+02  0.235E-01    6.37       0.0  T
   2    -50.6424483 -0.287814E-03  0.173E-01    6.42       1.0  T
   3    -50.6425603 -0.111994E-03  0.885E-02    6.50       1.0  T
   4    -50.6425662 -0.592045E-05  0.226E-02    6.53       1.0  T
   5    -50.6425672 -0.102064E-05  0.531E-03    6.53       3.7  T
   6    -50.6425673 -0.473954E-07  0.287E-03    6.53       6.8  T
speedup  0.86
cpu  time for SCC    0.00 s
wall time for SCC    0.01 s
speedup  0.96
cpu  time for grad    0.01 s
wall time for grad    0.01 s
 E :    -50.37930289  G :  0.065485    pred/act E change: -0.109D-01 -0.904D-02
Maxdispl :   0.1062   ||displ|| :   0.2897   Lambda : -0.653D-02
Largest |displ|/coords:  0.1062 (  20)  0.1029 (  10)  0.0977 (  12)
................................................................................
.............................. CYCLE    5 ......................................
................................................................................
   1    -50.6455547 -0.506456E+02  0.215E-01    6.44       0.0  T
   2    -50.6457664 -0.211687E-03  0.155E-01    6.49       1.0  T
   3    -50.6458540 -0.876230E-04  0.701E-02    6.56       1.0  T
   4    -50.6458603 -0.629085E-05  0.197E-02    6.59       1.0  T
   5    -50.6458612 -0.881255E-06  0.503E-03    6.59       3.9  T
   6    -50.6458612 -0.416941E-07  0.275E-03    6.59       7.1  T
speedup  1.03
cpu  time for SCC    0.01 s
wall time for SCC    0.01 s
speedup  1.03
cpu  time for grad    0.01 s
wall time for grad    0.01 s
 E :    -50.38496787  G :  0.052944    pred/act E change: -0.596D-02 -0.566D-02
Maxdispl :   0.1142   ||displ|| :   0.2697   Lambda : -0.488D-02
Largest |displ|/coords:  0.1142 (  20)  0.0937 (  10)  0.0752 (  12)
................................................................................
.............................. CYCLE    6 ......................................
................................................................................
   1    -50.6496850 -0.506497E+02  0.174E-01    6.49       0.0  T
   2    -50.6498304 -0.145359E-03  0.124E-01    6.54       1.0  T
   3    -50.6498943 -0.639454E-04  0.552E-02    6.61       1.0  T
   4    -50.6498992 -0.493562E-05  0.160E-02    6.63       1.2  T
   5    -50.6498999 -0.631464E-06  0.472E-03    6.64       4.2  T
   6    -50.6498999 -0.353454E-07  0.250E-03    6.64       7.8  T
speedup  1.02
cpu  time for SCC    0.01 s
wall time for SCC    0.01 s
speedup  1.03
cpu  time for grad    0.01 s
wall time for grad    0.01 s
 E :    -50.38945339  G :  0.050361    pred/act E change: -0.354D-02 -0.449D-02
Maxdispl :   0.1334   ||displ|| :   0.2717   Lambda : -0.471D-02
Largest |displ|/coords:  0.1334 (  20)  0.0754 (  10)  0.0656 (   3)
................................................................................
.............................. CYCLE    7 ......................................
................................................................................
   1    -50.6542108 -0.506542E+02  0.189E-01    6.56       0.0  T
   2    -50.6543599 -0.149134E-03  0.135E-01    6.60       1.0  T
   3    -50.6544298 -0.698401E-04  0.565E-02    6.68       1.0  T
   4    -50.6544362 -0.643555E-05  0.165E-02    6.70       1.2  T
   5    -50.6544370 -0.735073E-06  0.520E-03    6.70       3.8  T
   6    -50.6544370 -0.380516E-07  0.284E-03    6.70       6.9  T
speedup  1.03
cpu  time for SCC    0.01 s
wall time for SCC    0.01 s
speedup  1.01
cpu  time for grad    0.01 s
wall time for grad    0.01 s
 E :    -50.39391726  G :  0.050897    pred/act E change: -0.262D-02 -0.446D-02
Maxdispl :   0.1396   ||displ|| :   0.2878   Lambda : -0.540D-02
Largest |displ|/coords:  0.1396 (  20)  0.0839 (  10)  0.0761 (  15)
................................................................................
.............................. CYCLE    8 ......................................
................................................................................
   1    -50.6627665 -0.506628E+02  0.184E-01    6.63       0.0  T
   2    -50.6629082 -0.141687E-03  0.133E-01    6.68       1.0  T
   3    -50.6629785 -0.703150E-04  0.584E-02    6.76       1.0  T
   4    -50.6629856 -0.706593E-05  0.179E-02    6.78       1.1  T
   5    -50.6629865 -0.872331E-06  0.587E-03    6.78       3.3  T
   6    -50.6629865 -0.418013E-07  0.297E-03    6.78       6.6  T
speedup  0.85
cpu  time for SCC    0.00 s
wall time for SCC    0.01 s
speedup  0.95
cpu  time for grad    0.01 s
wall time for grad    0.01 s
 E :    -50.39891995  G :  0.048065    pred/act E change: -0.253D-02 -0.500D-02
Maxdispl :   0.3769   ||displ|| :   0.6787   Lambda : -0.151D-01
Largest |displ|/coords:  0.3769 (  20)  0.1928 (  69)  0.1761 (  23)
................................................................................
.............................. CYCLE    9 ......................................
................................................................................
   1    -50.6880721 -0.506881E+02  0.546E-01    6.71       0.0  T
   2    -50.6890267 -0.954549E-03  0.399E-01    6.80       1.0  T
   3    -50.6895550 -0.528375E-03  0.160E-01    6.97       1.0  T
   4    -50.6896135 -0.584510E-04  0.541E-02    7.01       1.0  T
   5    -50.6896209 -0.738352E-05  0.167E-02    7.01       1.2  T
   6    -50.6896211 -0.272394E-06  0.972E-03    7.01       2.0  T
   7    -50.6896212 -0.745482E-07  0.194E-03    7.01      10.1  T
   8    -50.6896212 -0.783932E-08  0.489E-04    7.01      40.1  T
speedup  0.91
cpu  time for SCC    0.01 s
wall time for SCC    0.01 s
speedup  0.97
cpu  time for grad    0.01 s
wall time for grad    0.02 s
 E :    -50.40487852  G :  0.087224    pred/act E change: -0.292D-02 -0.596D-02
Maxdispl :   0.1338   ||displ|| :   0.3755   Lambda : -0.177D-01
Largest |displ|/coords:  0.1338 (  30)  0.1263 (  26)  0.1252 (  15)
................................................................................
.............................. CYCLE   10 ......................................
................................................................................
   1    -50.6760497 -0.506760E+02  0.393E-01    6.95       0.0  T
   2    -50.6765855 -0.535766E-03  0.285E-01    6.94       1.0  T
   3    -50.6769056 -0.320044E-03  0.114E-01    6.91       1.0  T
   4    -50.6769456 -0.400593E-04  0.325E-02    6.90       1.0  T
   5    -50.6769474 -0.178690E-05  0.121E-02    6.90       1.6  T
   6    -50.6769476 -0.239222E-06  0.594E-03    6.91       3.3  T
   7    -50.6769477 -0.427853E-07  0.154E-03    6.91      12.7  T
speedup  1.04
cpu  time for SCC    0.01 s
wall time for SCC    0.01 s
speedup  1.03
cpu  time for grad    0.01 s
wall time for grad    0.01 s
 E :    -50.40534721  G :  0.072265    pred/act E change: -0.110D-01 -0.469D-03
Maxdispl :   0.1471   ||displ|| :   0.4123   Lambda : -0.125D-01
Largest |displ|/coords:  0.1471 (  20)  0.1434 (  25)  0.1400 (  23)
................................................................................
.............................. CYCLE   11 ......................................
................................................................................
   1    -50.6808326 -0.506808E+02  0.430E-01    6.98       0.0  T
   2    -50.6813247 -0.492181E-03  0.313E-01    7.01       1.0  T
   3    -50.6816034 -0.278622E-03  0.114E-01    7.08       1.0  T
   4    -50.6816383 -0.349389E-04  0.311E-02    7.09       1.0  T
   5    -50.6816405 -0.223185E-05  0.114E-02    7.09       1.7  T
   6    -50.6816407 -0.144096E-06  0.645E-03    7.09       3.0  T
   7    -50.6816407 -0.386176E-07  0.128E-03    7.09      15.3  T
   8    -50.6816407 -0.352635E-08  0.300E-04    7.09      65.3  T
speedup  1.04
cpu  time for SCC    0.01 s
wall time for SCC    0.01 s
speedup  0.97
cpu  time for grad    0.01 s
wall time for grad    0.02 s
 E :    -50.41038632  G :  0.056641    pred/act E change: -0.101D-01 -0.504D-02
Maxdispl :   0.1316   ||displ|| :   0.3526   Lambda : -0.667D-02
Largest |displ|/coords:  0.1316 (  15)  0.1122 (   6)  0.1102 (   9)
................................................................................
.............................. CYCLE   12 ......................................
................................................................................
   1    -50.6970586 -0.506971E+02  0.381E-01    7.12       0.0  T
   2    -50.6971754 -0.116857E-03  0.285E-01    7.13       1.0  T
   3    -50.6972586 -0.831409E-04  0.596E-02    7.17       1.0  T
   4    -50.6972722 -0.136429E-04  0.127E-02    7.17       1.5  T
   5    -50.6972724 -0.221555E-06  0.656E-03    7.17       3.0  T
   6    -50.6972725 -0.282348E-07  0.279E-03    7.17       7.0  T
   7    -50.6972725 -0.159122E-07  0.614E-04    7.16      31.9  T
speedup  1.01
cpu  time for SCC    0.01 s
wall time for SCC    0.01 s
speedup  1.03
cpu  time for grad    0.01 s
wall time for grad    0.01 s
 E :    -50.41155604  G :  0.062568    pred/act E change: -0.729D-02 -0.117D-02
Maxdispl :   0.1164   ||displ|| :   0.3134   Lambda : -0.562D-02
Largest |displ|/coords:  0.1164 (  20)  0.1056 (   3)  0.0994 (   4)
................................................................................
.............................. CYCLE   13 ......................................
................................................................................
   1    -50.6837000 -0.506837E+02  0.300E-01    7.17       0.0  T
   2    -50.6837808 -0.807650E-04  0.221E-01    7.18       1.0  T
   3    -50.6838274 -0.466697E-04  0.493E-02    7.20       1.0  T
   4    -50.6838364 -0.899704E-05  0.961E-03    7.20       2.0  T
   5    -50.6838366 -0.119201E-06  0.487E-03    7.20       4.0  T
   6    -50.6838366 -0.353786E-07  0.234E-03    7.20       8.4  T
speedup  0.88
cpu  time for SCC    0.00 s
wall time for SCC    0.01 s
speedup  0.97
cpu  time for grad    0.01 s
wall time for grad    0.01 s
 E :    -50.41356958  G :  0.042674    pred/act E change: -0.375D-02 -0.201D-02
Maxdispl :   0.0822   ||displ|| :   0.2318   Lambda : -0.253D-02
Largest |displ|/coords:  0.0822 (   1)  0.0740 (  16)  0.0645 (  14)
................................................................................
.............................. CYCLE   14 ......................................
................................................................................
   1    -50.6929710 -0.506930E+02  0.135E-01    7.27       0.0  T
   2    -50.6929992 -0.281986E-04  0.101E-01    7.27       1.0  T
   3    -50.6930160 -0.168098E-04  0.297E-02    7.29       1.0  T
   4    -50.6930189 -0.293372E-05  0.102E-02    7.30       1.9  T
   5    -50.6930191 -0.245017E-06  0.341E-03    7.30       5.8  T
   6    -50.6930192 -0.123071E-07  0.174E-03    7.30      11.3  T
speedup  1.03
cpu  time for SCC    0.01 s
wall time for SCC    0.01 s
speedup  1.04
cpu  time for grad    0.01 s
wall time for grad    0.01 s
 E :    -50.41520878  G :  0.033299    pred/act E change: -0.308D-02 -0.164D-02
Maxdispl :   0.1297   ||displ|| :   0.3544   Lambda : -0.308D-02
Largest |displ|/coords:  0.1297 (   3)  0.1113 (   6)  0.1088 (  10)
................................................................................
.............................. CYCLE   15 ......................................
................................................................................
   1    -50.7012858 -0.507013E+02  0.241E-01    7.40       0.0  T
   2    -50.7013242 -0.384708E-04  0.180E-01    7.42       1.0  T
   3    -50.7013518 -0.275822E-04  0.348E-02    7.48       1.0  T
   4    -50.7013566 -0.472415E-05  0.128E-02    7.47       1.5  T
   5    -50.7013568 -0.208502E-06  0.450E-03    7.47       4.4  T
   6    -50.7013568 -0.235602E-07  0.242E-03    7.47       8.1  T
speedup  1.02
cpu  time for SCC    0.01 s
wall time for SCC    0.01 s
speedup  0.96
cpu  time for grad    0.01 s
wall time for grad    0.01 s
 E :    -50.41721600  G :  0.032834    pred/act E change: -0.133D-02 -0.201D-02
Maxdispl :   0.1796   ||displ|| :   0.4206   Lambda : -0.356D-02
Largest |displ|/coords:  0.1796 (   1)  0.1238 (   5)  0.1213 (  27)
................................................................................
.............................. CYCLE   16 ......................................
................................................................................
   1    -50.7126586 -0.507127E+02  0.233E-01    7.69       0.0  T
   2    -50.7127128 -0.541961E-04  0.174E-01    7.67       1.0  T
   3    -50.7127443 -0.315605E-04  0.449E-02    7.65       1.0  T
   4    -50.7127514 -0.709543E-05  0.162E-02    7.67       1.2  T
   5    -50.7127518 -0.349281E-06  0.435E-03    7.67       4.5  T
   6    -50.7127518 -0.194149E-07  0.250E-03    7.67       7.8  T
speedup  1.03
cpu  time for SCC    0.01 s
wall time for SCC    0.01 s
speedup  1.04
cpu  time for grad    0.01 s
wall time for grad    0.01 s
 E :    -50.41871568  G :  0.040655    pred/act E change: -0.174D-02 -0.150D-02
Maxdispl :   0.1580   ||displ|| :   0.4702   Lambda : -0.391D-02
Largest |displ|/coords:  0.1580 (   5)  0.1464 (   3)  0.1439 (   8)
................................................................................
.............................. CYCLE   17 ......................................
................................................................................
   1    -50.7007257 -0.507007E+02  0.390E-01    7.68       0.0  T
   2    -50.7008270 -0.101257E-03  0.283E-01    7.74       1.0  T
   3    -50.7008738 -0.468152E-04  0.540E-02    7.84       1.0  T
   4    -50.7008869 -0.130506E-04  0.155E-02    7.81       1.3  T
   5    -50.7008871 -0.277335E-06  0.612E-03    7.81       3.2  T
   6    -50.7008872 -0.610157E-07  0.278E-03    7.81       7.1  T
   7    -50.7008872 -0.153478E-07  0.864E-04    7.81      22.7  T
speedup  1.04
cpu  time for SCC    0.01 s
wall time for SCC    0.01 s
speedup  0.99
cpu  time for grad    0.01 s
wall time for grad    0.01 s
 E :    -50.41986896  G :  0.041020    pred/act E change: -0.209D-02 -0.115D-02
Maxdispl :   0.0940   ||displ|| :   0.2529   Lambda : -0.302D-02
Largest |displ|/coords:  0.0940 (   4)  0.0883 (   8)  0.0843 (  16)
................................................................................
.............................. CYCLE   18 ......................................
................................................................................
   1    -50.7073798 -0.507074E+02  0.256E-01    7.80       0.0  T
   2    -50.7074314 -0.515432E-04  0.190E-01    7.76       1.0  T
   3    -50.7074615 -0.301067E-04  0.411E-02    7.69       1.0  T
   4    -50.7074678 -0.637099E-05  0.908E-03    7.71       2.2  T
   5    -50.7074680 -0.168098E-06  0.420E-03    7.71       4.7  T
   6    -50.7074680 -0.121551E-07  0.202E-03    7.71       9.7  T
speedup  1.03
cpu  time for SCC    0.01 s
wall time for SCC    0.01 s
speedup  0.97
cpu  time for grad    0.01 s
wall time for grad    0.01 s
 E :    -50.42050086  G :  0.037793    pred/act E change: -0.239D-02 -0.632D-03
Maxdispl :   0.0957   ||displ|| :   0.1794   Lambda : -0.191D-02
Largest |displ|/coords:  0.0957 (   5)  0.0922 (  11)  0.0550 (   1)
................................................................................
.............................. CYCLE   19 ......................................
................................................................................
   1    -50.7118803 -0.507119E+02  0.137E-01    7.70       0.0  T
   2    -50.7119015 -0.212460E-04  0.102E-01    7.69       1.0  T
   3    -50.7119114 -0.989626E-05  0.287E-02    7.67       1.0  T
   4    -50.7119138 -0.234787E-05  0.899E-03    7.68       2.2  T
   5    -50.7119140 -0.158683E-06  0.262E-03    7.68       7.5  T
   6    -50.7119140 -0.768741E-08  0.133E-03    7.68      14.7  T
speedup  1.00
cpu  time for SCC    0.01 s
wall time for SCC    0.01 s
speedup  0.96
cpu  time for grad    0.01 s
wall time for grad    0.01 s
 E :    -50.42134139  G :  0.017201    pred/act E change: -0.161D-02 -0.841D-03
Maxdispl :   0.0945   ||displ|| :   0.1987   Lambda : -0.117D-02
Largest |displ|/coords:  0.0945 (   5)  0.0690 (  20)  0.0686 (   8)
................................................................................
.............................. CYCLE   20 ......................................
................................................................................
   1    -50.7072706 -0.507073E+02  0.154E-01    7.64       0.0  T
   2    -50.7072895 -0.189881E-04  0.113E-01    7.65       1.0  T
   3    -50.7073005 -0.109486E-04  0.230E-02    7.68       1.0  T
   4    -50.7073027 -0.217765E-05  0.554E-03    7.67       3.5  T
   5    -50.7073027 -0.425551E-07  0.255E-03    7.67       7.7  T
   6    -50.7073027 -0.698564E-08  0.909E-04    7.67      21.6  T
speedup  0.86
cpu  time for SCC    0.00 s
wall time for SCC    0.01 s
speedup  0.97
cpu  time for grad    0.01 s
wall time for grad    0.01 s
 E :    -50.42177573  G :  0.023564    pred/act E change: -0.988D-03 -0.434D-03
Maxdispl :   0.1108   ||displ|| :   0.2517   Lambda : -0.130D-02
Largest |displ|/coords:  0.1108 (   3)  0.1099 (   9)  0.0894 (  13)
................................................................................
.............................. CYCLE   21 ......................................
................................................................................
   1    -50.7066001 -0.507066E+02  0.200E-01    7.66       0.0  T
   2    -50.7066196 -0.194848E-04  0.149E-01    7.68       1.0  T
   3    -50.7066333 -0.136943E-04  0.244E-02    7.70       1.0  T
   4    -50.7066357 -0.241372E-05  0.879E-03    7.69       2.2  T
   5    -50.7066358 -0.985547E-07  0.339E-03    7.69       5.8  T
   6    -50.7066358 -0.174215E-07  0.169E-03    7.69      11.6  T
speedup  1.03
cpu  time for SCC    0.01 s
wall time for SCC    0.01 s
speedup  1.04
cpu  time for grad    0.01 s
wall time for grad    0.01 s
 E :    -50.42227408  G :  0.026156    pred/act E change: -0.606D-03 -0.498D-03
Maxdispl :   0.0605   ||displ|| :   0.1682   Lambda : -0.103D-02
Largest |displ|/coords:  0.0605 (  16)  0.0603 (  15)  0.0485 (   3)
................................................................................
.............................. CYCLE   22 ......................................
................................................................................
   1    -50.7103847 -0.507104E+02  0.972E-02    7.64       0.0  T
   2    -50.7103948 -0.100516E-04  0.723E-02    7.63       1.0  T
   3    -50.7104005 -0.568606E-05  0.184E-02    7.60       1.1  T
   4    -50.7104017 -0.125617E-05  0.682E-03    7.61       2.9  T
   5    -50.7104018 -0.632206E-07  0.180E-03    7.61      10.9  T
   6    -50.7104018 -0.449722E-08  0.953E-04    7.61      20.6  T
speedup  0.88
cpu  time for SCC    0.00 s
wall time for SCC    0.01 s
speedup  0.98
cpu  time for grad    0.01 s
wall time for grad    0.01 s
 E :    -50.42290588  G :  0.015733    pred/act E change: -0.691D-03 -0.632D-03
Maxdispl :   0.0924   ||displ|| :   0.2467   Lambda : -0.747D-03
Largest |displ|/coords:  0.0924 (  15)  0.0847 (   9)  0.0826 (  20)
................................................................................
.............................. CYCLE   23 ......................................
................................................................................
   1    -50.7095088 -0.507095E+02  0.127E-01    7.55       0.0  T
   2    -50.7095166 -0.778292E-05  0.936E-02    7.54       1.0  T
   3    -50.7095209 -0.434507E-05  0.149E-02    7.51       1.3  T
   4    -50.7095219 -0.960149E-06  0.516E-03    7.52       3.8  T
   5    -50.7095219 -0.286673E-07  0.166E-03    7.52      11.8  T
   6    -50.7095219 -0.366636E-08  0.895E-04    7.52      21.9  T
speedup  1.02
cpu  time for SCC    0.01 s
wall time for SCC    0.01 s
speedup  0.96
cpu  time for grad    0.01 s
wall time for grad    0.01 s
 E :    -50.42331147  G :  0.014158    pred/act E change: -0.530D-03 -0.406D-03
Maxdispl :   0.1358   ||displ|| :   0.3424   Lambda : -0.862D-03
Largest |displ|/coords:  0.1358 (  15)  0.1292 (   9)  0.1201 (   3)
................................................................................
.............................. CYCLE   24 ......................................
................................................................................
   1    -50.7134703 -0.507135E+02  0.221E-01    7.49       0.0  T
   2    -50.7134886 -0.182339E-04  0.162E-01    7.50       1.0  T
   3    -50.7135025 -0.139408E-04  0.214E-02    7.52       1.0  T
   4    -50.7135042 -0.166294E-05  0.711E-03    7.51       2.8  T
   5    -50.7135042 -0.490798E-07  0.302E-03    7.51       6.5  T
   6    -50.7135042 -0.112180E-07  0.138E-03    7.51      14.2  T
   7    -50.7135043 -0.375494E-08  0.311E-04    7.51      63.1  T
speedup  1.00
cpu  time for SCC    0.01 s
wall time for SCC    0.01 s
speedup  0.95
cpu  time for grad    0.01 s
wall time for grad    0.01 s
 E :    -50.42356168  G :  0.022627    pred/act E change: -0.396D-03 -0.250D-03
Maxdispl :   0.0736   ||displ|| :   0.1581   Lambda : -0.664D-03
Largest |displ|/coords:  0.0736 (   3)  0.0655 (   5)  0.0554 (   4)
................................................................................
.............................. CYCLE   25 ......................................
................................................................................
   1    -50.7111072 -0.507111E+02  0.112E-01    7.50       0.0  T
   2    -50.7111141 -0.696992E-05  0.831E-02    7.50       1.0  T
   3    -50.7111189 -0.471868E-05  0.151E-02    7.49       1.3  T
   4    -50.7111197 -0.846655E-06  0.520E-03    7.49       3.8  T
   5    -50.7111197 -0.481847E-07  0.175E-03    7.49      11.2  T
speedup  1.02
cpu  time for SCC    0.00 s
wall time for SCC    0.00 s
speedup  1.03
cpu  time for grad    0.01 s
wall time for grad    0.01 s
 E :    -50.42389394  G :  0.012203    pred/act E change: -0.482D-03 -0.332D-03
Maxdispl :   0.0503   ||displ|| :   0.1199   Lambda : -0.439D-03
Largest |displ|/coords:  0.0503 (   7)  0.0407 (   1)  0.0373 (   5)

generating ANC from model Hessian ...
 Shifting diagonal of input Hessian by   5.167378401392956E-003
 Lowest  eigenvalues of input Hessian
    0.005000    0.005023   -0.000000   -0.000000   -0.000000    0.000000
    0.000000    0.000000    0.005245    0.005453    0.005599    0.006018
    0.006090    0.006371    0.006608    0.006747    0.007047    0.007331
 Highest eigenvalues
    1.393354    1.412484    1.419980    2.627717    3.422962    3.622820
 
cpu  time for ANC gen    0.01 s
wall time for ANC gen    0.02 s
................................................................................
.............................. CYCLE   26 ......................................
................................................................................
   1    -50.7112848 -0.507113E+02  0.106E-01    7.53       0.0  T
   2    -50.7112914 -0.659014E-05  0.780E-02    7.53       1.0  T
   3    -50.7112949 -0.346019E-05  0.140E-02    7.53       1.4  T
   4    -50.7112956 -0.768835E-06  0.460E-03    7.54       4.3  T
   5    -50.7112957 -0.301371E-07  0.150E-03    7.54      13.1  T
   6    -50.7112957 -0.269782E-08  0.836E-04    7.54      23.5  T
   7    -50.7112957 -0.130544E-08  0.212E-04    7.54      92.7  T
speedup  1.04
cpu  time for SCC    0.01 s
wall time for SCC    0.01 s
speedup  1.01
cpu  time for grad    0.01 s
wall time for grad    0.01 s
 E :    -50.42413343  G :  0.012271    pred/act E change:  0.000D+00 -0.239D-03
Maxdispl :   0.1755   ||displ|| :   0.3273   Lambda : -0.110D-02
Largest |displ|/coords:  0.1755 (  12)  0.1268 (  10)  0.1247 (  11)
................................................................................
.............................. CYCLE   27 ......................................
................................................................................
   1    -50.7108195 -0.507108E+02  0.325E-01    7.57       0.0  T
   2    -50.7108382 -0.186445E-04  0.240E-01    7.58       1.0  T
   3    -50.7108578 -0.196637E-04  0.178E-02    7.60       1.1  T
   4    -50.7108584 -0.625368E-06  0.725E-03    7.60       2.7  T
   5    -50.7108585 -0.180937E-07  0.277E-03    7.60       7.1  T
   6    -50.7108585 -0.177439E-07  0.660E-04    7.60      29.7  T
speedup  1.07
cpu  time for SCC    0.01 s
wall time for SCC    0.01 s
speedup  0.98
cpu  time for grad    0.01 s
wall time for grad    0.01 s
 E :    -50.42507115  G :  0.011344    pred/act E change:  0.000D+00 -0.938D-03
Maxdispl :   0.2882   ||displ|| :   0.6387   Lambda : -0.171D-02
Largest |displ|/coords:  0.2882 (  12)  0.2555 (   8)  0.2520 (  10)
................................................................................
.............................. CYCLE   28 ......................................
................................................................................
   1    -50.6988829 -0.506989E+02  0.612E-01    7.63       0.0  T
   2    -50.6990238 -0.140847E-03  0.446E-01    7.70       1.0  T
   3    -50.6990929 -0.691340E-04  0.572E-02    7.81       1.0  T
   4    -50.6991118 -0.189270E-04  0.157E-02    7.77       1.2  T
   5    -50.6991119 -0.613260E-07  0.673E-03    7.76       2.9  T
   6    -50.6991120 -0.761215E-07  0.140E-03    7.77      14.0  T
   7    -50.6991120 -0.733355E-08  0.530E-04    7.77      37.0  T
speedup  0.91
cpu  time for SCC    0.01 s
wall time for SCC    0.01 s
speedup  0.97
cpu  time for grad    0.01 s
wall time for grad    0.01 s
 E :    -50.42444400  G :  0.049572    pred/act E change: -0.609D-03  0.627D-03
Maxdispl :   0.1736   ||displ|| :   0.2808   Lambda : -0.412D-02
Largest |displ|/coords:  0.1736 (  12)  0.1625 (  10)  0.1118 (   8)
................................................................................
.............................. CYCLE   29 ......................................
................................................................................
   1    -50.7117405 -0.507117E+02  0.309E-01    7.85       0.0  T
   2    -50.7118257 -0.851874E-04  0.221E-01    7.79       1.0  T
   3    -50.7118536 -0.279284E-04  0.458E-02    7.67       1.0  T
   4    -50.7118638 -0.101882E-04  0.664E-03    7.71       3.0  T
   5    -50.7118638 -0.212912E-07  0.381E-03    7.71       5.1  T
   6    -50.7118638 -0.471397E-08  0.814E-04    7.71      24.1  T
speedup  1.02
cpu  time for SCC    0.01 s
wall time for SCC    0.01 s
speedup  1.03
cpu  time for grad    0.01 s
wall time for grad    0.01 s
 E :    -50.42620777  G :  0.015253    pred/act E change: -0.120D-02 -0.176D-02
Maxdispl :   0.1246   ||displ|| :   0.2003   Lambda : -0.694D-03
Largest |displ|/coords:  0.1246 (  11)  0.0739 (   2)  0.0719 (   7)
................................................................................
.............................. CYCLE   30 ......................................
................................................................................
   1    -50.7128469 -0.507128E+02  0.198E-01    7.72       0.0  T
   2    -50.7128538 -0.683144E-05  0.149E-01    7.72       1.0  T
   3    -50.7128609 -0.710127E-05  0.146E-02    7.73       1.3  T
   4    -50.7128613 -0.438095E-06  0.566E-03    7.74       3.5  T
   5    -50.7128613 -0.187816E-07  0.168E-03    7.73      11.7  T
   6    -50.7128613 -0.452591E-08  0.753E-04    7.73      26.1  T
speedup  1.03
cpu  time for SCC    0.01 s
wall time for SCC    0.01 s
speedup  1.03
cpu  time for grad    0.01 s
wall time for grad    0.01 s
 E :    -50.42666954  G :  0.010244    pred/act E change: -0.222D-02 -0.462D-03
Maxdispl :   0.2733   ||displ|| :   0.4971   Lambda : -0.131D-02
Largest |displ|/coords:  0.2733 (  11)  0.1740 (   7)  0.1725 (   5)
................................................................................
.............................. CYCLE   31 ......................................
................................................................................
   1    -50.7106205 -0.507106E+02  0.356E-01    7.76       0.0  T
   2    -50.7106414 -0.209905E-04  0.264E-01    7.77       1.0  T
   3    -50.7106619 -0.204866E-04  0.230E-02    7.81       1.0  T
   4    -50.7106632 -0.127531E-05  0.931E-03    7.80       2.1  T
   5    -50.7106632 -0.411334E-07  0.323E-03    7.80       6.1  T
   6    -50.7106633 -0.198869E-07  0.126E-03    7.81      15.5  T
   7    -50.7106633 -0.456318E-08  0.348E-04    7.81      56.3  T
speedup  1.03
cpu  time for SCC    0.01 s
wall time for SCC    0.01 s
speedup  1.01
cpu  time for grad    0.01 s
wall time for grad    0.01 s
 E :    -50.42765532  G :  0.020019    pred/act E change: -0.361D-03 -0.986D-03
Maxdispl :   0.2631   ||displ|| :   0.5491   Lambda : -0.160D-02
Largest |displ|/coords:  0.2631 (   8)  0.1928 (  11)  0.1831 (   5)
................................................................................
.............................. CYCLE   32 ......................................
................................................................................
   1    -50.7066598 -0.507067E+02  0.419E-01    7.84       0.0  T
   2    -50.7066955 -0.357175E-04  0.310E-01    7.87       1.0  T
   3    -50.7067266 -0.310684E-04  0.288E-02    7.93       1.0  T
   4    -50.7067295 -0.289807E-05  0.117E-02    7.91       1.7  T
   5    -50.7067296 -0.608245E-07  0.410E-03    7.91       4.8  T
   6    -50.7067296 -0.283152E-07  0.157E-03    7.91      12.5  T
speedup  1.02
cpu  time for SCC    0.01 s
wall time for SCC    0.01 s
speedup  1.02
cpu  time for grad    0.01 s
wall time for grad    0.01 s
 E :    -50.42829874  G :  0.027286    pred/act E change: -0.814D-03 -0.643D-03
Maxdispl :   0.0853   ||displ|| :   0.2255   Lambda : -0.155D-02
Largest |displ|/coords:  0.0853 (   8)  0.0747 (  10)  0.0703 (   5)
................................................................................
.............................. CYCLE   33 ......................................
................................................................................
   1    -50.7143515 -0.507144E+02  0.224E-01    7.97       0.0  T
   2    -50.7143747 -0.231315E-04  0.165E-01    7.95       1.0  T
   3    -50.7143852 -0.105730E-04  0.269E-02    7.91       1.0  T
   4    -50.7143888 -0.359794E-05  0.742E-03    7.94       2.6  T
   5    -50.7143889 -0.288007E-07  0.309E-03    7.93       6.3  T
   6    -50.7143889 -0.393266E-08  0.957E-04    7.93      20.5  T
speedup  1.02
cpu  time for SCC    0.01 s
wall time for SCC    0.01 s
speedup  0.95
cpu  time for grad    0.01 s
wall time for grad    0.01 s
 E :    -50.42902210  G :  0.014171    pred/act E change: -0.104D-02 -0.723D-03
Maxdispl :   0.1912   ||displ|| :   0.4151   Lambda : -0.123D-02
Largest |displ|/coords:  0.1912 (   5)  0.1694 (  11)  0.1515 (   2)
................................................................................
.............................. CYCLE   34 ......................................
................................................................................
   1    -50.7096278 -0.507096E+02  0.407E-01    7.96       0.0  T
   2    -50.7096642 -0.364779E-04  0.308E-01    7.96       1.0  T
   3    -50.7096994 -0.351296E-04  0.315E-02    7.97       1.0  T
   4    -50.7097030 -0.364305E-05  0.102E-02    7.98       1.9  T
   5    -50.7097031 -0.674857E-07  0.454E-03    7.97       4.3  T
   6    -50.7097031 -0.334011E-07  0.167E-03    7.97      11.7  T
   7    -50.7097031 -0.758595E-08  0.412E-04    7.97      47.7  T
speedup  0.87
cpu  time for SCC    0.01 s
wall time for SCC    0.01 s
speedup  0.87
cpu  time for grad    0.01 s
wall time for grad    0.01 s
 E :    -50.42870725  G :  0.038635    pred/act E change: -0.814D-03  0.315D-03
Maxdispl :   0.0872   ||displ|| :   0.2151   Lambda : -0.260D-02
Largest |displ|/coords:  0.0872 (   9)  0.0751 (  12)  0.0681 (  20)
................................................................................
.............................. CYCLE   35 ......................................
................................................................................
   1    -50.7176150 -0.507176E+02  0.218E-01    7.96       0.0  T
   2    -50.7176471 -0.321088E-04  0.161E-01    7.97       1.0  T
   3    -50.7176697 -0.225769E-04  0.305E-02    7.99       1.0  T
   4    -50.7176733 -0.359393E-05  0.862E-03    7.99       2.3  T
   5    -50.7176734 -0.102362E-06  0.382E-03    7.99       5.1  T
   6    -50.7176734 -0.130039E-07  0.161E-03    7.99      12.2  T
speedup  0.85
cpu  time for SCC    0.01 s
wall time for SCC    0.01 s
speedup  0.96
cpu  time for grad    0.01 s
wall time for grad    0.01 s
 E :    -50.42938846  G :  0.023295    pred/act E change: -0.721D-03 -0.681D-03
Maxdispl :   0.1189   ||displ|| :   0.2377   Lambda : -0.134D-02
Largest |displ|/coords:  0.1189 (   3)  0.0892 (  13)  0.0772 (   4)
................................................................................
.............................. CYCLE   36 ......................................
................................................................................
   1    -50.7154121 -0.507154E+02  0.295E-01    7.98       0.0  T
   2    -50.7154280 -0.159584E-04  0.225E-01    7.98       1.0  T
   3    -50.7154436 -0.156058E-04  0.195E-02    7.97       1.0  T
   4    -50.7154453 -0.164389E-05  0.590E-03    7.97       3.3  T
   5    -50.7154453 -0.238869E-07  0.281E-03    7.97       7.0  T
speedup  1.04
cpu  time for SCC    0.00 s
wall time for SCC    0.00 s
speedup  1.02
cpu  time for grad    0.01 s
wall time for grad    0.01 s
 E :    -50.42986021  G :  0.014805    pred/act E change: -0.136D-02 -0.472D-03
Maxdispl :   0.1333   ||displ|| :   0.3151   Lambda : -0.831D-03
Largest |displ|/coords:  0.1333 (  10)  0.1115 (  11)  0.1102 (   7)
................................................................................
.............................. CYCLE   37 ......................................
................................................................................
   1    -50.7065301 -0.507065E+02  0.284E-01    7.93       0.0  T
   2    -50.7065638 -0.337862E-04  0.209E-01    7.97       1.0  T
   3    -50.7065809 -0.170912E-04  0.317E-02    8.04       1.0  T
   4    -50.7065857 -0.481064E-05  0.896E-03    8.01       2.2  T
   5    -50.7065858 -0.467024E-07  0.333E-03    8.01       5.9  T
   6    -50.7065858 -0.133549E-07  0.982E-04    8.02      20.0  T
   7    -50.7065858 -0.297891E-08  0.231E-04    8.02      84.8  T
speedup  1.03
cpu  time for SCC    0.01 s
wall time for SCC    0.01 s
speedup  1.03
cpu  time for grad    0.01 s
wall time for grad    0.01 s
 E :    -50.42951212  G :  0.031497    pred/act E change: -0.709D-03  0.348D-03
Maxdispl :   0.0920   ||displ|| :   0.2023   Lambda : -0.168D-02
Largest |displ|/coords:  0.0920 (   1)  0.0690 (  10)  0.0669 (   7)
................................................................................
.............................. CYCLE   38 ......................................
................................................................................
   1    -50.7174646 -0.507175E+02  0.215E-01    8.06       0.0  T
   2    -50.7174907 -0.260910E-04  0.160E-01    8.02       1.0  T
   3    -50.7175011 -0.104000E-04  0.301E-02    7.96       1.0  T
   4    -50.7175054 -0.422665E-05  0.594E-03    7.98       3.3  T
   5    -50.7175054 -0.653315E-07  0.260E-03    7.98       7.6  T
speedup  1.02
cpu  time for SCC    0.01 s
wall time for SCC    0.00 s
speedup  1.02
cpu  time for grad    0.01 s
wall time for grad    0.01 s
 E :    -50.43012502  G :  0.015412    pred/act E change: -0.457D-03 -0.613D-03
Maxdispl :   0.1180   ||displ|| :   0.2123   Lambda : -0.769D-03
Largest |displ|/coords:  0.1180 (  15)  0.0653 (  17)  0.0637 (  10)
................................................................................
.............................. CYCLE   39 ......................................
................................................................................
   1    -50.7144814 -0.507145E+02  0.168E-01    8.01       0.0  T
   2    -50.7145021 -0.206567E-04  0.125E-01    8.00       1.0  T
   3    -50.7145158 -0.137493E-04  0.253E-02    8.00       1.0  T
   4    -50.7145185 -0.265167E-05  0.605E-03    8.01       3.2  T
   5    -50.7145185 -0.445195E-07  0.288E-03    8.01       6.8  T
   6    -50.7145185 -0.928733E-08  0.911E-04    8.01      21.5  T
speedup  1.02
cpu  time for SCC    0.01 s
wall time for SCC    0.01 s
speedup  0.95
cpu  time for grad    0.01 s
wall time for grad    0.01 s
 E :    -50.42996026  G :  0.023848    pred/act E change: -0.877D-03  0.165D-03
Maxdispl :   0.0910   ||displ|| :   0.1522   Lambda : -0.993D-03
Largest |displ|/coords:  0.0910 (  15)  0.0611 (  10)  0.0404 (   1)
................................................................................
.............................. CYCLE   40 ......................................
................................................................................
   1    -50.7161725 -0.507162E+02  0.129E-01    7.98       0.0  T
   2    -50.7161853 -0.127544E-04  0.946E-02    7.99       1.0  T
   3    -50.7161924 -0.708931E-05  0.196E-02    8.00       1.0  T
   4    -50.7161940 -0.160580E-05  0.489E-03    8.00       4.0  T
   5    -50.7161940 -0.396582E-07  0.224E-03    8.00       8.7  T
speedup  0.82
cpu  time for SCC    0.00 s
wall time for SCC    0.00 s
speedup  0.93
cpu  time for grad    0.01 s
wall time for grad    0.01 s
 E :    -50.43044397  G :  0.006854    pred/act E change: -0.402D-03 -0.484D-03
Maxdispl :   0.0855   ||displ|| :   0.1677   Lambda : -0.234D-03
Largest |displ|/coords:  0.0855 (   3)  0.0687 (   1)  0.0492 (  12)
................................................................................
.............................. CYCLE   41 ......................................
................................................................................
   1    -50.7148121 -0.507148E+02  0.114E-01    7.99       0.0  T
   2    -50.7148143 -0.218199E-05  0.856E-02    7.99       1.0  T
   3    -50.7148165 -0.226958E-05  0.830E-03    7.98       2.4  T
   4    -50.7148167 -0.160963E-06  0.253E-03    7.99       7.7  T
   5    -50.7148167 -0.614971E-08  0.100E-03    7.99      19.6  T
speedup  1.02
cpu  time for SCC    0.01 s
wall time for SCC    0.00 s
speedup  0.94
cpu  time for grad    0.01 s
wall time for grad    0.01 s
 E :    -50.43056216  G :  0.009884    pred/act E change: -0.508D-03 -0.118D-03
Maxdispl :   0.1252   ||displ|| :   0.2370   Lambda : -0.248D-03
Largest |displ|/coords:  0.1252 (   1)  0.1032 (   3)  0.0731 (   6)
................................................................................
.............................. CYCLE   42 ......................................
................................................................................
   1    -50.7145253 -0.507145E+02  0.146E-01    7.99       0.0  T
   2    -50.7145289 -0.358543E-05  0.109E-01    7.99       1.0  T
   3    -50.7145329 -0.398895E-05  0.113E-02    7.99       1.7  T
   4    -50.7145331 -0.201477E-06  0.400E-03    7.99       4.9  T
   5    -50.7145331 -0.150001E-07  0.138E-03    7.99      14.2  T
   6    -50.7145331 -0.262354E-08  0.616E-04    7.99      31.8  T
speedup  1.03
cpu  time for SCC    0.01 s
wall time for SCC    0.01 s
speedup  1.02
cpu  time for grad    0.01 s
wall time for grad    0.01 s
 E :    -50.43077059  G :  0.009595    pred/act E change: -0.120D-03 -0.208D-03
Maxdispl :   0.3499   ||displ|| :   0.5653   Lambda : -0.581D-03
Largest |displ|/coords:  0.3499 (   1)  0.2269 (   3)  0.1804 (  12)
................................................................................
.............................. CYCLE   43 ......................................
................................................................................
   1    -50.7132485 -0.507132E+02  0.308E-01    7.94       0.0  T
   2    -50.7132662 -0.177511E-04  0.229E-01    7.94       1.0  T
   3    -50.7132832 -0.169462E-04  0.268E-02    7.94       1.0  T
   4    -50.7132847 -0.153142E-05  0.880E-03    7.94       2.2  T
   5    -50.7132848 -0.795671E-07  0.339E-03    7.94       5.8  T
   6    -50.7132848 -0.119550E-07  0.147E-03    7.94      13.3  T
   7    -50.7132848 -0.568702E-08  0.432E-04    7.94      45.3  T
speedup  1.04
cpu  time for SCC    0.01 s
wall time for SCC    0.01 s
speedup  1.03
cpu  time for grad    0.01 s
wall time for grad    0.01 s
 E :    -50.43113957  G :  0.009524    pred/act E change: -0.131D-03 -0.369D-03
Maxdispl :   0.3221   ||displ|| :   0.4473   Lambda : -0.389D-03
Largest |displ|/coords:  0.3221 (   1)  0.1455 (   3)  0.1416 (   2)
................................................................................
.............................. CYCLE   44 ......................................
................................................................................
   1    -50.7149418 -0.507149E+02  0.217E-01    7.94       0.0  T
   2    -50.7149508 -0.898863E-05  0.162E-01    7.93       1.0  T
   3    -50.7149592 -0.832050E-05  0.202E-02    7.91       1.0  T
   4    -50.7149600 -0.850634E-06  0.604E-03    7.92       3.2  T
   5    -50.7149600 -0.417026E-07  0.244E-03    7.92       8.0  T
   6    -50.7149601 -0.705096E-08  0.103E-03    7.92      19.1  T
speedup  1.03
cpu  time for SCC    0.01 s
wall time for SCC    0.01 s
speedup  1.02
cpu  time for grad    0.01 s
wall time for grad    0.01 s
 E :    -50.43135267  G :  0.011555    pred/act E change: -0.383D-03 -0.213D-03
Maxdispl :   0.2846   ||displ|| :   0.4037   Lambda : -0.325D-03
Largest |displ|/coords:  0.2846 (   1)  0.1283 (   3)  0.1219 (   2)
................................................................................
.............................. CYCLE   45 ......................................
................................................................................
   1    -50.7121886 -0.507122E+02  0.199E-01    7.91       0.0  T
   2    -50.7121967 -0.808411E-05  0.148E-01    7.92       1.0  T
   3    -50.7122030 -0.636961E-05  0.177E-02    7.94       1.1  T
   4    -50.7122040 -0.947335E-06  0.577E-03    7.93       3.4  T
   5    -50.7122040 -0.343985E-07  0.220E-03    7.93       8.9  T
   6    -50.7122040 -0.482665E-08  0.900E-04    7.93      21.8  T
speedup  1.00
cpu  time for SCC    0.01 s
wall time for SCC    0.01 s
speedup  1.01
cpu  time for grad    0.01 s
wall time for grad    0.01 s
 E :    -50.43153306  G :  0.012910    pred/act E change: -0.233D-03 -0.180D-03
Maxdispl :   0.2879   ||displ|| :   0.3982   Lambda : -0.645D-03
Largest |displ|/coords:  0.2879 (   1)  0.1981 (   2)  0.0945 (   9)
................................................................................
.............................. CYCLE   46 ......................................
................................................................................
   1    -50.7208595 -0.507209E+02  0.136E-01    8.12       0.0  T
   2    -50.7208710 -0.114530E-04  0.990E-02    8.10       1.0  T
   3    -50.7208766 -0.562542E-05  0.212E-02    8.07       1.0  T
   4    -50.7208779 -0.134040E-05  0.549E-03    8.08       3.6  T
   5    -50.7208780 -0.628158E-07  0.199E-03    8.08       9.8  T
   6    -50.7208780 -0.424507E-08  0.105E-03    8.08      18.8  T
speedup  0.98
cpu  time for SCC    0.01 s
wall time for SCC    0.01 s
speedup  1.00
cpu  time for grad    0.01 s
wall time for grad    0.01 s
 E :    -50.43169128  G :  0.018777    pred/act E change: -0.189D-03 -0.158D-03
Maxdispl :   0.2158   ||displ|| :   0.3411   Lambda : -0.585D-03
Largest |displ|/coords:  0.2158 (   1)  0.1623 (   2)  0.1452 (   3)
................................................................................
.............................. CYCLE   47 ......................................
................................................................................
   1    -50.7164240 -0.507164E+02  0.238E-01    8.09       0.0  T
   2    -50.7164389 -0.149096E-04  0.179E-01    8.10       1.0  T
   3    -50.7164497 -0.107815E-04  0.212E-02    8.11       1.0  T
   4    -50.7164517 -0.199641E-05  0.488E-03    8.11       4.0  T
   5    -50.7164517 -0.169280E-07  0.259E-03    8.11       7.6  T
   6    -50.7164517 -0.438122E-08  0.811E-04    8.11      24.2  T
speedup  1.00
cpu  time for SCC    0.01 s
wall time for SCC    0.01 s
speedup  1.01
cpu  time for grad    0.01 s
wall time for grad    0.01 s
 E :    -50.43199792  G :  0.009212    pred/act E change: -0.374D-03 -0.307D-03
Maxdispl :   0.3096   ||displ|| :   0.4129   Lambda : -0.568D-03
Largest |displ|/coords:  0.3096 (   1)  0.1413 (   2)  0.1333 (   6)
................................................................................
.............................. CYCLE   48 ......................................
................................................................................
   1    -50.7144786 -0.507145E+02  0.236E-01    8.03       0.0  T
   2    -50.7144987 -0.200862E-04  0.174E-01    8.05       1.0  T
   3    -50.7145099 -0.111985E-04  0.258E-02    8.09       1.0  T
   4    -50.7145126 -0.270021E-05  0.710E-03    8.08       2.8  T
   5    -50.7145127 -0.519399E-07  0.295E-03    8.08       6.6  T
   6    -50.7145127 -0.890896E-08  0.118E-03    8.08      16.6  T
speedup  1.05
cpu  time for SCC    0.01 s
wall time for SCC    0.01 s
speedup  1.02
cpu  time for grad    0.01 s
wall time for grad    0.01 s
 E :    -50.43206018  G :  0.020156    pred/act E change: -0.326D-03 -0.623D-04
Maxdispl :   0.1243   ||displ|| :   0.2092   Lambda : -0.624D-03
Largest |displ|/coords:  0.1243 (   2)  0.1204 (   1)  0.0611 (   5)
................................................................................
.............................. CYCLE   49 ......................................
................................................................................
   1    -50.7181821 -0.507182E+02  0.975E-02    8.18       0.0  T
   2    -50.7181883 -0.617306E-05  0.713E-02    8.16       1.0  T
   3    -50.7181905 -0.217003E-05  0.147E-02    8.14       1.3  T
   4    -50.7181914 -0.901251E-06  0.269E-03    8.15       7.3  T
   5    -50.7181914 -0.112090E-07  0.115E-03    8.15      17.0  T
speedup  1.00
cpu  time for SCC    0.00 s
wall time for SCC    0.01 s
speedup  1.01
cpu  time for grad    0.01 s
wall time for grad    0.01 s
 E :    -50.43236362  G :  0.013320    pred/act E change: -0.332D-03 -0.303D-03
Maxdispl :   0.2913   ||displ|| :   0.4119   Lambda : -0.570D-03
Largest |displ|/coords:  0.2913 (   1)  0.2023 (   2)  0.1187 (   3)
................................................................................
.............................. CYCLE   50 ......................................
................................................................................
   1    -50.7190009 -0.507190E+02  0.164E-01    8.23       0.0  T
   2    -50.7190068 -0.596398E-05  0.123E-01    8.22       1.0  T
   3    -50.7190127 -0.584962E-05  0.132E-02    8.20       1.5  T
   4    -50.7190133 -0.601222E-06  0.463E-03    8.21       4.2  T
   5    -50.7190133 -0.280789E-07  0.194E-03    8.21      10.1  T
   6    -50.7190133 -0.606678E-08  0.767E-04    8.21      25.6  T
speedup  1.03
cpu  time for SCC    0.01 s
wall time for SCC    0.01 s
speedup  1.01
cpu  time for grad    0.01 s
wall time for grad    0.01 s
 E :    -50.43263291  G :  0.012166    pred/act E change: -0.326D-03 -0.269D-03
Maxdispl :   0.3378   ||displ|| :   0.4633   Lambda : -0.518D-03
Largest |displ|/coords:  0.3378 (   1)  0.2519 (   2)  0.1165 (   6)
................................................................................
.............................. CYCLE   51 ......................................
................................................................................
   1    -50.7183432 -0.507183E+02  0.171E-01    8.21       0.0  T
   2    -50.7183503 -0.707472E-05  0.127E-01    8.22       1.0  T
   3    -50.7183556 -0.535528E-05  0.143E-02    8.24       1.4  T
   4    -50.7183564 -0.778632E-06  0.504E-03    8.24       3.9  T
   5    -50.7183564 -0.259310E-07  0.182E-03    8.24      10.8  T
   6    -50.7183564 -0.409714E-08  0.827E-04    8.24      23.7  T
speedup  1.00
cpu  time for SCC    0.01 s
wall time for SCC    0.01 s
speedup  1.01
cpu  time for grad    0.01 s
wall time for grad    0.01 s
 E :    -50.43300407  G :  0.012844    pred/act E change: -0.333D-03 -0.371D-03
Maxdispl :   0.3362   ||displ|| :   0.5327   Lambda : -0.908D-03
Largest |displ|/coords:  0.3362 (   1)  0.2865 (   2)  0.1204 (  10)
................................................................................
.............................. CYCLE   52 ......................................
................................................................................
   1    -50.7203703 -0.507204E+02  0.261E-01    8.33       0.0  T
   2    -50.7203962 -0.258698E-04  0.191E-01    8.36       1.0  T
   3    -50.7204106 -0.143983E-04  0.296E-02    8.42       1.0  T
   4    -50.7204139 -0.328556E-05  0.810E-03    8.40       2.4  T
   5    -50.7204139 -0.671277E-07  0.309E-03    8.40       6.3  T
   6    -50.7204140 -0.105642E-07  0.138E-03    8.40      14.2  T
   7    -50.7204140 -0.317168E-08  0.372E-04    8.41      52.7  T
speedup  1.03
cpu  time for SCC    0.01 s
wall time for SCC    0.01 s
speedup  1.01
cpu  time for grad    0.01 s
wall time for grad    0.01 s
 E :    -50.43348118  G :  0.019988    pred/act E change: -0.315D-03 -0.477D-03
Maxdispl :   0.4572   ||displ|| :   0.6251   Lambda : -0.872D-03
Largest |displ|/coords:  0.4572 (   1)  0.3235 (   2)  0.1247 (   6)

generating ANC from model Hessian ...
 Shifting diagonal of input Hessian by   5.047659293015619E-003
 Lowest  eigenvalues of input Hessian
    0.005000   -0.000000   -0.000000   -0.000000    0.000000    0.000000
    0.000000    0.005084    0.005344    0.005535    0.005570    0.005792
    0.006409    0.006644    0.006845    0.007119    0.007859    0.008906
 Highest eigenvalues
    1.395912    1.418767    1.435883    2.627211    3.347033    3.611669
 
cpu  time for ANC gen    0.02 s
wall time for ANC gen    0.02 s
................................................................................
.............................. CYCLE   53 ......................................
................................................................................
   1    -50.7135664 -0.507136E+02  0.242E-01    8.25       0.0  T
   2    -50.7135829 -0.165568E-04  0.179E-01    8.26       1.0  T
   3    -50.7135936 -0.106752E-04  0.278E-02    8.29       1.0  T
   4    -50.7135955 -0.189787E-05  0.816E-03    8.28       2.4  T
   5    -50.7135956 -0.956969E-07  0.270E-03    8.28       7.3  T
   6    -50.7135956 -0.857909E-08  0.143E-03    8.28      13.7  T
   7    -50.7135956 -0.423942E-08  0.416E-04    8.28      47.2  T
   8    -50.7135956 -0.433246E-09  0.103E-04    8.28     190.4  T
speedup  1.04
cpu  time for SCC    0.01 s
wall time for SCC    0.01 s
speedup  1.05
cpu  time for grad    0.02 s
wall time for grad    0.02 s
 E :    -50.43400814  G :  0.018112    pred/act E change:  0.000D+00 -0.527D-03
Maxdispl :   0.1189   ||displ|| :   0.3041   Lambda : -0.133D-02
Largest |displ|/coords:  0.1189 (  12)  0.1113 (   1)  0.0928 (  14)
................................................................................
.............................. CYCLE   54 ......................................
................................................................................
   1    -50.7148661 -0.507149E+02  0.329E-01    8.31       0.0  T
   2    -50.7148853 -0.191571E-04  0.247E-01    8.31       1.0  T
   3    -50.7149074 -0.220872E-04  0.225E-02    8.30       1.0  T
   4    -50.7149081 -0.760465E-06  0.786E-03    8.30       2.5  T
   5    -50.7149082 -0.387763E-07  0.288E-03    8.30       6.8  T
   6    -50.7149082 -0.225803E-07  0.990E-04    8.30      19.8  T
speedup  1.03
cpu  time for SCC    0.01 s
wall time for SCC    0.01 s
speedup  1.01
cpu  time for grad    0.01 s
wall time for grad    0.01 s
 E :    -50.43489635  G :  0.012122    pred/act E change:  0.000D+00 -0.888D-03
Maxdispl :   0.2030   ||displ|| :   0.3364   Lambda : -0.825D-03
Largest |displ|/coords:  0.2030 (   1)  0.1302 (  12)  0.0968 (   8)
................................................................................
.............................. CYCLE   55 ......................................
................................................................................
   1    -50.7166053 -0.507166E+02  0.235E-01    8.40       0.0  T
   2    -50.7166159 -0.105794E-04  0.174E-01    8.40       1.0  T
   3    -50.7166275 -0.115604E-04  0.151E-02    8.40       1.3  T
   4    -50.7166279 -0.409298E-06  0.715E-03    8.40       2.7  T
   5    -50.7166279 -0.499984E-07  0.186E-03    8.40      10.6  T
   6    -50.7166279 -0.519893E-08  0.834E-04    8.40      23.5  T
speedup  1.03
cpu  time for SCC    0.01 s
wall time for SCC    0.01 s
speedup  1.01
cpu  time for grad    0.01 s
wall time for grad    0.01 s
 E :    -50.43549569  G :  0.012347    pred/act E change: -0.729D-03 -0.599D-03
Maxdispl :   0.3661   ||displ|| :   0.5118   Lambda : -0.102D-02
Largest |displ|/coords:  0.3661 (   1)  0.1693 (   7)  0.1224 (  12)
................................................................................
.............................. CYCLE   56 ......................................
................................................................................
   1    -50.7183014 -0.507183E+02  0.255E-01    8.52       0.0  T
   2    -50.7183120 -0.105895E-04  0.189E-01    8.52       1.0  T
   3    -50.7183228 -0.108188E-04  0.166E-02    8.52       1.2  T
   4    -50.7183234 -0.587782E-06  0.748E-03    8.53       2.6  T
   5    -50.7183234 -0.455865E-07  0.212E-03    8.53       9.3  T
   6    -50.7183234 -0.552453E-08  0.932E-04    8.53      21.0  T
speedup  1.02
cpu  time for SCC    0.01 s
wall time for SCC    0.01 s
speedup  0.99
cpu  time for grad    0.01 s
wall time for grad    0.01 s
 E :    -50.43633160  G :  0.014790    pred/act E change: -0.459D-03 -0.836D-03
Maxdispl :   0.4937   ||displ|| :   0.6560   Lambda : -0.140D-02
Largest |displ|/coords:  0.4937 (   1)  0.1887 (   7)  0.1714 (  20)
................................................................................
.............................. CYCLE   57 ......................................
................................................................................
   1    -50.7207455 -0.507207E+02  0.285E-01    8.64       0.0  T
   2    -50.7207596 -0.141898E-04  0.211E-01    8.64       1.0  T
   3    -50.7207730 -0.133234E-04  0.210E-02    8.66       1.0  T
   4    -50.7207742 -0.125722E-05  0.886E-03    8.67       2.2  T
   5    -50.7207743 -0.728238E-07  0.286E-03    8.67       6.8  T
   6    -50.7207743 -0.935636E-08  0.123E-03    8.67      16.0  T
speedup  0.86
cpu  time for SCC    0.00 s
wall time for SCC    0.01 s
speedup  0.95
cpu  time for grad    0.01 s
wall time for grad    0.01 s
 E :    -50.43749112  G :  0.012488    pred/act E change: -0.644D-03 -0.116D-02
Maxdispl :   0.5865   ||displ|| :   0.8375   Lambda : -0.174D-02
Largest |displ|/coords:  0.5865 (   1)  0.2334 (   7)  0.2232 (  16)
................................................................................
.............................. CYCLE   58 ......................................
................................................................................
   1    -50.7107250 -0.507107E+02  0.446E-01    8.59       0.0  T
   2    -50.7107928 -0.678019E-04  0.328E-01    8.64       1.0  T
   3    -50.7108282 -0.353656E-04  0.425E-02    8.75       1.0  T
   4    -50.7108379 -0.972915E-05  0.129E-02    8.72       1.5  T
   5    -50.7108380 -0.877646E-07  0.514E-03    8.72       3.8  T
   6    -50.7108381 -0.373880E-07  0.189E-03    8.72      10.4  T
   7    -50.7108381 -0.854529E-08  0.495E-04    8.72      39.6  T
speedup  0.88
cpu  time for SCC    0.01 s
wall time for SCC    0.01 s
speedup  0.95
cpu  time for grad    0.01 s
wall time for grad    0.01 s
 E :    -50.43796963  G :  0.034371    pred/act E change: -0.100D-02 -0.479D-03
Maxdispl :   0.1764   ||displ|| :   0.2980   Lambda : -0.272D-02
Largest |displ|/coords:  0.1764 (   1)  0.0971 (  12)  0.0827 (  11)
................................................................................
.............................. CYCLE   59 ......................................
................................................................................
   1    -50.7216120 -0.507216E+02  0.183E-01    8.71       0.0  T
   2    -50.7216434 -0.314062E-04  0.133E-01    8.68       1.0  T
   3    -50.7216540 -0.105753E-04  0.311E-02    8.65       1.0  T
   4    -50.7216581 -0.408106E-05  0.544E-03    8.67       3.6  T
   5    -50.7216581 -0.377878E-07  0.233E-03    8.67       8.4  T
speedup  1.00
cpu  time for SCC    0.00 s
wall time for SCC    0.01 s
speedup  1.01
cpu  time for grad    0.01 s
wall time for grad    0.01 s
 E :    -50.43898239  G :  0.022297    pred/act E change: -0.148D-02 -0.101D-02
Maxdispl :   0.3336   ||displ|| :   0.4976   Lambda : -0.198D-02
Largest |displ|/coords:  0.3336 (   1)  0.2445 (   7)  0.0960 (   5)
................................................................................
.............................. CYCLE   60 ......................................
................................................................................
   1    -50.7090466 -0.507090E+02  0.337E-01    8.68       0.0  T
   2    -50.7091047 -0.581584E-04  0.253E-01    8.68       1.0  T
   3    -50.7091452 -0.404919E-04  0.436E-02    8.67       1.0  T
   4    -50.7091533 -0.805226E-05  0.102E-02    8.67       1.9  T
   5    -50.7091533 -0.769271E-07  0.517E-03    8.67       3.8  T
   6    -50.7091534 -0.397873E-07  0.151E-03    8.67      13.0  T
speedup  0.86
cpu  time for SCC    0.00 s
wall time for SCC    0.01 s
speedup  0.96
cpu  time for grad    0.01 s
wall time for grad    0.01 s
 E :    -50.43828947  G :  0.050331    pred/act E change: -0.148D-02  0.693D-03
Maxdispl :   0.2153   ||displ|| :   0.4497   Lambda : -0.818D-02
Largest |displ|/coords:  0.2153 (   5)  0.1897 (   9)  0.1273 (   7)
................................................................................
.............................. CYCLE   61 ......................................
................................................................................
   1    -50.7239905 -0.507240E+02  0.574E-01    8.68       0.0  T
   2    -50.7241603 -0.169849E-03  0.433E-01    8.70       1.0  T
   3    -50.7242825 -0.122199E-03  0.737E-02    8.76       1.0  T
   4    -50.7243063 -0.237528E-04  0.143E-02    8.74       1.4  T
   5    -50.7243065 -0.281124E-06  0.864E-03    8.74       2.3  T
   6    -50.7243066 -0.324707E-07  0.248E-03    8.75       7.9  T
   7    -50.7243066 -0.225715E-07  0.535E-04    8.74      36.7  T
speedup  1.04
cpu  time for SCC    0.01 s
wall time for SCC    0.01 s
speedup  1.03
cpu  time for grad    0.01 s
wall time for grad    0.01 s
 E :    -50.43803064  G :  0.056882    pred/act E change: -0.123D-02  0.259D-03
Maxdispl :   0.1617   ||displ|| :   0.3660   Lambda : -0.498D-02
Largest |displ|/coords:  0.1617 (   1)  0.1400 (   4)  0.1392 (   9)
................................................................................
.............................. CYCLE   62 ......................................
................................................................................
   1    -50.7144646 -0.507145E+02  0.279E-01    8.78       0.0  T
   2    -50.7145393 -0.746672E-04  0.206E-01    8.77       1.0  T
   3    -50.7145853 -0.460447E-04  0.490E-02    8.74       1.0  T
   4    -50.7145936 -0.830307E-05  0.111E-02    8.75       1.8  T
   5    -50.7145937 -0.145217E-06  0.511E-03    8.75       3.8  T
   6    -50.7145938 -0.325642E-07  0.220E-03    8.75       8.9  T
speedup  1.00
cpu  time for SCC    0.01 s
wall time for SCC    0.01 s
speedup  1.00
cpu  time for grad    0.01 s
wall time for grad    0.01 s
 E :    -50.43963917  G :  0.029051    pred/act E change: -0.492D-02 -0.161D-02
Maxdispl :   0.2177   ||displ|| :   0.3587   Lambda : -0.245D-02
Largest |displ|/coords:  0.2177 (   4)  0.1489 (   3)  0.1314 (   1)
................................................................................
.............................. CYCLE   63 ......................................
................................................................................
   1    -50.7165962 -0.507166E+02  0.471E-01    8.74       0.0  T
   2    -50.7166339 -0.377070E-04  0.360E-01    8.73       1.0  T
   3    -50.7166780 -0.440873E-04  0.252E-02    8.71       1.0  T
   4    -50.7166801 -0.203245E-05  0.960E-03    8.72       2.0  T
   5    -50.7166801 -0.829052E-07  0.395E-03    8.72       5.0  T
   6    -50.7166802 -0.188956E-07  0.148E-03    8.72      13.3  T
speedup  1.02
cpu  time for SCC    0.01 s
wall time for SCC    0.01 s
speedup  0.94
cpu  time for grad    0.01 s
wall time for grad    0.01 s
 E :    -50.44005723  G :  0.030061    pred/act E change: -0.282D-02 -0.418D-03
Maxdispl :   0.1503   ||displ|| :   0.3059   Lambda : -0.190D-02
Largest |displ|/coords:  0.1503 (   1)  0.0899 (  20)  0.0872 (  15)
................................................................................
.............................. CYCLE   64 ......................................
................................................................................
   1    -50.7168109 -0.507168E+02  0.247E-01    8.62       0.0  T
   2    -50.7168451 -0.341734E-04  0.183E-01    8.65       1.0  T
   3    -50.7168634 -0.182956E-04  0.319E-02    8.72       1.0  T
   4    -50.7168684 -0.495978E-05  0.893E-03    8.70       2.2  T
   5    -50.7168685 -0.117536E-06  0.370E-03    8.71       5.3  T
   6    -50.7168685 -0.122002E-07  0.152E-03    8.71      12.9  T
speedup  1.02
cpu  time for SCC    0.01 s
wall time for SCC    0.01 s
speedup  1.01
cpu  time for grad    0.01 s
wall time for grad    0.01 s
 E :    -50.44060519  G :  0.023475    pred/act E change: -0.138D-02 -0.548D-03
Maxdispl :   0.1835   ||displ|| :   0.3213   Lambda : -0.138D-02
Largest |displ|/coords:  0.1835 (   1)  0.1351 (  14)  0.1242 (   3)
................................................................................
.............................. CYCLE   65 ......................................
................................................................................
[...]
speedup  1.03
cpu  time for SCC    0.00 s
wall time for SCC    0.00 s
speedup  0.96
cpu  time for grad    0.01 s
wall time for grad    0.01 s
 E :    -50.46353771  G :  0.000475    pred/act E change: -0.120D-05 -0.104D-05
Maxdispl :   0.0355   ||displ|| :   0.0397   Lambda : -0.897D-06
Largest |displ|/coords:  0.0355 (   1)  0.0099 (   4)  0.0057 (   6)
................................................................................
.............................. CYCLE  127 ......................................
................................................................................
   1    -50.7578640 -0.507579E+02  0.242E-02    9.10       0.0  T
   2    -50.7578640 -0.275504E-07  0.182E-02    9.10       1.1  T
   3    -50.7578640 -0.301230E-07  0.863E-04    9.10      22.7  T
   4    -50.7578640 -0.208603E-08  0.391E-04    9.10      50.2  T
speedup  1.03
cpu  time for SCC    0.00 s
wall time for SCC    0.00 s
speedup  0.95
cpu  time for grad    0.01 s
wall time for grad    0.01 s
 E :    -50.46353835  G :  0.000594    pred/act E change: -0.789D-06 -0.637D-06
Maxdispl :   0.0240   ||displ|| :   0.0295   Lambda : -0.813D-06
Largest |displ|/coords:  0.0240 (   1)  0.0091 (   4)  0.0053 (   6)
................................................................................
.............................. CYCLE  128 ......................................
................................................................................
   1    -50.7579110 -0.507579E+02  0.201E-02    9.10       0.0  T
   2    -50.7579111 -0.269113E-07  0.151E-02    9.10       1.3  T
   3    -50.7579111 -0.277881E-07  0.850E-04    9.10      23.1  T
   4    -50.7579111 -0.242392E-08  0.393E-04    9.10      50.0  T
speedup  1.03
cpu  time for SCC    0.00 s
wall time for SCC    0.00 s
speedup  0.97
cpu  time for grad    0.01 s
wall time for grad    0.01 s
 E :    -50.46353898  G :  0.000434    pred/act E change: -0.449D-06 -0.629D-06
Maxdispl :   0.0275   ||displ|| :   0.0336   Lambda : -0.788D-06
Largest |displ|/coords:  0.0275 (   1)  0.0087 (   4)  0.0069 (   6)
................................................................................
.............................. CYCLE  129 ......................................
................................................................................
   1    -50.7579689 -0.507580E+02  0.244E-02    9.10       0.0  T
   2    -50.7579689 -0.443522E-07  0.184E-02    9.10       1.1  T
   3    -50.7579690 -0.513120E-07  0.983E-04    9.10      19.9  T
   4    -50.7579690 -0.273800E-08  0.490E-04    9.10      40.0  T
speedup  1.03
cpu  time for SCC    0.00 s
wall time for SCC    0.00 s
speedup  0.96
cpu  time for grad    0.01 s
wall time for grad    0.01 s
 E :    -50.46353956  G :  0.000358    pred/act E change: -0.407D-06 -0.578D-06
Maxdispl :   0.0190   ||displ|| :   0.0230   Lambda : -0.410D-06
Largest |displ|/coords:  0.0190 (   1)  0.0059 (   4)  0.0045 (   6)
................................................................................
.............................. CYCLE  130 ......................................
................................................................................
   1    -50.7580103 -0.507580E+02  0.161E-02    9.10       0.0  T
   2    -50.7580103 -0.186997E-07  0.121E-02    9.10       1.6  T
   3    -50.7580103 -0.210497E-07  0.656E-04    9.10      29.9  T
   4    -50.7580103 -0.129023E-08  0.312E-04    9.10      62.8  T
speedup  1.05
cpu  time for SCC    0.00 s
wall time for SCC    0.00 s
speedup  0.97
cpu  time for grad    0.01 s
wall time for grad    0.01 s
 E :    -50.46353990  G :  0.000257    pred/act E change: -0.394D-06 -0.342D-06
Maxdispl :   0.0472   ||displ|| :   0.0531   Lambda : -0.507D-06
Largest |displ|/coords:  0.0472 (   1)  0.0126 (   4)  0.0096 (   8)
................................................................................
.............................. CYCLE  131 ......................................
................................................................................
   1    -50.7579559 -0.507580E+02  0.344E-02    9.10       0.0  T
   2    -50.7579559 -0.682282E-07  0.260E-02    9.10       1.0  T
   3    -50.7579560 -0.787759E-07  0.129E-03    9.10      15.2  T
   4    -50.7579560 -0.420799E-08  0.607E-04    9.10      32.3  T
   5    -50.7579560 -0.195811E-09  0.196E-04    9.10     100.3  T
speedup  0.83
cpu  time for SCC    0.00 s
wall time for SCC    0.00 s
speedup  0.97
cpu  time for grad    0.01 s
wall time for grad    0.01 s
 E :    -50.46354017  G :  0.000530    pred/act E change: -0.205D-06 -0.271D-06
Maxdispl :   0.0062   ||displ|| :   0.0136   Lambda : -0.688D-06
Largest |displ|/coords:  0.0062 (   2)  0.0049 (   3)  0.0046 (   8)
................................................................................
.............................. CYCLE  132 ......................................
................................................................................
   1    -50.7580669 -0.507581E+02  0.734E-03    9.10       0.0  T
   2    -50.7580670 -0.140354E-07  0.551E-03    9.10       3.6  T
   3    -50.7580670 -0.777550E-08  0.758E-04    9.10      25.9  T
   4    -50.7580670 -0.220127E-08  0.225E-04    9.10      87.3  T
speedup  1.00
cpu  time for SCC    0.00 s
wall time for SCC    0.00 s
speedup  1.03
cpu  time for grad    0.01 s
wall time for grad    0.01 s
 E :    -50.46354035  G :  0.000327    pred/act E change: -0.254D-06 -0.184D-06
Maxdispl :   0.0156   ||displ|| :   0.0169   Lambda : -0.307D-06
Largest |displ|/coords:  0.0156 (   1)  0.0040 (   4)  0.0026 (   2)
................................................................................
.............................. CYCLE  133 ......................................
................................................................................
   1    -50.7580119 -0.507580E+02  0.937E-03    9.10       0.0  T
   2    -50.7580119 -0.466058E-08  0.704E-03    9.10       2.8  T
   3    -50.7580119 -0.438438E-08  0.421E-04    9.10      46.6  T
   4    -50.7580119 -0.468056E-09  0.151E-04    9.10     129.8  T
speedup  1.05
cpu  time for SCC    0.00 s
wall time for SCC    0.00 s
speedup  1.03
cpu  time for grad    0.01 s
wall time for grad    0.01 s
 E :    -50.46354055  G :  0.000125    pred/act E change: -0.344D-06 -0.198D-06
Maxdispl :   0.0015   ||displ|| :   0.0043   Lambda : -0.140D-06
Largest |displ|/coords:  0.0015 (   3)  0.0015 (   4)  0.0013 (   1)
................................................................................
.............................. CYCLE  134 ......................................
................................................................................
   1    -50.7580061 -0.507580E+02  0.276E-03    9.10       0.0  T
   2    -50.7580061 -0.979838E-09  0.205E-03    9.10       9.6  T
   3    -50.7580061 -0.814751E-09  0.239E-04    9.10      82.1  T
   4    -50.7580061 -0.990212E-10  0.896E-05    9.10     218.8  T
speedup  1.03
cpu  time for SCC    0.00 s
wall time for SCC    0.00 s
speedup  1.04
cpu  time for grad    0.01 s
wall time for grad    0.01 s
 E :    -50.46354066  G :  0.000151    pred/act E change: -0.143D-06 -0.105D-06
Maxdispl :   0.0144   ||displ|| :   0.0169   Lambda : -0.163D-06
Largest |displ|/coords:  0.0144 (   1)  0.0058 (   4)  0.0042 (   8)
................................................................................
.............................. CYCLE  135 ......................................
................................................................................
   1    -50.7579926 -0.507580E+02  0.125E-02    9.10       0.0  T
   2    -50.7579926 -0.793778E-08  0.943E-03    9.10       2.1  T
   3    -50.7579926 -0.856307E-08  0.562E-04    9.10      34.9  T
   4    -50.7579926 -0.606938E-09  0.237E-04    9.10      82.7  T
speedup  1.03
cpu  time for SCC    0.00 s
wall time for SCC    0.00 s
speedup  1.04
cpu  time for grad    0.01 s
wall time for grad    0.01 s
 E :    -50.46354076  G :  0.000269    pred/act E change: -0.699D-07 -0.106D-06
Maxdispl :   0.0023   ||displ|| :   0.0056   Lambda : -0.976D-07
Largest |displ|/coords:  0.0023 (  17)  0.0023 (   3)  0.0019 (  10)
................................................................................
.............................. CYCLE  136 ......................................
................................................................................
   1    -50.7580125 -0.507580E+02  0.301E-03    9.10       0.0  T
   2    -50.7580125 -0.164518E-08  0.225E-03    9.10       8.7  T
   3    -50.7580125 -0.151985E-08  0.280E-04    9.11      70.0  T
   4    -50.7580125 -0.149832E-09  0.121E-04    9.11     162.1  T
speedup  1.03
cpu  time for SCC    0.00 s
wall time for SCC    0.00 s
speedup  1.04
cpu  time for grad    0.01 s
wall time for grad    0.01 s
 E :    -50.46354084  G :  0.000180    pred/act E change: -0.817D-07 -0.739D-07
Maxdispl :   0.0109   ||displ|| :   0.0156   Lambda : -0.158D-06
Largest |displ|/coords:  0.0109 (   1)  0.0074 (   4)  0.0041 (   8)

   *** GEOMETRY OPTIMIZATION CONVERGED AFTER 136 ITERATIONS ***

------------------------------------------------------------------------
 total energy gain (kcal):     -0.0135
------------------------------------------------------------------------
================
 final structure:
================
$coord
       -1.14904608462054       -0.79115717551472       -3.94973057355551      S 
       -0.39767339525783       -2.93728257970416       -2.43895229780032      O 
        0.34881440973715        1.45470540166177       -3.30805375058823      O 
       -3.83014645053602       -0.26879982013031       -3.98301221572869      O 
       -0.40298580103868       -1.46913666386446       -6.77877434711563      O 
       -1.42395028984642       -0.34149355535370       -7.73879419149214      H 
       -5.08975481711898        0.23907791599484       -1.21944297220059      H 
        1.18328199471967        0.31432330888622        3.85348623148355      O 
        2.66330313969542       -0.40733225164816        1.47302194591013      H 
       -5.67871502483824        0.58592102897318        0.51722834952998      O 
       -7.47313502363593        0.80532649531704        0.41158458878705      H 
        6.60458417438188        0.99657904089743        3.53894328328056      O 
        4.94670094877741        0.91841284912321        4.30321107258224      H 
        7.63038215069813        2.00583393761373        4.63664075813521      H 
       -2.26755158849943       -2.95837673251493        2.35678918497292      O 
       -1.64794149733882       -3.28753874861736        0.65551076881563      H 
       -0.08906869977646       -1.05141457955054        3.75481730417709      H 
       -3.74190202032385       -1.89788951697560        2.11591539609954      H 
       -1.40548471802728        3.56710585615068        1.07992747964081      O 
        0.28729771735582        1.79903742428043        3.15454159011254      H 
       -0.78967918611148        3.14936049451524       -0.60081607121869      H 
       -3.09761583457526        2.86581002985842        1.15720059168035      H 
        3.56749138100001       -0.75679244880963       -0.33314826245045      N 
        3.21635495004693       -2.57591718186508       -0.86908019353686      H 
        5.43775250290648       -0.34246945296353       -0.13334924611187      H 
        2.59868708079320        0.38410692436705       -1.65566440427033      H 
$end
 
 Bond Distances (Angstroems)
 ---------------------------
S1-O2=1.4447         S1-O3=1.4683         S1-O4=1.4456         S1-O5=1.5893         O2-S1=1.4447         O3-S1=1.4683         
O4-S1=1.4456         O5-S1=1.5893         O5-H6=0.9519         H6-O5=0.9519         H7-O10=0.9876        O8-H17=0.9891        
O8-H20=0.9894        H9-N23=1.0847        O10-H7=0.9876        O10-H11=0.9583       H11-O10=0.9583       O12-H13=0.9669       
O12-H14=0.9578       H13-O12=0.9669       H14-O12=0.9578       O15-H16=0.9738       O15-H18=0.9695       H16-O15=0.9738       
H17-O8=0.9891        H18-O15=0.9695       O19-H21=0.9727       O19-H22=0.9702       H20-O8=0.9894        H21-O19=0.9727       
H22-O19=0.9702       N23-H9=1.0847        N23-H24=1.0206       N23-H25=1.0192       N23-H26=1.0569       H24-N23=1.0206       
H25-N23=1.0192       H26-N23=1.0569       
 N  H  Rav=1.0454 sigma=0.0273  Rmin=1.0192  Rmax=1.0847     4
 O  H  Rav=0.9716 sigma=0.0123  Rmin=0.9519  Rmax=0.9894    11
 S  O  Rav=1.4870 sigma=0.0598  Rmin=1.4447  Rmax=1.5893     4
 
 selected bond angles (degree)
 --------------------
O3-S1-O2=111.08                O4-S1-O2=115.29                O4-S1-O3=112.20                O5-S1-O2=105.99                
O5-S1-O3=105.45                O5-S1-O4=105.99                H6-O5-S1=102.72                H20-O8-H17=103.55              
H11-O10-H7=106.32              
 
 selected dihedral angles (degree)
 ---------------------------------
H6-O5-S1-O2=160.46            H6-O5-S1-O3=278.33            H6-O5-S1-O4= 37.48            
 
 CMA Distance (Angstroems)
 ---------------------------
R(CMA):  3.2684

========================================================================
 FINAL SINGLEPOINT CALCULATION ON OPTIMIZED GEOMETRY
========================================================================

 Ncao       : 65
 Nao        : 64
 Nshell     : 38
 Nel        : 80
 T(el)      :   300.0
 intcut     :    25.0
 scfconv/Eh :  0.100E-05
   qconv/e  :  0.100E-03
 intneglect :  0.100E-07
 broydamp   :      0.250
 iter      E             dE          RMSdq      gap      omega  full diag
   1    -50.7580125 -0.507580E+02  0.437E-05    9.11       0.0  T
   2    -50.7580125 -0.973444E-12  0.277E-05    9.11     709.0  T
   3    -50.7580125 -0.525802E-12  0.548E-06    9.11    3578.7  T
speedup  0.67
cpu  time for SCC    0.00 s
wall time for SCC    0.00 s

   *** convergence criteria satisfied after 3 iterations ***

          eigenvalues
 #    :          28         29         30         31         32         33         34         35
 occ. :        2.000      2.000      2.000      2.000      2.000      2.000      2.000      2.000
 eps  :       -13.492    -13.401    -12.504    -12.401    -12.322    -12.243    -12.173    -12.148
 #    :          36         37         38         39         40         41         42         43
 occ. :        2.000      2.000      2.000      2.000      2.000      0.000      0.000      0.000
 eps  :       -12.079    -12.050    -11.905    -11.687    -11.591     -2.486     -0.883     -0.550
 #    :          44         45         46         47         48         49         50         51
 occ. :        0.000      0.000      0.000      0.000      0.000      0.000      0.000      0.000
 eps  :         0.988      1.043      1.066      2.384      3.256      3.668      4.111      4.812


   #   Z            q   n(s)   n(p)   n(d)      C6AA      α(0)
   1  16 S      1.665  1.585  1.796  0.955    89.577    15.929
   2   8 O     -0.726  1.760  4.966  0.000    29.429     7.273
   3   8 O     -0.750  1.774  4.976  0.000    30.100     7.356
   4   8 O     -0.732  1.769  4.963  0.000    29.587     7.293
   5   8 O     -0.591  1.752  4.840  0.000    24.952     6.743
   6   1 H      0.344  0.656  0.000  0.000     0.595     1.207
   7   1 H      0.329  0.671  0.000  0.000     0.639     1.256
   8   8 O     -0.639  1.766  4.872  0.000    26.126     6.899
   9   1 H      0.314  0.686  0.000  0.000     0.673     1.285
  10   8 O     -0.627  1.744  4.883  0.000    25.855     6.863
  11   1 H      0.288  0.712  0.000  0.000     0.758     1.368
  12   8 O     -0.602  1.737  4.864  0.000    25.223     6.778
  13   1 H      0.316  0.684  0.000  0.000     0.676     1.291
  14   1 H      0.280  0.720  0.000  0.000     0.783     1.390
  15   8 O     -0.625  1.752  4.873  0.000    25.783     6.853
  16   1 H      0.312  0.688  0.000  0.000     0.685     1.300
  17   1 H      0.334  0.666  0.000  0.000     0.627     1.244
  18   1 H      0.313  0.687  0.000  0.000     0.683     1.298
  19   8 O     -0.625  1.751  4.873  0.000    25.790     6.854
  20   1 H      0.333  0.667  0.000  0.000     0.629     1.246
  21   1 H      0.310  0.690  0.000  0.000     0.693     1.308
  22   1 H      0.315  0.685  0.000  0.000     0.678     1.293
  23   7 N     -0.342  1.268  4.074  0.000    28.790     7.969
  24   1 H      0.256  0.744  0.000  0.000     0.860     1.452
  25   1 H      0.261  0.739  0.000  0.000     0.841     1.437
  26   1 H      0.288  0.712  0.000  0.000     0.751     1.357

 Mol. C6AA /au·bohr⁶  :       5444.138221
 Mol. C8AA /au·bohr⁸  :     117853.128274
 Mol. α(0) /au        :        106.544586

 
 Wiberg/Mayer (AO) data. WBOs > 0.1 written file <wbo>
 largest (>0.05) Wiberg bond orders for each atom
           total WBO             WBO to atom ...
     1  S   4.869    O    2 1.360    O    4 1.338    O    3 1.248    O    5 0.888
     2  O   1.732    S    1 1.360    O    4 0.113    O    3 0.112    O    5 0.063
     3  O   1.741    S    1 1.248    O    2 0.112    O    4 0.105    H   26 0.103    O    5 0.071
     4  O   1.736    S    1 1.338    O    2 0.113    O    3 0.105    O    5 0.076    H    7 0.072
     5  O   1.969    S    1 0.888    H    6 0.865    O    4 0.076    O    3 0.071    O    2 0.063
     6  H   0.882    O    5 0.865
     7  H   0.892    O   10 0.815    O    4 0.072
     8  O   1.951    H   20 0.815    H   17 0.812    H    9 0.157    N   23 0.072
     9  H   0.901    N   23 0.735    O    8 0.157
    10  O   1.854    H   11 0.909    H    7 0.815
    11  H   0.917    O   10 0.909
    12  O   1.825    H   14 0.918    H   13 0.880
    13  H   0.900    O   12 0.880
    14  H   0.921    O   12 0.918
    15  O   1.874    H   18 0.868    H   16 0.858    H   17 0.071
    16  H   0.902    O   15 0.858
    17  H   0.888    O    8 0.812    O   15 0.071
    18  H   0.902    O   15 0.868
    19  O   1.874    H   22 0.865    H   21 0.862    H   20 0.071
    20  H   0.889    O    8 0.815    O   19 0.071
    21  H   0.904    O   19 0.862
    22  H   0.901    O   19 0.865
    23  N   3.523    H   25 0.918    H   24 0.918    H   26 0.808    H    9 0.735    O    8 0.072
    24  H   0.934    N   23 0.918
    25  H   0.932    N   23 0.918
    26  H   0.917    N   23 0.808    O    3 0.103
 MOs/occ written to file <molden.input>
 
molecular dipole:
                 x           y           z       tot (Debye)
 q only:        1.434       0.284       0.448
   full:        0.777       0.363      -0.418       2.426
molecular quadrupole (traceless):
                xx          xy          yy          xz          yz          zz
 q only:       12.141      -2.121     -10.236       2.342      -0.319      -1.905
  q+dip:       13.603      -1.533     -14.072       5.928       0.719       0.469
   full:       13.867      -1.605     -14.779       5.804       0.926       0.912

SCC energy    :     -50.7580125
rep           :       0.2942415
ES            :       0.2658396
AES           :      -0.0735284
AXC           :      -0.0081179
disp          :      -0.0192487
XB            :       0.0000000
fix           :       0.0000000
total E       :     -50.4635408
atomizationE  :       4.9938450     3133.69
(atE without considering molecular charge,
 total energy contains solvation terms)
H-L gap (eV)  :          9.1051
optimized geometry written to: xtbopt.xyz


------------------------------------------------------------------------
 * finished run on 2019/09/16 at 12:46:35.365     
------------------------------------------------------------------------
 total:
 * wall-time:     0 d,  0 h,  0 min,  7.456 sec
 *  cpu-time:     0 d,  0 h,  0 min,  4.519 sec
 * ratio c/w:     0.606 speedup
 SCF:
 * wall-time:     0 d,  0 h,  0 min,  0.519 sec
 *  cpu-time:     0 d,  0 h,  0 min,  0.515 sec
 * ratio c/w:     0.992 speedup
 ANC optimizer:
 * wall-time:     0 d,  0 h,  0 min,  6.693 sec
 *  cpu-time:     0 d,  0 h,  0 min,  3.954 sec
 * ratio c/w:     0.591 speedup

