      -----------------------------------------------------------      
     |                   =====================                   |     
     |                           x T B                           |     
     |                   =====================                   |     
     |                         S. Grimme                         |     
     |          Mulliken Center for Theoretical Chemistry        |     
     |                    University of Bonn                     |     
     |                 Version 6.0.1 (SAW181210)                 |     
      -----------------------------------------------------------      

   This program is distributed in the hope that it will be useful,
   but WITHOUT ANY WARRANTY; without even the implied warranty of
   MERCHANTABILITY or FITNESS FOR A PARTICULAR PURPOSE.
   
   FOR NON-COMMERCIAL, ACADEMIA USE ONLY.
   
   Cite this work as:
   S. Grimme, C. Bannwarth, P. Shushkov, J. Comput. Theory Chem., 2017,
   13, 1989-2009.
   C. Bannwarth, S. Ehlert and S. Grimme., ChemRxiv, 2018, preprint.
   http://doi.org/10.26434/chemrxiv.7246238.v1
   
   for sTDA-xTB:
   S. Grimme and C. Bannwarth, J. Chem. Phys., 2016, 145, 054103.
   
   in the mass-spec context:
   V. Asgeirsson, C. Bauer and S. Grimme, Chem. Sci., 2017, 8, 4879.
   
   if GBSA is used:
   P. Shushkov, F. März and S. Grimme, unpublished.
   
   for ANC optimizer:
   S. Grimme, unpublished.
   Rational Function algorithm used in ANCopt:
   F. Eckert, P. Pulay, H.-J. Werner, J. Comput. Chem., 1997, 18, 1473.
   
   with help from (in alphabetical order)
   C. Bannwarth, F. Bohle, G. Brandenburg, E. Caldeweyher, M. Checinski,
   S. Dohm, S. Ehlert, S. Ehrlich, F. März, H. Neugebauer, J. Pisarek,
   P. Pracht, P. Shushkov, and S. Spicher.
   
 * started run on 2019/09/16 at 12:22:20.248     
========================================================================
 # omp threads = 1
========================================================================
number of atoms            : 26
number of electrons        : 80
charge                     : 0
spin                       : .0
first test random number   : .1421

########################################################################
# WARNING! Please study the warnings concerning your input carefully
#  - XTBPATH is not set, using XTBHOME instead
#  - the use of '-opt' is discouraged, please use '--opt' next time
#  - the use of '-chrg' is discouraged, please use '--chrg' next time
#  - the use of '-uhf' is discouraged, please use '--uhf' next time
########################################################################

           ------------------------------------------------- 
          |                 G F N 2 - x T B                 |
          | Geometry, Frequencies, Noncovalent interactions |
          |            JCTC 2018 parametrisation            |
           ------------------------------------------------- 
      method parameters     
 k(s)        :  1.8500
 k(p)        :  2.2300
 k(d)        :  2.2300
 k(f)        :  2.0000
 kEN (H0ij)  : -2.0000
 D4 a1       :  0.5200
 D4 a2       :  5.0000
 D4 s6       :  1.0000
 D4 s8       :  2.7000
 D4 s9       :  5.0000
 alphaj      :  2.0000


            Z     q(EN)     CN     RAES       Cart. coordinates
     1  S   6.0    0.58    4.28    4.20     0.76484    -4.11524     3.81893
     2  O   6.0   -0.31    1.13    1.80     0.46994    -4.35755     1.09207
     3  O   6.0   -0.28    1.09    1.80     3.19495    -4.13795     5.05654
     4  O   6.0   -0.24    2.06    1.83    -0.84574    -1.62452     4.68366
     5  O   6.0   -0.22    2.04    1.83    -0.91284    -6.20312     5.26594
     6  H   1.0    0.14    1.11    1.45    -2.53434    -6.37756     4.41349
     7  H   1.0    0.17    1.28    1.49    -0.76872    -0.41836     3.29600
     8  O   6.0   -0.44    1.82    1.81    -0.07148     1.58657     1.37204
     9  H   1.0    0.17    0.96    1.42    -0.49498     2.83788     2.69061
    10  O   6.0   -0.27    1.96    1.82     4.51629     0.53850     1.12429
    11  H   1.0    0.16    0.97    1.43     5.18158     0.20535     2.78592
    12  H   1.0    0.17    1.12    1.45     2.78430     1.03300     1.38937
    13  O   6.0   -0.29    2.04    1.83    -3.37673     3.24751    -1.62775
    14  H   1.0    0.15    0.98    1.43    -2.47652     4.76416    -2.07944
    15  H   1.0    0.17    1.09    1.44    -2.41820     2.50513    -0.26955
    16  O   6.0   -0.28    1.97    1.82     1.77748     4.78446    -1.60587
    17  H   1.0    0.15    0.97    1.43     3.53694     4.93910    -1.16430
    18  H   1.0    0.16    1.12    1.45     1.06352     3.66994    -0.35578
    19  O   6.0   -0.29    2.02    1.83    -3.68206    -0.02861    -5.40368
    20  H   1.0    0.15    0.97    1.43    -5.17869     0.03663    -6.43831
    21  H   1.0    0.16    1.04    1.43    -3.93823     1.22340    -4.10698
    22  N   5.0   -0.14    3.96    2.75     0.68174    -0.82174    -2.78744
    23  H   1.0    0.10    1.05    1.44    -0.78958    -0.66422    -4.05032
    24  H   1.0    0.09    0.99    1.43     2.33649    -0.26780    -3.64732
    25  H   1.0    0.12    1.13    1.45     0.33889     0.31604    -1.24720
    26  H   1.0    0.11    1.01    1.43     0.84115    -2.67099    -2.20493

  Z AO/shell   Hii/eV     exponent
  1     Wed Apr 25 08:07:45 CEST 2018   EN: 2.200 GM2: 0.406  GM3: 0.0800  RAES: 1.40
     1s    -10.707211    1.230000
  7     Wed Apr 25 08:07:45 CEST 2018   EN: 3.040 GM2: 0.461  GM3:-0.0640  RAES: 1.90
     2s    -16.686243    2.339881
     2p    -12.523956    2.014332
  8     Wed Apr 25 08:07:45 CEST 2018   EN: 3.440 GM2: 0.452  GM3:-0.0517  RAES: 1.80
     2s    -20.229985    2.439742
     2p    -15.503117    2.137023
 16     Tue Apr 24 11:44:34 CEST 2018   EN: 2.580 GM2: 0.340  GM3:-0.0502  RAES: 3.10
     3s    -20.029654    1.981333
     3p    -11.377694    2.025643
     3d     -0.420282    1.702555
 no old-style atom pair restraining (fixing) potential

molecular fragmentation (1/2 indicates fragments):
11111112222222222222222222
# atoms in fragment 1/2:     7    19
 fragment masses (1/2) :       98.07      107.11
CMA distance (Bohr)    :   7.845
constraining FC (au)   :  0.0500
           ------------------------------------------------- 
          |        Self-Consistent Charge Iterations        |
           ------------------------------------------------- 

 Ncao       : 65
 Nao        : 64
 Nshell     : 38
 Nel        : 80
 T(el)      :   300.0
 intcut     :    25.0
 scfconv/Eh :  0.100E-05
   qconv/e  :  0.100E-03
 intneglect :  0.100E-07
 broydamp   :      0.250
 iter      E             dE          RMSdq      gap      omega  full diag
   1    -50.5776715 -0.505777E+02  0.713E+00    8.14       0.0  T
   2    -50.6297653 -0.520938E-01  0.501E+00    7.45       1.0  T
   3    -50.6719097 -0.421444E-01  0.119E+00    5.79       1.0  T
   4    -50.6752263 -0.331663E-02  0.685E-01    5.87       1.0  T
   5    -50.6767971 -0.157078E-02  0.254E-01    5.88       1.0  T
   6    -50.6770785 -0.281427E-03  0.154E-01    5.89       1.0  T
   7    -50.6772319 -0.153424E-03  0.417E-02    5.89       1.0  T
   8    -50.6772404 -0.847609E-05  0.233E-02    5.89       1.0  T
   9    -50.6772431 -0.264902E-05  0.894E-03    5.89       2.2  T
  10    -50.6772435 -0.395103E-06  0.250E-03    5.90       7.9  T
  11    -50.6772435 -0.160245E-07  0.117E-03    5.89      16.8  T
  12    -50.6772435 -0.637106E-08  0.333E-04    5.89      59.0  T
  13    -50.6772435 -0.328029E-09  0.165E-04    5.89     118.6  T
speedup  0.96
cpu  time for SCC    0.01 s
wall time for SCC    0.01 s

   *** convergence criteria satisfied after 13 iterations ***

          eigenvalues
 #    :          28         29         30         31         32         33         34         35
 occ. :        2.000      2.000      2.000      2.000      2.000      2.000      2.000      2.000
 eps  :       -13.236    -13.203    -13.030    -12.944    -12.799    -12.632    -12.439    -12.278
 #    :          36         37         38         39         40         41         42         43
 occ. :        2.000      2.000      2.000      2.000      2.000      0.000      0.000      0.000
 eps  :       -11.726    -11.269    -11.156    -10.961    -10.852     -4.958     -2.289     -1.401
 #    :          44         45         46         47         48         49         50         51
 occ. :        0.000      0.000      0.000      0.000      0.000      0.000      0.000      0.000
 eps  :        -1.015      0.296      1.172      1.942      2.586      3.545      4.121      4.302


   #   Z            q   n(s)   n(p)   n(d)      C6AA      α(0)
   1  16 S      1.639  1.628  1.803  0.930    90.159    15.981
   2   8 O     -0.671  1.764  4.907  0.000    27.938     7.087
   3   8 O     -0.608  1.769  4.839  0.000    26.316     6.878
   4   8 O     -0.622  1.772  4.850  0.000    25.687     6.842
   5   8 O     -0.557  1.755  4.802  0.000    24.143     6.633
   6   1 H      0.350  0.650  0.000  0.000     0.587     1.202
   7   1 H      0.377  0.623  0.000  0.000     0.525     1.136
   8   8 O     -0.863  1.844  5.019  0.000    33.584     7.769
   9   1 H      0.248  0.752  0.000  0.000     0.903     1.493
  10   8 O     -0.658  1.755  4.903  0.000    26.620     6.964
  11   1 H      0.267  0.733  0.000  0.000     0.830     1.431
  12   1 H      0.319  0.681  0.000  0.000     0.666     1.281
  13   8 O     -0.652  1.756  4.896  0.000    26.465     6.943
  14   1 H      0.302  0.698  0.000  0.000     0.716     1.329
  15   1 H      0.326  0.674  0.000  0.000     0.648     1.264
  16   8 O     -0.664  1.760  4.904  0.000    26.774     6.984
  17   1 H      0.271  0.729  0.000  0.000     0.815     1.418
  18   1 H      0.325  0.675  0.000  0.000     0.649     1.265
  19   8 O     -0.625  1.735  4.890  0.000    25.782     6.853
  20   1 H      0.282  0.718  0.000  0.000     0.776     1.384
  21   1 H      0.333  0.667  0.000  0.000     0.630     1.246
  22   7 N     -0.299  1.251  4.048  0.000    27.676     7.813
  23   1 H      0.302  0.698  0.000  0.000     0.708     1.318
  24   1 H      0.262  0.738  0.000  0.000     0.839     1.435
  25   1 H      0.339  0.661  0.000  0.000     0.607     1.220
  26   1 H      0.278  0.722  0.000  0.000     0.783     1.386

 Mol. C6AA /au·bohr⁶  :       5444.435871
 Mol. C8AA /au·bohr⁸  :     117863.330267
 Mol. α(0) /au        :        106.556276

 
 Wiberg/Mayer (AO) data. WBOs > 0.1 written file <wbo>
 largest (>0.05) Wiberg bond orders for each atom
           total WBO             WBO to atom ...
     1  S   4.780    O    3 1.492    O    2 1.394    O    4 0.939    O    5 0.927
     2  O   1.760    S    1 1.394    O    3 0.144    O    4 0.103    O    5 0.087
     3  O   1.831    S    1 1.492    O    2 0.144    O    4 0.103    O    5 0.076
     4  O   1.949    S    1 0.939    H    7 0.697    O    2 0.103    O    3 0.103    O    5 0.054
     5  O   2.011    S    1 0.927    H    6 0.859    O    2 0.087    O    3 0.076    O    4 0.054
     6  H   0.878    O    5 0.859
     7  H   0.858    O    4 0.697    O    8 0.139
     8  O   1.625    H    9 0.911    H    7 0.139    H   12 0.098    H   18 0.090    H   15 0.088    H   25 0.083
     9  H   0.939    O    8 0.911
    10  O   1.780    H   11 0.926    H   12 0.792
    11  H   0.929    O   10 0.926
    12  H   0.898    O   10 0.792    O    8 0.098
    13  O   1.841    H   14 0.900    H   15 0.796    H   21 0.060
    14  H   0.909    O   13 0.900
    15  H   0.894    O   13 0.796    O    8 0.088
    16  O   1.777    H   17 0.921    H   18 0.789
    17  H   0.926    O   16 0.921
    18  H   0.894    O   16 0.789    O    8 0.090
    19  O   1.833    H   20 0.906    H   21 0.827
    20  H   0.920    O   19 0.906
    21  H   0.889    O   19 0.827    O   13 0.060
    22  N   3.560    H   24 0.927    H   26 0.897    H   23 0.853    H   25 0.783
    23  H   0.909    N   22 0.853
    24  H   0.931    N   22 0.927
    25  H   0.885    N   22 0.783    O    8 0.083
    26  H   0.923    N   22 0.897
 MOs/occ written to file <molden.input>
 
molecular dipole:
                 x           y           z       tot (Debye)
 q only:       -1.074      -0.601      -1.888
   full:       -1.250      -0.365      -1.327       4.726
molecular quadrupole (traceless):
                xx          xy          yy          xz          yz          zz
 q only:       -0.037       7.794      -0.513      -5.634       9.515       0.551
  q+dip:        0.005       9.932       0.421      -4.619      11.164      -0.426
   full:        0.178       9.972       0.421      -4.491      10.741      -0.598

SCC energy    :     -50.6772435
rep           :       0.2914514
ES            :       0.2901210
AES           :      -0.0535866
AXC           :      -0.0045370
disp          :      -0.0179597
XB            :       0.0000000
fix           :       0.0000000
total E       :     -50.3855516
atomizationE  :       4.9158558     3084.75
(atE without considering molecular charge,
 total energy contains solvation terms)
H-L gap (eV)  :          5.8943
           ------------------------------------------------- 
          |                 ===============                 |
          |                   A N C O P T                   |
          |                 ===============                 |
          |          Approximate Normal Coordinate          |
          |           Rational Function Optimizer           |
           ------------------------------------------------- 
dumping coords to <xtbopt.coord> and <xtbopt.log>
 optlevel               2
 Maxcycle             520
 Maxmicro              25
 Econv         1.000000000000000E-007
 Gconv         2.000000000000000E-004
 Maxdispl       1.00000000000000     
 Hlow          5.000000000000000E-003
 S6             20.0000000000000     
 Nvar               72

generating ANC from model Hessian ...
 Shifting diagonal of input Hessian by   7.889372434687444E-003
 Lowest  eigenvalues of input Hessian
    0.005000    0.006691    0.007593    0.007823   -0.000000   -0.000000
   -0.000000    0.000000    0.000000    0.000000    0.008077    0.008216
    0.008366    0.008479    0.008537    0.008936    0.009352    0.009414
 Highest eigenvalues
    1.429613    1.433321    1.442111    1.951956    2.768226    3.590437
 
cpu  time for ANC gen    0.02 s
wall time for ANC gen    0.02 s
................................................................................
.............................. CYCLE    1 ......................................
................................................................................
   1    -50.6772435 -0.506772E+02  0.514E-05    5.89       0.0  T
   2    -50.6772435 -0.434142E-11  0.401E-05    5.89     489.5  T
   3    -50.6772435 -0.504485E-11  0.163E-05    5.89    1205.4  T
speedup  1.07
cpu  time for SCC    0.00 s
wall time for SCC    0.00 s
speedup  1.00
cpu  time for grad    0.01 s
wall time for grad    0.01 s
 E :    -50.38555160  G :  0.127735    pred/act E change:  0.000D+00  0.253D-07
Maxdispl :   0.1410   ||displ|| :   0.4242   Lambda : -0.226D-01
Largest |displ|/coords:  0.1410 (  30)  0.1406 (  16)  0.1145 (  34)
................................................................................
.............................. CYCLE    2 ......................................
................................................................................
   1    -50.6899809 -0.506900E+02  0.354E-01    6.55       0.0  T
   2    -50.6901795 -0.198600E-03  0.261E-01    6.52       1.0  T
   3    -50.6902745 -0.949902E-04  0.764E-02    6.47       1.0  T
   4    -50.6902888 -0.142241E-04  0.286E-02    6.49       1.0  T
   5    -50.6902908 -0.203551E-05  0.631E-03    6.50       3.1  T
   6    -50.6902909 -0.615429E-07  0.370E-03    6.50       5.3  T
   7    -50.6902909 -0.233439E-07  0.122E-03    6.50      16.0  T
speedup  1.09
cpu  time for SCC    0.01 s
wall time for SCC    0.01 s
speedup  1.01
cpu  time for grad    0.01 s
wall time for grad    0.01 s
 E :    -50.40174001  G :  0.072292    pred/act E change:  0.000D+00 -0.162D-01
Maxdispl :   0.1779   ||displ|| :   0.3405   Lambda : -0.802D-02
Largest |displ|/coords:  0.1779 (  16)  0.1216 (  12)  0.1002 (  18)
................................................................................
.............................. CYCLE    3 ......................................
................................................................................
   1    -50.6987253 -0.506987E+02  0.247E-01    7.01       0.0  T
   2    -50.6987739 -0.485709E-04  0.182E-01    7.02       1.0  T
   3    -50.6987967 -0.228388E-04  0.400E-02    7.05       1.0  T
   4    -50.6988019 -0.520356E-05  0.163E-02    7.06       1.2  T
   5    -50.6988024 -0.448955E-06  0.343E-03    7.06       5.7  T
   6    -50.6988024 -0.154017E-07  0.222E-03    7.06       8.8  T
speedup  1.07
cpu  time for SCC    0.01 s
wall time for SCC    0.01 s
speedup  1.07
cpu  time for grad    0.01 s
wall time for grad    0.01 s
 E :    -50.40829796  G :  0.052397    pred/act E change: -0.133D-01 -0.656D-02
Maxdispl :   0.1402   ||displ|| :   0.3118   Lambda : -0.480D-02
Largest |displ|/coords:  0.1402 (  16)  0.1319 (  19)  0.1040 (  10)
................................................................................
.............................. CYCLE    4 ......................................
................................................................................
   1    -50.7039444 -0.507039E+02  0.202E-01    7.46       0.0  T
   2    -50.7039703 -0.258835E-04  0.148E-01    7.49       1.0  T
   3    -50.7039837 -0.134232E-04  0.296E-02    7.56       1.0  T
   4    -50.7039863 -0.260387E-05  0.114E-02    7.56       1.7  T
   5    -50.7039865 -0.192937E-06  0.264E-03    7.56       7.4  T
   6    -50.7039865 -0.917357E-08  0.171E-03    7.56      11.5  T
speedup  1.09
cpu  time for SCC    0.01 s
wall time for SCC    0.01 s
speedup  1.00
cpu  time for grad    0.01 s
wall time for grad    0.01 s
 E :    -50.41246592  G :  0.041614    pred/act E change: -0.448D-02 -0.417D-02
Maxdispl :   0.2508   ||displ|| :   0.6339   Lambda : -0.887D-02
Largest |displ|/coords:  0.2508 (  19)  0.2387 (  16)  0.2078 (  12)
................................................................................
.............................. CYCLE    5 ......................................
................................................................................
   1    -50.7088862 -0.507089E+02  0.513E-01    8.24       0.0  T
   2    -50.7090986 -0.212339E-03  0.374E-01    8.37       1.0  T
   3    -50.7092191 -0.120560E-03  0.849E-02    8.66       1.0  T
   4    -50.7092374 -0.182420E-04  0.236E-02    8.63       1.0  T
   5    -50.7092385 -0.111164E-05  0.754E-03    8.62       2.6  T
   6    -50.7092386 -0.711381E-07  0.452E-03    8.62       4.3  T
   7    -50.7092386 -0.357076E-07  0.164E-03    8.62      11.9  T
speedup  1.13
cpu  time for SCC    0.01 s
wall time for SCC    0.01 s
speedup  0.94
cpu  time for grad    0.01 s
wall time for grad    0.01 s
 E :    -50.41858619  G :  0.047532    pred/act E change: -0.264D-02 -0.612D-02
Maxdispl :   0.3099   ||displ|| :   0.6617   Lambda : -0.106D-01
Largest |displ|/coords:  0.3099 (  19)  0.2291 (  16)  0.1926 (  13)
................................................................................
.............................. CYCLE    6 ......................................
................................................................................
   1    -50.7278766 -0.507279E+02  0.688E-01    9.32       0.0  T
   2    -50.7285104 -0.633761E-03  0.502E-01    9.37       1.0  T
   3    -50.7288836 -0.373220E-03  0.131E-01    9.31       1.0  T
   4    -50.7289342 -0.506341E-04  0.359E-02    9.30       1.0  T
   5    -50.7289367 -0.251404E-05  0.135E-02    9.31       1.4  T
   6    -50.7289370 -0.259471E-06  0.897E-03    9.31       2.2  T
   7    -50.7289371 -0.123250E-06  0.211E-03    9.31       9.3  T
   8    -50.7289371 -0.796987E-08  0.535E-04    9.31      36.7  T
speedup  0.92
cpu  time for SCC    0.01 s
wall time for SCC    0.01 s
speedup  0.93
cpu  time for grad    0.01 s
wall time for grad    0.02 s
 E :    -50.41737948  G :  0.111101    pred/act E change: -0.622D-02  0.121D-02
Maxdispl :   0.2095   ||displ|| :   0.4228   Lambda : -0.200D-01
Largest |displ|/coords:  0.2095 (  13)  0.1576 (  12)  0.1120 (   8)
................................................................................
.............................. CYCLE    7 ......................................
................................................................................
   1    -50.7047070 -0.507047E+02  0.599E-01    8.65       0.0  T
   2    -50.7050070 -0.300059E-03  0.445E-01    8.66       1.0  T
   3    -50.7052055 -0.198437E-03  0.933E-02    8.57       1.0  T
   4    -50.7052373 -0.318792E-04  0.214E-02    8.57       1.0  T
   5    -50.7052379 -0.578417E-06  0.102E-02    8.57       1.9  T
   6    -50.7052381 -0.141130E-06  0.333E-03    8.58       5.9  T
   7    -50.7052381 -0.256314E-07  0.138E-03    8.58      14.2  T
speedup  0.97
cpu  time for SCC    0.01 s
wall time for SCC    0.01 s
speedup  1.01
cpu  time for grad    0.01 s
wall time for grad    0.01 s
 E :    -50.42238099  G :  0.060463    pred/act E change: -0.761D-02 -0.500D-02
Maxdispl :   0.2115   ||displ|| :   0.4788   Lambda : -0.113D-01
Largest |displ|/coords:  0.2115 (  16)  0.1800 (  19)  0.1135 (  25)
................................................................................
.............................. CYCLE    8 ......................................
................................................................................
   1    -50.7268962 -0.507269E+02  0.540E-01    9.14       0.0  T
   2    -50.7272995 -0.403335E-03  0.394E-01    9.16       1.0  T
   3    -50.7275476 -0.248089E-03  0.106E-01    9.17       1.0  T
   4    -50.7275801 -0.324587E-04  0.317E-02    9.17       1.0  T
   5    -50.7275821 -0.206704E-05  0.115E-02    9.18       1.7  T
   6    -50.7275823 -0.166056E-06  0.751E-03    9.18       2.6  T
   7    -50.7275824 -0.923396E-07  0.178E-03    9.18      11.0  T
   8    -50.7275824 -0.627576E-08  0.432E-04    9.18      45.4  T
speedup  1.00
cpu  time for SCC    0.01 s
wall time for SCC    0.01 s
speedup  1.01
cpu  time for grad    0.01 s
wall time for grad    0.01 s
 E :    -50.42612869  G :  0.052759    pred/act E change: -0.118D-01 -0.375D-02
Maxdispl :   0.1460   ||displ|| :   0.3235   Lambda : -0.599D-02
Largest |displ|/coords:  0.1460 (  10)  0.1193 (   8)  0.1143 (  19)
................................................................................
.............................. CYCLE    9 ......................................
................................................................................
   1    -50.7177579 -0.507178E+02  0.355E-01    8.99       0.0  T
   2    -50.7178046 -0.466844E-04  0.269E-01    9.01       1.0  T
   3    -50.7178372 -0.326316E-04  0.409E-02    9.05       1.0  T
   4    -50.7178440 -0.678150E-05  0.171E-02    9.03       1.1  T
   5    -50.7178444 -0.375171E-06  0.389E-03    9.02       5.0  T
   6    -50.7178444 -0.163357E-07  0.247E-03    9.02       7.9  T
speedup  0.93
cpu  time for SCC    0.00 s
wall time for SCC    0.01 s
speedup  1.00
cpu  time for grad    0.01 s
wall time for grad    0.01 s
 E :    -50.42978589  G :  0.037003    pred/act E change: -0.697D-02 -0.366D-02
Maxdispl :   0.1860   ||displ|| :   0.4438   Lambda : -0.427D-02
Largest |displ|/coords:  0.1860 (  19)  0.1651 (  16)  0.1484 (  20)
................................................................................
.............................. CYCLE   10 ......................................
................................................................................
   1    -50.7221519 -0.507222E+02  0.345E-01    8.91       0.0  T
   2    -50.7222843 -0.132390E-03  0.256E-01    8.94       1.0  T
   3    -50.7223569 -0.725757E-04  0.725E-02    8.98       1.0  T
   4    -50.7223700 -0.130824E-04  0.275E-02    8.98       1.0  T
   5    -50.7223712 -0.116105E-05  0.662E-03    8.98       3.0  T
   6    -50.7223712 -0.708813E-07  0.418E-03    8.98       4.7  T
   7    -50.7223713 -0.323093E-07  0.107E-03    8.98      18.3  T
speedup  1.13
cpu  time for SCC    0.01 s
wall time for SCC    0.01 s
speedup  1.01
cpu  time for grad    0.01 s
wall time for grad    0.01 s
 E :    -50.43305784  G :  0.043503    pred/act E change: -0.331D-02 -0.327D-02
Maxdispl :   0.2037   ||displ|| :   0.5394   Lambda : -0.655D-02
Largest |displ|/coords:  0.2037 (  16)  0.1909 (  19)  0.1480 (  20)
................................................................................
.............................. CYCLE   11 ......................................
................................................................................
   1    -50.7315989 -0.507316E+02  0.393E-01    8.92       0.0  T
   2    -50.7317261 -0.127188E-03  0.295E-01    8.91       1.0  T
   3    -50.7318047 -0.786435E-04  0.667E-02    8.89       1.0  T
   4    -50.7318206 -0.159214E-04  0.253E-02    8.89       1.0  T
   5    -50.7318216 -0.986422E-06  0.692E-03    8.89       2.8  T
   6    -50.7318217 -0.782200E-07  0.431E-03    8.89       4.5  T
   7    -50.7318217 -0.333377E-07  0.114E-03    8.89      17.2  T
speedup  0.97
cpu  time for SCC    0.01 s
wall time for SCC    0.01 s
speedup  0.95
cpu  time for grad    0.01 s
wall time for grad    0.01 s
 E :    -50.43703849  G :  0.027904    pred/act E change: -0.256D-02 -0.398D-02
Maxdispl :   0.2109   ||displ|| :   0.4806   Lambda : -0.396D-02
Largest |displ|/coords:  0.2109 (   7)  0.1403 (  11)  0.1359 (   3)
................................................................................
.............................. CYCLE   12 ......................................
................................................................................
   1    -50.7396122 -0.507396E+02  0.525E-01    8.95       0.0  T
   2    -50.7397158 -0.103569E-03  0.397E-01    8.94       1.0  T
   3    -50.7397922 -0.764061E-04  0.592E-02    8.91       1.0  T
   4    -50.7398065 -0.143016E-04  0.181E-02    8.92       1.1  T
   5    -50.7398068 -0.378480E-06  0.589E-03    8.92       3.3  T
   6    -50.7398069 -0.303676E-07  0.330E-03    8.92       5.9  T
speedup  0.93
cpu  time for SCC    0.00 s
wall time for SCC    0.01 s
speedup  1.01
cpu  time for grad    0.01 s
wall time for grad    0.01 s
 E :    -50.43710451  G :  0.053153    pred/act E change: -0.422D-02 -0.660D-04
Maxdispl :   0.1656   ||displ|| :   0.3554   Lambda : -0.573D-02
Largest |displ|/coords:  0.1656 (   7)  0.1226 (  10)  0.1209 (  25)
................................................................................
.............................. CYCLE   13 ......................................
................................................................................
   1    -50.7341529 -0.507342E+02  0.449E-01    9.06       0.0  T
   2    -50.7342448 -0.918648E-04  0.340E-01    9.07       1.0  T
   3    -50.7343089 -0.640575E-04  0.542E-02    9.07       1.0  T
   4    -50.7343221 -0.132360E-04  0.176E-02    9.07       1.1  T
   5    -50.7343226 -0.511369E-06  0.575E-03    9.07       3.4  T
   6    -50.7343226 -0.348129E-07  0.305E-03    9.07       6.4  T
speedup  0.93
cpu  time for SCC    0.00 s
wall time for SCC    0.01 s
speedup  1.01
cpu  time for grad    0.01 s
wall time for grad    0.01 s
 E :    -50.43781255  G :  0.048700    pred/act E change: -0.244D-02 -0.708D-03
Maxdispl :   0.0931   ||displ|| :   0.2090   Lambda : -0.409D-02
Largest |displ|/coords:  0.0931 (  18)  0.0647 (  15)  0.0535 (   3)
................................................................................
.............................. CYCLE   14 ......................................
................................................................................
   1    -50.7319097 -0.507319E+02  0.192E-01    8.94       0.0  T
   2    -50.7319512 -0.414649E-04  0.143E-01    8.94       1.0  T
   3    -50.7319806 -0.294182E-04  0.398E-02    8.95       1.0  T
   4    -50.7319847 -0.406876E-05  0.130E-02    8.95       1.5  T
   5    -50.7319850 -0.267533E-06  0.405E-03    8.95       4.8  T
   6    -50.7319850 -0.249541E-07  0.188E-03    8.95      10.4  T
speedup  0.94
cpu  time for SCC    0.01 s
wall time for SCC    0.01 s
speedup  1.02
cpu  time for grad    0.01 s
wall time for grad    0.01 s
 E :    -50.43871967  G :  0.032969    pred/act E change: -0.323D-02 -0.907D-03
Maxdispl :   0.1424   ||displ|| :   0.2880   Lambda : -0.322D-02
Largest |displ|/coords:  0.1424 (  11)  0.1369 (   3)  0.0840 (   7)
................................................................................
.............................. CYCLE   15 ......................................
................................................................................
   1    -50.7424226 -0.507424E+02  0.324E-01    9.05       0.0  T
   2    -50.7424698 -0.471442E-04  0.246E-01    9.04       1.0  T
   3    -50.7425105 -0.407273E-04  0.369E-02    9.02       1.0  T
   4    -50.7425161 -0.561583E-05  0.125E-02    9.02       1.6  T
   5    -50.7425163 -0.203996E-06  0.466E-03    9.03       4.2  T
   6    -50.7425164 -0.201552E-07  0.244E-03    9.03       8.0  T
speedup  0.94
cpu  time for SCC    0.00 s
wall time for SCC    0.01 s
speedup  0.99
cpu  time for grad    0.01 s
wall time for grad    0.01 s
 E :    -50.43869966  G :  0.038916    pred/act E change: -0.213D-02  0.200D-04
Maxdispl :   0.1154   ||displ|| :   0.1992   Lambda : -0.265D-02
Largest |displ|/coords:  0.1154 (  11)  0.0579 (  12)  0.0535 (  14)
................................................................................
.............................. CYCLE   16 ......................................
................................................................................
   1    -50.7414630 -0.507415E+02  0.214E-01    9.03       0.0  T
   2    -50.7414783 -0.152815E-04  0.162E-01    9.03       1.0  T
   3    -50.7414923 -0.139760E-04  0.209E-02    9.03       1.0  T
   4    -50.7414939 -0.159215E-05  0.719E-03    9.03       2.7  T
   5    -50.7414940 -0.656599E-07  0.279E-03    9.03       7.0  T
   6    -50.7414940 -0.674751E-08  0.137E-03    9.03      14.4  T
speedup  0.94
cpu  time for SCC    0.00 s
wall time for SCC    0.01 s
speedup  1.02
cpu  time for grad    0.01 s
wall time for grad    0.01 s
 E :    -50.43996190  G :  0.022321    pred/act E change: -0.174D-02 -0.126D-02
Maxdispl :   0.1191   ||displ|| :   0.2667   Lambda : -0.164D-02
Largest |displ|/coords:  0.1191 (   7)  0.1118 (  10)  0.0802 (  11)
................................................................................
.............................. CYCLE   17 ......................................
................................................................................
   1    -50.7289797 -0.507290E+02  0.288E-01    9.00       0.0  T
   2    -50.7290139 -0.342380E-04  0.218E-01    9.01       1.0  T
   3    -50.7290382 -0.242757E-04  0.316E-02    9.03       1.0  T
   4    -50.7290430 -0.477122E-05  0.932E-03    9.02       2.1  T
   5    -50.7290431 -0.154790E-06  0.346E-03    9.02       5.7  T
   6    -50.7290431 -0.128278E-07  0.175E-03    9.02      11.2  T
speedup  0.94
cpu  time for SCC    0.00 s
wall time for SCC    0.01 s
speedup  1.02
cpu  time for grad    0.01 s
wall time for grad    0.01 s
 E :    -50.43956990  G :  0.042020    pred/act E change: -0.138D-02  0.392D-03
Maxdispl :   0.0868   ||displ|| :   0.1667   Lambda : -0.228D-02
Largest |displ|/coords:  0.0868 (   3)  0.0633 (   9)  0.0484 (  11)
................................................................................
.............................. CYCLE   18 ......................................
................................................................................
   1    -50.7391934 -0.507392E+02  0.173E-01    9.07       0.0  T
   2    -50.7392095 -0.161431E-04  0.131E-01    9.07       1.0  T
   3    -50.7392209 -0.113278E-04  0.229E-02    9.07       1.0  T
   4    -50.7392229 -0.207256E-05  0.690E-03    9.07       2.8  T
   5    -50.7392230 -0.952792E-07  0.241E-03    9.07       8.1  T
   6    -50.7392230 -0.348915E-08  0.130E-03    9.07      15.1  T
speedup  0.91
cpu  time for SCC    0.00 s
wall time for SCC    0.01 s
speedup  1.00
cpu  time for grad    0.01 s
wall time for grad    0.01 s
 E :    -50.44076895  G :  0.013557    pred/act E change: -0.877D-03 -0.120D-02
Maxdispl :   0.1383   ||displ|| :   0.2413   Lambda : -0.905D-03
Largest |displ|/coords:  0.1383 (   3)  0.0610 (  10)  0.0605 (   1)
................................................................................
.............................. CYCLE   19 ......................................
................................................................................
   1    -50.7405279 -0.507405E+02  0.173E-01    9.11       0.0  T
   2    -50.7405481 -0.202207E-04  0.130E-01    9.10       1.0  T
   3    -50.7405580 -0.986507E-05  0.290E-02    9.08       1.0  T
   4    -50.7405611 -0.313378E-05  0.862E-03    9.08       2.3  T
   5    -50.7405612 -0.117631E-06  0.281E-03    9.08       7.0  T
   6    -50.7405612 -0.126694E-07  0.149E-03    9.08      13.2  T
speedup  1.13
cpu  time for SCC    0.01 s
wall time for SCC    0.01 s
speedup  1.02
cpu  time for grad    0.01 s
wall time for grad    0.01 s
 E :    -50.44101735  G :  0.022739    pred/act E change: -0.117D-02 -0.248D-03
Maxdispl :   0.1261   ||displ|| :   0.2487   Lambda : -0.101D-02
Largest |displ|/coords:  0.1261 (   3)  0.0955 (  10)  0.0650 (   4)
................................................................................
.............................. CYCLE   20 ......................................
................................................................................
   1    -50.7412072 -0.507412E+02  0.150E-01    9.09       0.0  T
   2    -50.7412143 -0.700525E-05  0.113E-01    9.10       1.0  T
   3    -50.7412179 -0.361641E-05  0.155E-02    9.11       1.3  T
   4    -50.7412190 -0.115042E-05  0.475E-03    9.11       4.1  T
   5    -50.7412191 -0.493460E-07  0.166E-03    9.11      11.8  T
speedup  1.11
cpu  time for SCC    0.01 s
wall time for SCC    0.00 s
speedup  1.00
cpu  time for grad    0.01 s
wall time for grad    0.01 s
 E :    -50.44178805  G :  0.014963    pred/act E change: -0.479D-03 -0.771D-03
Maxdispl :   0.1973   ||displ|| :   0.4697   Lambda : -0.168D-02
Largest |displ|/coords:  0.1973 (   3)  0.1718 (  10)  0.1717 (   7)
................................................................................
.............................. CYCLE   21 ......................................
................................................................................
   1    -50.7451172 -0.507451E+02  0.307E-01    9.22       0.0  T
   2    -50.7451580 -0.408393E-04  0.230E-01    9.23       1.0  T
   3    -50.7451820 -0.239471E-04  0.373E-02    9.24       1.0  T
   4    -50.7451881 -0.616412E-05  0.101E-02    9.24       2.0  T
   5    -50.7451884 -0.213003E-06  0.397E-03    9.24       4.9  T
   6    -50.7451884 -0.146902E-07  0.214E-03    9.24       9.2  T
   7    -50.7451884 -0.921770E-08  0.572E-04    9.24      34.3  T
speedup  0.97
cpu  time for SCC    0.01 s
wall time for SCC    0.01 s
speedup  1.02
cpu  time for grad    0.01 s
wall time for grad    0.01 s
 E :    -50.44207139  G :  0.028470    pred/act E change: -0.537D-03 -0.283D-03
Maxdispl :   0.1190   ||displ|| :   0.2908   Lambda : -0.163D-02
Largest |displ|/coords:  0.1190 (  10)  0.1166 (   3)  0.1039 (   1)
................................................................................
.............................. CYCLE   22 ......................................
................................................................................
   1    -50.7380397 -0.507380E+02  0.227E-01    9.20       0.0  T
   2    -50.7380535 -0.137057E-04  0.170E-01    9.20       1.0  T
   3    -50.7380643 -0.108623E-04  0.215E-02    9.20       1.0  T
   4    -50.7380661 -0.175899E-05  0.606E-03    9.20       3.2  T
   5    -50.7380661 -0.418207E-07  0.298E-03    9.20       6.6  T
   6    -50.7380661 -0.101062E-07  0.121E-03    9.20      16.2  T
speedup  0.91
cpu  time for SCC    0.00 s
wall time for SCC    0.01 s
speedup  1.00
cpu  time for grad    0.01 s
wall time for grad    0.01 s
 E :    -50.44274231  G :  0.016294    pred/act E change: -0.102D-02 -0.671D-03
Maxdispl :   0.0937   ||displ|| :   0.1788   Lambda : -0.743D-03
Largest |displ|/coords:  0.0937 (  19)  0.0893 (   3)  0.0488 (  24)
................................................................................
.............................. CYCLE   23 ......................................
................................................................................
   1    -50.7471208 -0.507471E+02  0.132E-01    9.25       0.0  T
   2    -50.7471385 -0.176536E-04  0.986E-02    9.25       1.0  T
   3    -50.7471465 -0.803287E-05  0.265E-02    9.23       1.0  T
   4    -50.7471488 -0.227054E-05  0.690E-03    9.23       2.8  T
   5    -50.7471489 -0.950868E-07  0.235E-03    9.23       8.3  T
   6    -50.7471489 -0.993175E-08  0.117E-03    9.23      16.7  T
speedup  0.88
cpu  time for SCC    0.00 s
wall time for SCC    0.01 s
speedup  0.98
cpu  time for grad    0.01 s
wall time for grad    0.01 s
 E :    -50.44274777  G :  0.022737    pred/act E change: -0.883D-03 -0.546D-05
Maxdispl :   0.0517   ||displ|| :   0.1228   Lambda : -0.872D-03
Largest |displ|/coords:  0.0517 (  19)  0.0372 (  14)  0.0367 (  10)
................................................................................
.............................. CYCLE   24 ......................................
................................................................................
   1    -50.7459912 -0.507460E+02  0.122E-01    9.19       0.0  T
   2    -50.7459985 -0.725456E-05  0.920E-02    9.19       1.0  T
   3    -50.7460038 -0.532406E-05  0.175E-02    9.19       1.1  T
   4    -50.7460047 -0.890424E-06  0.544E-03    9.19       3.6  T
   5    -50.7460047 -0.702045E-07  0.174E-03    9.19      11.3  T
speedup  0.89
cpu  time for SCC    0.00 s
wall time for SCC    0.00 s
speedup  1.00
cpu  time for grad    0.01 s
wall time for grad    0.01 s
 E :    -50.44318252  G :  0.008446    pred/act E change: -0.384D-03 -0.435D-03
Maxdispl :   0.1255   ||displ|| :   0.2899   Lambda : -0.589D-03
Largest |displ|/coords:  0.1255 (  10)  0.0830 (  18)  0.0826 (  15)
................................................................................
.............................. CYCLE   25 ......................................
................................................................................
   1    -50.7390971 -0.507391E+02  0.212E-01    9.19       0.0  T
   2    -50.7391071 -0.998208E-05  0.159E-01    9.19       1.0  T
   3    -50.7391120 -0.492364E-05  0.214E-02    9.20       1.0  T
   4    -50.7391138 -0.174985E-05  0.790E-03    9.20       2.5  T
   5    -50.7391138 -0.568617E-07  0.201E-03    9.20       9.7  T
   6    -50.7391139 -0.493428E-08  0.119E-03    9.20      16.4  T
speedup  1.11
cpu  time for SCC    0.01 s
wall time for SCC    0.01 s
speedup  1.00
cpu  time for grad    0.01 s
wall time for grad    0.01 s
 E :    -50.44334565  G :  0.017086    pred/act E change: -0.442D-03 -0.163D-03
Maxdispl :   0.0581   ||displ|| :   0.1516   Lambda : -0.542D-03
Largest |displ|/coords:  0.0581 (   5)  0.0475 (   3)  0.0458 (   6)

generating ANC from model Hessian ...
 Shifting diagonal of input Hessian by   5.136113185937685E-003
 Lowest  eigenvalues of input Hessian
    0.005000   -0.000000   -0.000000   -0.000000    0.000000    0.000000
    0.000000    0.005296    0.005619    0.005701    0.006244    0.006602
    0.007115    0.007356    0.007640    0.008162    0.008804    0.008885
 Highest eigenvalues
    1.414568    1.421549    1.439132    2.630516    3.385696    3.695745
 
cpu  time for ANC gen    0.02 s
wall time for ANC gen    0.02 s
................................................................................
.............................. CYCLE   26 ......................................
................................................................................
   1    -50.7413394 -0.507413E+02  0.105E-01    9.22       0.0  T
   2    -50.7413430 -0.366120E-05  0.789E-02    9.22       1.0  T
   3    -50.7413459 -0.284733E-05  0.117E-02    9.21       1.7  T
   4    -50.7413464 -0.477599E-06  0.383E-03    9.22       5.1  T
   5    -50.7413464 -0.197323E-07  0.137E-03    9.22      14.3  T
   6    -50.7413464 -0.189245E-08  0.758E-04    9.22      25.9  T
   7    -50.7413464 -0.938535E-09  0.156E-04    9.22     126.0  T
speedup  0.97
cpu  time for SCC    0.01 s
wall time for SCC    0.01 s
speedup  0.97
cpu  time for grad    0.01 s
wall time for grad    0.01 s
 E :    -50.44367376  G :  0.010479    pred/act E change:  0.000D+00 -0.328D-03
Maxdispl :   0.0963   ||displ|| :   0.2200   Lambda : -0.659D-03
Largest |displ|/coords:  0.0963 (   6)  0.0857 (  22)  0.0725 (   1)
................................................................................
.............................. CYCLE   27 ......................................
................................................................................
   1    -50.7430477 -0.507430E+02  0.191E-01    9.21       0.0  T
   2    -50.7430519 -0.420302E-05  0.145E-01    9.22       1.0  T
   3    -50.7430565 -0.464468E-05  0.964E-03    9.22       2.0  T
   4    -50.7430568 -0.307839E-06  0.423E-03    9.22       4.6  T
   5    -50.7430568 -0.153344E-07  0.150E-03    9.22      13.1  T
   6    -50.7430568 -0.974325E-09  0.683E-04    9.22      28.7  T
speedup  0.93
cpu  time for SCC    0.00 s
wall time for SCC    0.01 s
speedup  1.01
cpu  time for grad    0.01 s
wall time for grad    0.01 s
 E :    -50.44410815  G :  0.007034    pred/act E change:  0.000D+00 -0.434D-03
Maxdispl :   0.2238   ||displ|| :   0.4169   Lambda : -0.877D-03
Largest |displ|/coords:  0.2238 (   6)  0.1224 (   3)  0.1216 (  20)
................................................................................
.............................. CYCLE   28 ......................................
................................................................................
   1    -50.7433570 -0.507434E+02  0.325E-01    9.19       0.0  T
   2    -50.7433679 -0.108890E-04  0.245E-01    9.19       1.0  T
   3    -50.7433776 -0.968969E-05  0.181E-02    9.19       1.1  T
   4    -50.7433789 -0.129324E-05  0.572E-03    9.19       3.4  T
   5    -50.7433789 -0.319679E-07  0.298E-03    9.19       6.6  T
   6    -50.7433789 -0.561585E-08  0.105E-03    9.19      18.6  T
speedup  1.13
cpu  time for SCC    0.01 s
wall time for SCC    0.01 s
speedup  1.01
cpu  time for grad    0.01 s
wall time for grad    0.01 s
 E :    -50.44459394  G :  0.015798    pred/act E change: -0.345D-03 -0.486D-03
Maxdispl :   0.1736   ||displ|| :   0.3534   Lambda : -0.712D-03
Largest |displ|/coords:  0.1736 (   6)  0.1219 (   1)  0.1147 (  21)
................................................................................
.............................. CYCLE   29 ......................................
................................................................................
   1    -50.7429686 -0.507430E+02  0.222E-01    9.15       0.0  T
   2    -50.7429786 -0.996925E-05  0.167E-01    9.15       1.0  T
   3    -50.7429868 -0.817950E-05  0.169E-02    9.15       1.2  T
   4    -50.7429881 -0.132860E-05  0.564E-03    9.15       3.5  T
   5    -50.7429881 -0.413029E-07  0.233E-03    9.15       8.4  T
   6    -50.7429881 -0.412999E-08  0.112E-03    9.15      17.5  T
speedup  1.11
cpu  time for SCC    0.01 s
wall time for SCC    0.01 s
speedup  1.00
cpu  time for grad    0.01 s
wall time for grad    0.01 s
 E :    -50.44498243  G :  0.014017    pred/act E change: -0.515D-03 -0.388D-03
Maxdispl :   0.1737   ||displ|| :   0.4261   Lambda : -0.960D-03
Largest |displ|/coords:  0.1737 (  13)  0.1602 (   5)  0.1557 (   6)
................................................................................
.............................. CYCLE   30 ......................................
................................................................................
   1    -50.7414491 -0.507414E+02  0.303E-01    9.11       0.0  T
   2    -50.7414636 -0.145643E-04  0.230E-01    9.11       1.0  T
   3    -50.7414775 -0.138592E-04  0.217E-02    9.11       1.0  T
   4    -50.7414790 -0.154120E-05  0.711E-03    9.11       2.8  T
   5    -50.7414791 -0.493709E-07  0.267E-03    9.11       7.4  T
   6    -50.7414791 -0.435604E-08  0.112E-03    9.11      17.4  T
speedup  0.94
cpu  time for SCC    0.00 s
wall time for SCC    0.01 s
speedup  1.01
cpu  time for grad    0.01 s
wall time for grad    0.01 s
 E :    -50.44531637  G :  0.019555    pred/act E change: -0.400D-03 -0.334D-03
Maxdispl :   0.1466   ||displ|| :   0.2999   Lambda : -0.976D-03
Largest |displ|/coords:  0.1466 (   5)  0.1392 (   8)  0.0752 (  27)
................................................................................
.............................. CYCLE   31 ......................................
................................................................................
   1    -50.7408400 -0.507408E+02  0.224E-01    9.12       0.0  T
   2    -50.7408503 -0.103083E-04  0.169E-01    9.12       1.0  T
   3    -50.7408607 -0.104160E-04  0.174E-02    9.12       1.1  T
   4    -50.7408617 -0.107141E-05  0.538E-03    9.12       3.6  T
   5    -50.7408618 -0.445084E-07  0.258E-03    9.12       7.6  T
   6    -50.7408618 -0.105303E-07  0.108E-03    9.12      18.2  T
speedup  0.93
cpu  time for SCC    0.01 s
wall time for SCC    0.01 s
speedup  0.99
cpu  time for grad    0.01 s
wall time for grad    0.01 s
 E :    -50.44582796  G :  0.018244    pred/act E change: -0.567D-03 -0.512D-03
Maxdispl :   0.1942   ||displ|| :   0.3892   Lambda : -0.113D-02
Largest |displ|/coords:  0.1942 (   8)  0.1441 (   1)  0.1163 (   5)
................................................................................
.............................. CYCLE   32 ......................................
................................................................................
   1    -50.7397101 -0.507397E+02  0.260E-01    9.15       0.0  T
   2    -50.7397272 -0.171409E-04  0.195E-01    9.15       1.0  T
   3    -50.7397400 -0.128422E-04  0.241E-02    9.15       1.0  T
   4    -50.7397423 -0.223954E-05  0.602E-03    9.15       3.3  T
   5    -50.7397423 -0.522153E-07  0.314E-03    9.15       6.2  T
   6    -50.7397423 -0.119860E-07  0.119E-03    9.15      16.5  T
   7    -50.7397423 -0.397224E-08  0.348E-04    9.15      56.4  T
speedup  1.13
cpu  time for SCC    0.01 s
wall time for SCC    0.01 s
speedup  1.01
cpu  time for grad    0.01 s
wall time for grad    0.01 s
 E :    -50.44611532  G :  0.026884    pred/act E change: -0.532D-03 -0.287D-03
Maxdispl :   0.1398   ||displ|| :   0.3082   Lambda : -0.164D-02
Largest |displ|/coords:  0.1398 (   6)  0.1330 (   5)  0.0854 (   1)
................................................................................
.............................. CYCLE   33 ......................................
................................................................................
   1    -50.7501440 -0.507501E+02  0.146E-01    9.24       0.0  T
   2    -50.7501634 -0.194027E-04  0.108E-01    9.24       1.0  T
   3    -50.7501748 -0.113917E-04  0.250E-02    9.24       1.0  T
   4    -50.7501767 -0.191618E-05  0.700E-03    9.24       2.8  T
   5    -50.7501768 -0.125604E-06  0.249E-03    9.24       7.9  T
   6    -50.7501768 -0.346788E-08  0.134E-03    9.24      14.6  T
speedup  0.94
cpu  time for SCC    0.00 s
wall time for SCC    0.01 s
speedup  1.00
cpu  time for grad    0.01 s
wall time for grad    0.01 s
 E :    -50.44680473  G :  0.023189    pred/act E change: -0.649D-03 -0.689D-03
Maxdispl :   0.3147   ||displ|| :   0.5928   Lambda : -0.215D-02
Largest |displ|/coords:  0.3147 (   5)  0.2188 (   7)  0.1739 (   1)
................................................................................
.............................. CYCLE   34 ......................................
................................................................................
   1    -50.7342719 -0.507343E+02  0.393E-01    9.16       0.0  T
   2    -50.7343157 -0.437854E-04  0.296E-01    9.16       1.0  T
   3    -50.7343534 -0.376764E-04  0.373E-02    9.15       1.0  T
   4    -50.7343590 -0.564130E-05  0.109E-02    9.16       1.8  T
   5    -50.7343592 -0.132285E-06  0.546E-03    9.16       3.6  T
   6    -50.7343592 -0.338748E-07  0.223E-03    9.16       8.8  T
speedup  1.09
cpu  time for SCC    0.01 s
wall time for SCC    0.01 s
speedup  0.98
cpu  time for grad    0.01 s
wall time for grad    0.01 s
 E :    -50.44705959  G :  0.039153    pred/act E change: -0.895D-03 -0.255D-03
Maxdispl :   0.1863   ||displ|| :   0.3302   Lambda : -0.320D-02
Largest |displ|/coords:  0.1863 (   8)  0.1119 (   5)  0.0882 (   6)
................................................................................
.............................. CYCLE   35 ......................................
................................................................................
   1    -50.7413059 -0.507413E+02  0.332E-01    9.17       0.0  T
   2    -50.7413543 -0.484433E-04  0.251E-01    9.17       1.0  T
   3    -50.7413934 -0.390788E-04  0.373E-02    9.17       1.0  T
   4    -50.7413997 -0.631474E-05  0.846E-03    9.17       2.3  T
   5    -50.7413998 -0.627993E-07  0.475E-03    9.17       4.1  T
   6    -50.7413998 -0.221890E-07  0.138E-03    9.17      14.3  T
speedup  0.93
cpu  time for SCC    0.00 s
wall time for SCC    0.01 s
speedup  1.00
cpu  time for grad    0.01 s
wall time for grad    0.01 s
 E :    -50.44759748  G :  0.043576    pred/act E change: -0.145D-02 -0.538D-03
Maxdispl :   0.1747   ||displ|| :   0.4257   Lambda : -0.439D-02
Largest |displ|/coords:  0.1747 (   9)  0.1710 (   4)  0.1322 (  22)
................................................................................
.............................. CYCLE   36 ......................................
................................................................................
   1    -50.7497352 -0.507497E+02  0.356E-01    9.24       0.0  T
   2    -50.7497958 -0.605837E-04  0.267E-01    9.23       1.0  T
   3    -50.7498392 -0.433976E-04  0.430E-02    9.23       1.0  T
   4    -50.7498468 -0.758590E-05  0.917E-03    9.23       2.1  T
   5    -50.7498469 -0.600662E-07  0.532E-03    9.23       3.7  T
   6    -50.7498469 -0.293393E-07  0.120E-03    9.23      16.3  T
speedup  1.13
cpu  time for SCC    0.01 s
wall time for SCC    0.01 s
speedup  1.01
cpu  time for grad    0.01 s
wall time for grad    0.01 s
 E :    -50.44743749  G :  0.049535    pred/act E change: -0.178D-02  0.160D-03
Maxdispl :   0.1584   ||displ|| :   0.3110   Lambda : -0.327D-02
Largest |displ|/coords:  0.1584 (  12)  0.1380 (   5)  0.1102 (   7)
................................................................................
.............................. CYCLE   37 ......................................
................................................................................
   1    -50.7463243 -0.507463E+02  0.229E-01    9.24       0.0  T
   2    -50.7463562 -0.318992E-04  0.172E-01    9.24       1.0  T
   3    -50.7463776 -0.214418E-04  0.318E-02    9.24       1.0  T
   4    -50.7463820 -0.439795E-05  0.809E-03    9.24       2.4  T
   5    -50.7463821 -0.839285E-07  0.363E-03    9.24       5.4  T
   6    -50.7463821 -0.988953E-08  0.172E-03    9.24      11.4  T
speedup  0.94
cpu  time for SCC    0.01 s
wall time for SCC    0.01 s
speedup  1.01
cpu  time for grad    0.01 s
wall time for grad    0.01 s
 E :    -50.44932422  G :  0.022221    pred/act E change: -0.259D-02 -0.189D-02
Maxdispl :   0.2584   ||displ|| :   0.4770   Lambda : -0.244D-02
Largest |displ|/coords:  0.2584 (   5)  0.1669 (  14)  0.1391 (   8)
................................................................................
.............................. CYCLE   38 ......................................
................................................................................
   1    -50.7348554 -0.507349E+02  0.355E-01    9.17       0.0  T
   2    -50.7349161 -0.607050E-04  0.266E-01    9.17       1.0  T
   3    -50.7349588 -0.427152E-04  0.445E-02    9.16       1.0  T
   4    -50.7349667 -0.782168E-05  0.118E-02    9.16       1.7  T
   5    -50.7349669 -0.231794E-06  0.506E-03    9.16       3.9  T
   6    -50.7349669 -0.235488E-07  0.264E-03    9.16       7.4  T
speedup  0.94
cpu  time for SCC    0.00 s
wall time for SCC    0.01 s
speedup  1.00
cpu  time for grad    0.01 s
wall time for grad    0.01 s
 E :    -50.44843519  G :  0.054293    pred/act E change: -0.180D-02  0.889D-03
Maxdispl :   0.1525   ||displ|| :   0.3669   Lambda : -0.843D-02
Largest |displ|/coords:  0.1525 (   4)  0.1161 (   3)  0.1057 (  16)
................................................................................
.............................. CYCLE   39 ......................................
................................................................................
   1    -50.7461759 -0.507462E+02  0.432E-01    9.23       0.0  T
   2    -50.7463168 -0.140898E-03  0.324E-01    9.23       1.0  T
   3    -50.7464232 -0.106373E-03  0.668E-02    9.23       1.0  T
   4    -50.7464390 -0.157569E-04  0.177E-02    9.23       1.1  T
   5    -50.7464395 -0.523699E-06  0.791E-03    9.23       2.5  T
   6    -50.7464395 -0.549373E-07  0.373E-03    9.23       5.3  T
   7    -50.7464396 -0.272087E-07  0.859E-04    9.23      22.8  T
speedup  1.13
cpu  time for SCC    0.01 s
wall time for SCC    0.01 s
speedup  1.01
cpu  time for grad    0.01 s
wall time for grad    0.01 s
 E :    -50.44777493  G :  0.070868    pred/act E change: -0.149D-02  0.660D-03
Maxdispl :   0.1537   ||displ|| :   0.3440   Lambda : -0.957D-02
Largest |displ|/coords:  0.1537 (   4)  0.0904 (  21)  0.0880 (  28)
................................................................................
.............................. CYCLE   40 ......................................
................................................................................
   1    -50.7490731 -0.507491E+02  0.430E-01    9.25       0.0  T
   2    -50.7492090 -0.135916E-03  0.323E-01    9.25       1.0  T
   3    -50.7493156 -0.106530E-03  0.650E-02    9.25       1.0  T
   4    -50.7493310 -0.153762E-04  0.170E-02    9.25       1.2  T
   5    -50.7493313 -0.389908E-06  0.762E-03    9.25       2.6  T
   6    -50.7493314 -0.674289E-07  0.370E-03    9.25       5.3  T
   7    -50.7493314 -0.229912E-07  0.821E-04    9.25      23.9  T
speedup  0.97
cpu  time for SCC    0.01 s
wall time for SCC    0.01 s
speedup  1.01
cpu  time for grad    0.01 s
wall time for grad    0.01 s
 E :    -50.44908864  G :  0.051367    pred/act E change: -0.478D-02 -0.131D-02
Maxdispl :   0.1418   ||displ|| :   0.3126   Lambda : -0.540D-02
Largest |displ|/coords:  0.1418 (   4)  0.1294 (  11)  0.0902 (   1)
................................................................................
.............................. CYCLE   41 ......................................
................................................................................
   1    -50.7378764 -0.507379E+02  0.344E-01    9.20       0.0  T
   2    -50.7379568 -0.803973E-04  0.259E-01    9.20       1.0  T
   3    -50.7380174 -0.606418E-04  0.494E-02    9.20       1.0  T
   4    -50.7380273 -0.986744E-05  0.125E-02    9.20       1.6  T
   5    -50.7380276 -0.260432E-06  0.576E-03    9.20       3.4  T
   6    -50.7380276 -0.340699E-07  0.272E-03    9.20       7.2  T
speedup  0.93
cpu  time for SCC    0.00 s
wall time for SCC    0.01 s
speedup  0.98
cpu  time for grad    0.01 s
wall time for grad    0.01 s
 E :    -50.45009663  G :  0.039651    pred/act E change: -0.535D-02 -0.101D-02
Maxdispl :   0.1009   ||displ|| :   0.1804   Lambda : -0.209D-02
Largest |displ|/coords:  0.1009 (  15)  0.0628 (  11)  0.0480 (   9)
................................................................................
.............................. CYCLE   42 ......................................
................................................................................
   1    -50.7489142 -0.507489E+02  0.181E-01    9.21       0.0  T
   2    -50.7489313 -0.171113E-04  0.137E-01    9.21       1.0  T
   3    -50.7489435 -0.121110E-04  0.227E-02    9.21       1.0  T
   4    -50.7489458 -0.235064E-05  0.480E-03    9.21       4.1  T
   5    -50.7489458 -0.322856E-07  0.259E-03    9.21       7.6  T
speedup  1.11
cpu  time for SCC    0.00 s
wall time for SCC    0.00 s
speedup  0.99
cpu  time for grad    0.01 s
wall time for grad    0.01 s
 E :    -50.45089426  G :  0.016376    pred/act E change: -0.296D-02 -0.798D-03
Maxdispl :   0.2282   ||displ|| :   0.3682   Lambda : -0.146D-02
Largest |displ|/coords:  0.2282 (   5)  0.1562 (  11)  0.1152 (   8)
................................................................................
.............................. CYCLE   43 ......................................
................................................................................
   1    -50.7427266 -0.507427E+02  0.194E-01    9.18       0.0  T
   2    -50.7427440 -0.173303E-04  0.146E-01    9.18       1.0  T
   3    -50.7427573 -0.132932E-04  0.229E-02    9.18       1.0  T
   4    -50.7427593 -0.201539E-05  0.709E-03    9.18       2.8  T
   5    -50.7427594 -0.862543E-07  0.285E-03    9.18       6.9  T
   6    -50.7427594 -0.855875E-08  0.141E-03    9.18      14.0  T
speedup  0.91
cpu  time for SCC    0.01 s
wall time for SCC    0.01 s
speedup  0.99
cpu  time for grad    0.01 s
wall time for grad    0.01 s
 E :    -50.45046868  G :  0.038688    pred/act E change: -0.108D-02  0.426D-03
Maxdispl :   0.0726   ||displ|| :   0.1664   Lambda : -0.215D-02
Largest |displ|/coords:  0.0726 (  17)  0.0657 (  12)  0.0594 (  14)
................................................................................
.............................. CYCLE   44 ......................................
................................................................................
   1    -50.7460064 -0.507460E+02  0.136E-01    9.24       0.0  T
   2    -50.7460147 -0.830708E-05  0.102E-01    9.24       1.0  T
   3    -50.7460224 -0.767108E-05  0.169E-02    9.24       1.2  T
   4    -50.7460233 -0.868563E-06  0.555E-03    9.24       3.5  T
   5    -50.7460233 -0.477420E-07  0.198E-03    9.24       9.9  T
speedup  1.09
cpu  time for SCC    0.00 s
wall time for SCC    0.00 s
speedup  0.98
cpu  time for grad    0.01 s
wall time for grad    0.01 s
 E :    -50.45145594  G :  0.018804    pred/act E change: -0.828D-03 -0.987D-03
Maxdispl :   0.1162   ||displ|| :   0.2140   Lambda : -0.125D-02
Largest |displ|/coords:  0.1162 (  12)  0.0772 (  15)  0.0678 (  16)
................................................................................
.............................. CYCLE   45 ......................................
................................................................................
   1    -50.7475728 -0.507476E+02  0.194E-01    9.15       0.0  T
   2    -50.7475971 -0.242800E-04  0.145E-01    9.15       1.0  T
   3    -50.7476136 -0.164515E-04  0.279E-02    9.15       1.0  T
   4    -50.7476167 -0.311143E-05  0.647E-03    9.15       3.0  T
   5    -50.7476167 -0.603436E-07  0.317E-03    9.15       6.2  T
   6    -50.7476167 -0.739323E-08  0.148E-03    9.15      13.2  T
   7    -50.7476168 -0.378572E-08  0.313E-04    9.15      62.7  T
speedup  0.98
cpu  time for SCC    0.01 s
wall time for SCC    0.01 s
speedup  1.01
cpu  time for grad    0.01 s
wall time for grad    0.01 s
 E :    -50.45124919  G :  0.028173    pred/act E change: -0.111D-02  0.207D-03
Maxdispl :   0.1077   ||displ|| :   0.1944   Lambda : -0.129D-02
Largest |displ|/coords:  0.1077 (  12)  0.0843 (  11)  0.0813 (   5)
................................................................................
.............................. CYCLE   46 ......................................
................................................................................
   1    -50.7476806 -0.507477E+02  0.136E-01    9.21       0.0  T
   2    -50.7476917 -0.110976E-04  0.102E-01    9.21       1.0  T
   3    -50.7476982 -0.646981E-05  0.189E-02    9.21       1.0  T
   4    -50.7476998 -0.162130E-05  0.449E-03    9.21       4.4  T
   5    -50.7476998 -0.388785E-07  0.195E-03    9.21      10.1  T
speedup  0.89
cpu  time for SCC    0.00 s
wall time for SCC    0.00 s
speedup  0.98
cpu  time for grad    0.01 s
wall time for grad    0.01 s
 E :    -50.45207705  G :  0.009500    pred/act E change: -0.652D-03 -0.828D-03
Maxdispl :   0.1439   ||displ|| :   0.3045   Lambda : -0.599D-03
Largest |displ|/coords:  0.1439 (   5)  0.1385 (  11)  0.0848 (   1)
................................................................................
.............................. CYCLE   47 ......................................
................................................................................
   1    -50.7453158 -0.507453E+02  0.143E-01    9.18       0.0  T
   2    -50.7453235 -0.766070E-05  0.107E-01    9.18       1.0  T
   3    -50.7453286 -0.512981E-05  0.170E-02    9.18       1.2  T
   4    -50.7453297 -0.107063E-05  0.466E-03    9.18       4.2  T
   5    -50.7453297 -0.326261E-07  0.181E-03    9.18      10.9  T
   6    -50.7453297 -0.307652E-08  0.935E-04    9.18      21.0  T
speedup  1.11
cpu  time for SCC    0.01 s
wall time for SCC    0.01 s
speedup  1.00
cpu  time for grad    0.01 s
wall time for grad    0.01 s
 E :    -50.45244161  G :  0.015043    pred/act E change: -0.668D-03 -0.365D-03
Maxdispl :   0.1763   ||displ|| :   0.3740   Lambda : -0.686D-03
Largest |displ|/coords:  0.1763 (   5)  0.1579 (  11)  0.1242 (  16)
................................................................................
.............................. CYCLE   48 ......................................
................................................................................
   1    -50.7487140 -0.507487E+02  0.143E-01    9.23       0.0  T
   2    -50.7487218 -0.782145E-05  0.105E-01    9.23       1.0  T
   3    -50.7487257 -0.391332E-05  0.222E-02    9.24       1.0  T
   4    -50.7487268 -0.106977E-05  0.580E-03    9.23       3.4  T
   5    -50.7487268 -0.355194E-07  0.153E-03    9.23      12.8  T
   6    -50.7487268 -0.291907E-08  0.823E-04    9.23      23.8  T
speedup  0.91
cpu  time for SCC    0.00 s
wall time for SCC    0.01 s
speedup  0.98
cpu  time for grad    0.01 s
wall time for grad    0.01 s
 E :    -50.45292148  G :  0.013989    pred/act E change: -0.327D-03 -0.480D-03
Maxdispl :   0.2007   ||displ|| :   0.5109   Lambda : -0.915D-03
Largest |displ|/coords:  0.2007 (   5)  0.1962 (  11)  0.1713 (  16)
................................................................................
.............................. CYCLE   49 ......................................
................................................................................
   1    -50.7456111 -0.507456E+02  0.244E-01    9.08       0.0  T
   2    -50.7456281 -0.169876E-04  0.183E-01    9.08       1.0  T
   3    -50.7456411 -0.130002E-04  0.285E-02    9.09       1.0  T
   4    -50.7456434 -0.228566E-05  0.935E-03    9.09       2.1  T
   5    -50.7456435 -0.975773E-07  0.255E-03    9.09       7.7  T
   6    -50.7456435 -0.944821E-08  0.145E-03    9.09      13.5  T
speedup  1.11
cpu  time for SCC    0.01 s
wall time for SCC    0.01 s
speedup  1.00
cpu  time for grad    0.01 s
wall time for grad    0.01 s
 E :    -50.45351039  G :  0.014940    pred/act E change: -0.391D-03 -0.589D-03
Maxdispl :   0.1668   ||displ|| :   0.4149   Lambda : -0.104D-02
Largest |displ|/coords:  0.1668 (  16)  0.1438 (  11)  0.1406 (   9)
................................................................................
.............................. CYCLE   50 ......................................
................................................................................
   1    -50.7534041 -0.507534E+02  0.208E-01    9.16       0.0  T
   2    -50.7534337 -0.296538E-04  0.153E-01    9.17       1.0  T
   3    -50.7534470 -0.132707E-04  0.420E-02    9.18       1.0  T
   4    -50.7534502 -0.323388E-05  0.908E-03    9.18       2.2  T
   5    -50.7534504 -0.210529E-06  0.253E-03    9.18       7.8  T
   6    -50.7534504 -0.473761E-08  0.142E-03    9.18      13.8  T
speedup  0.93
cpu  time for SCC    0.00 s
wall time for SCC    0.01 s
speedup  1.00
cpu  time for grad    0.01 s
wall time for grad    0.01 s
 E :    -50.45385392  G :  0.017196    pred/act E change: -0.577D-03 -0.344D-03
Maxdispl :   0.1461   ||displ|| :   0.3358   Lambda : -0.755D-03
Largest |displ|/coords:  0.1461 (   6)  0.1328 (   5)  0.1254 (  11)
................................................................................
.............................. CYCLE   51 ......................................
................................................................................
   1    -50.7482077 -0.507482E+02  0.156E-01    9.10       0.0  T
   2    -50.7482201 -0.124081E-04  0.117E-01    9.10       1.0  T
   3    -50.7482265 -0.634009E-05  0.206E-02    9.10       1.0  T
   4    -50.7482286 -0.212061E-05  0.576E-03    9.10       3.4  T
   5    -50.7482287 -0.718111E-07  0.216E-03    9.10       9.1  T
   6    -50.7482287 -0.504269E-08  0.112E-03    9.10      17.5  T
speedup  0.93
cpu  time for SCC    0.00 s
wall time for SCC    0.01 s
speedup  1.00
cpu  time for grad    0.01 s
wall time for grad    0.01 s
 E :    -50.45442486  G :  0.013519    pred/act E change: -0.612D-03 -0.571D-03
Maxdispl :   0.2082   ||displ|| :   0.4376   Lambda : -0.998D-03
Largest |displ|/coords:  0.2082 (   6)  0.1661 (   5)  0.1303 (   9)
................................................................................
.............................. CYCLE   52 ......................................
................................................................................
   1    -50.7449065 -0.507449E+02  0.228E-01    9.16       0.0  T
   2    -50.7449286 -0.220942E-04  0.170E-01    9.17       1.0  T
   3    -50.7449403 -0.117108E-04  0.289E-02    9.17       1.0  T
   4    -50.7449440 -0.370584E-05  0.879E-03    9.17       2.2  T
   5    -50.7449441 -0.111007E-06  0.298E-03    9.17       6.6  T
   6    -50.7449441 -0.113160E-07  0.161E-03    9.17      12.2  T
speedup  0.94
cpu  time for SCC    0.01 s
wall time for SCC    0.01 s
speedup  1.00
cpu  time for grad    0.01 s
wall time for grad    0.01 s
 E :    -50.45498564  G :  0.020429    pred/act E change: -0.420D-03 -0.561D-03
Maxdispl :   0.1396   ||displ|| :   0.3554   Lambda : -0.697D-03
Largest |displ|/coords:  0.1396 (   6)  0.1167 (   9)  0.1067 (  16)

generating ANC from model Hessian ...
 Shifting diagonal of input Hessian by   5.132137049927684E-003
 Lowest  eigenvalues of input Hessian
    0.005000   -0.000000   -0.000000    0.000000    0.000000    0.000000
    0.000000    0.005428    0.005844    0.006037    0.006546    0.006949
    0.007774    0.008327    0.008659    0.008909    0.009946    0.010420
 Highest eigenvalues
    1.400450    1.409503    1.433484    2.496767    3.364707    3.644618
 
cpu  time for ANC gen    0.02 s
wall time for ANC gen    0.02 s
................................................................................
.............................. CYCLE   53 ......................................
................................................................................
   1    -50.7425139 -0.507425E+02  0.181E-01    9.08       0.0  T
   2    -50.7425242 -0.103261E-04  0.136E-01    9.08       1.0  T
   3    -50.7425328 -0.856399E-05  0.193E-02    9.08       1.0  T
   4    -50.7425341 -0.130372E-05  0.621E-03    9.08       3.2  T
   5    -50.7425341 -0.605748E-07  0.230E-03    9.08       8.5  T
   6    -50.7425342 -0.578036E-08  0.118E-03    9.08      16.6  T
   7    -50.7425342 -0.244344E-08  0.357E-04    9.08      54.9  T
   8    -50.7425342 -0.315715E-09  0.910E-05    9.08     215.6  T
speedup  1.00
cpu  time for SCC    0.01 s
wall time for SCC    0.01 s
speedup  0.99
cpu  time for grad    0.01 s
wall time for grad    0.02 s
 E :    -50.45533777  G :  0.025395    pred/act E change:  0.000D+00 -0.352D-03
Maxdispl :   0.1416   ||displ|| :   0.2672   Lambda : -0.159D-02
Largest |displ|/coords:  0.1416 (   7)  0.1109 (   8)  0.0752 (  16)
................................................................................
.............................. CYCLE   54 ......................................
................................................................................
   1    -50.7462497 -0.507462E+02  0.209E-01    9.15       0.0  T
   2    -50.7462571 -0.742300E-05  0.158E-01    9.15       1.0  T
   3    -50.7462658 -0.871612E-05  0.141E-02    9.15       1.4  T
   4    -50.7462663 -0.469708E-06  0.434E-03    9.15       4.5  T
   5    -50.7462663 -0.235333E-07  0.199E-03    9.15       9.8  T
speedup  1.11
cpu  time for SCC    0.00 s
wall time for SCC    0.00 s
speedup  0.99
cpu  time for grad    0.01 s
wall time for grad    0.01 s
 E :    -50.45634745  G :  0.013182    pred/act E change:  0.000D+00 -0.101D-02
Maxdispl :   0.1763   ||displ|| :   0.3158   Lambda : -0.106D-02
Largest |displ|/coords:  0.1763 (   9)  0.0932 (   8)  0.0914 (  17)
................................................................................
.............................. CYCLE   55 ......................................
................................................................................
   1    -50.7502160 -0.507502E+02  0.202E-01    9.21       0.0  T
   2    -50.7502266 -0.105485E-04  0.151E-01    9.21       1.0  T
   3    -50.7502341 -0.750298E-05  0.218E-02    9.21       1.0  T
   4    -50.7502354 -0.134888E-05  0.547E-03    9.21       3.6  T
   5    -50.7502355 -0.666707E-07  0.198E-03    9.21       9.9  T
   6    -50.7502355 -0.260845E-08  0.107E-03    9.21      18.3  T
speedup  0.93
cpu  time for SCC    0.00 s
wall time for SCC    0.01 s
speedup  1.00
cpu  time for grad    0.01 s
wall time for grad    0.01 s
 E :    -50.45704488  G :  0.010013    pred/act E change: -0.851D-03 -0.697D-03
Maxdispl :   0.2644   ||displ|| :   0.4276   Lambda : -0.823D-03
Largest |displ|/coords:  0.2644 (   9)  0.1378 (   8)  0.1219 (   6)
................................................................................
.............................. CYCLE   56 ......................................
................................................................................
   1    -50.7483525 -0.507484E+02  0.281E-01    9.21       0.0  T
   2    -50.7483683 -0.157715E-04  0.212E-01    9.21       1.0  T
   3    -50.7483847 -0.164005E-04  0.214E-02    9.21       1.0  T
   4    -50.7483861 -0.145928E-05  0.571E-03    9.21       3.4  T
   5    -50.7483862 -0.381138E-07  0.272E-03    9.21       7.2  T
   6    -50.7483862 -0.957657E-08  0.127E-03    9.21      15.4  T
speedup  1.11
cpu  time for SCC    0.01 s
wall time for SCC    0.01 s
speedup  0.99
cpu  time for grad    0.01 s
wall time for grad    0.01 s
 E :    -50.45771297  G :  0.014096    pred/act E change: -0.583D-03 -0.668D-03
Maxdispl :   0.3747   ||displ|| :   0.6171   Lambda : -0.107D-02
Largest |displ|/coords:  0.3747 (   9)  0.2188 (   6)  0.2156 (   8)
................................................................................
.............................. CYCLE   57 ......................................
................................................................................
   1    -50.7434498 -0.507434E+02  0.351E-01    9.10       0.0  T
   2    -50.7434786 -0.288335E-04  0.265E-01    9.10       1.0  T
   3    -50.7435059 -0.272501E-04  0.297E-02    9.11       1.0  T
   4    -50.7435090 -0.314241E-05  0.101E-02    9.11       1.9  T
   5    -50.7435091 -0.155820E-06  0.342E-03    9.11       5.7  T
   6    -50.7435092 -0.143656E-07  0.199E-03    9.11       9.8  T
   7    -50.7435092 -0.773323E-08  0.497E-04    9.11      39.5  T
speedup  0.95
cpu  time for SCC    0.01 s
wall time for SCC    0.01 s
speedup  1.00
cpu  time for grad    0.01 s
wall time for grad    0.01 s
 E :    -50.45828013  G :  0.020656    pred/act E change: -0.487D-03 -0.567D-03
Maxdispl :   0.1791   ||displ|| :   0.2536   Lambda : -0.836D-03
Largest |displ|/coords:  0.1791 (   9)  0.0911 (   6)  0.0571 (   4)
................................................................................
.............................. CYCLE   58 ......................................
................................................................................
   1    -50.7492051 -0.507492E+02  0.113E-01    9.18       0.0  T
   2    -50.7492097 -0.463252E-05  0.839E-02    9.18       1.0  T
   3    -50.7492128 -0.308161E-05  0.134E-02    9.18       1.5  T
   4    -50.7492134 -0.618275E-06  0.410E-03    9.18       4.8  T
   5    -50.7492134 -0.270637E-07  0.141E-03    9.18      13.9  T
speedup  1.09
cpu  time for SCC    0.00 s
wall time for SCC    0.00 s
speedup  0.98
cpu  time for grad    0.01 s
wall time for grad    0.01 s
 E :    -50.45871526  G :  0.018656    pred/act E change: -0.737D-03 -0.435D-03
Maxdispl :   0.1213   ||displ|| :   0.2304   Lambda : -0.712D-03
Largest |displ|/coords:  0.1213 (   9)  0.1117 (   6)  0.0590 (  28)
................................................................................
.............................. CYCLE   59 ......................................
................................................................................
   1    -50.7534345 -0.507534E+02  0.126E-01    9.34       0.0  T
   2    -50.7534407 -0.616486E-05  0.941E-02    9.34       1.0  T
   3    -50.7534447 -0.407240E-05  0.151E-02    9.34       1.3  T
   4    -50.7534456 -0.846589E-06  0.468E-03    9.34       4.2  T
   5    -50.7534456 -0.360719E-07  0.155E-03    9.34      12.7  T
   6    -50.7534456 -0.243472E-08  0.803E-04    9.34      24.4  T
speedup  0.93
cpu  time for SCC    0.00 s
wall time for SCC    0.01 s
speedup  1.00
cpu  time for grad    0.01 s
wall time for grad    0.01 s
 E :    -50.45905124  G :  0.010607    pred/act E change: -0.445D-03 -0.336D-03
Maxdispl :   0.3035   ||displ|| :   0.4005   Lambda : -0.573D-03
Largest |displ|/coords:  0.3035 (   9)  0.1230 (   6)  0.1053 (  10)
................................................................................
.............................. CYCLE   60 ......................................
................................................................................
   1    -50.7478874 -0.507479E+02  0.227E-01    9.28       0.0  T
   2    -50.7479011 -0.136398E-04  0.170E-01    9.28       1.0  T
   3    -50.7479123 -0.111710E-04  0.233E-02    9.28       1.0  T
   4    -50.7479139 -0.163709E-05  0.565E-03    9.28       3.5  T
   5    -50.7479139 -0.586025E-07  0.221E-03    9.28       8.9  T
   6    -50.7479140 -0.831594E-08  0.124E-03    9.28      15.9  T
speedup  1.11
cpu  time for SCC    0.01 s
wall time for SCC    0.01 s
speedup  1.05
cpu  time for grad    0.01 s
wall time for grad    0.01 s
 E :    -50.45937955  G :  0.012139    pred/act E change: -0.375D-03 -0.328D-03
Maxdispl :   0.1482   ||displ|| :   0.2276   Lambda : -0.445D-03
Largest |displ|/coords:  0.1482 (   9)  0.0577 (  31)  0.0524 (  28)
................................................................................
.............................. CYCLE   61 ......................................
................................................................................
   1    -50.7478326 -0.507478E+02  0.141E-01    9.25       0.0  T
   2    -50.7478382 -0.561976E-05  0.106E-01    9.25       1.0  T
   3    -50.7478430 -0.482868E-05  0.161E-02    9.25       1.2  T
   4    -50.7478436 -0.608561E-06  0.469E-03    9.25       4.2  T
   5    -50.7478437 -0.351413E-07  0.144E-03    9.25      13.6  T
   6    -50.7478437 -0.244454E-08  0.863E-04    9.25      22.7  T
speedup  1.09
cpu  time for SCC    0.01 s
wall time for SCC    0.01 s
speedup  0.98
cpu  time for grad    0.01 s
wall time for grad    0.01 s
 E :    -50.45957174  G :  0.012559    pred/act E change: -0.332D-03 -0.192D-03
Maxdispl :   0.0896   ||displ|| :   0.1722   Lambda : -0.393D-03
Largest |displ|/coords:  0.0896 (   9)  0.0542 (  10)  0.0515 (  13)
................................................................................
.............................. CYCLE   62 ......................................
................................................................................
   1    -50.7496457 -0.507496E+02  0.116E-01    9.33       0.0  T
   2    -50.7496483 -0.260762E-05  0.874E-02    9.33       1.0  T
   3    -50.7496511 -0.280116E-05  0.105E-02    9.33       1.9  T
   4    -50.7496513 -0.194860E-06  0.338E-03    9.33       5.8  T
   5    -50.7496513 -0.138863E-07  0.116E-03    9.33      16.9  T
   6    -50.7496513 -0.136199E-08  0.667E-04    9.33      29.4  T
speedup  0.91
cpu  time for SCC    0.00 s
wall time for SCC    0.01 s
speedup  0.98
cpu  time for grad    0.01 s
wall time for grad    0.01 s
 E :    -50.45982528  G :  0.007697    pred/act E change: -0.234D-03 -0.254D-03
Maxdispl :   0.1865   ||displ|| :   0.3171   Lambda : -0.370D-03
Largest |displ|/coords:  0.1865 (   9)  0.1494 (  10)  0.0775 (   3)
................................................................................
.............................. CYCLE   63 ......................................
................................................................................
   1    -50.7478400 -0.507478E+02  0.202E-01    9.27       0.0  T
   2    -50.7478482 -0.823004E-05  0.151E-01    9.27       1.0  T
   3    -50.7478555 -0.726473E-05  0.215E-02    9.27       1.0  T
   4    -50.7478564 -0.921801E-06  0.759E-03    9.28       2.6  T
   5    -50.7478564 -0.660379E-07  0.182E-03    9.28      10.8  T
   6    -50.7478564 -0.313361E-08  0.117E-03    9.28      16.7  T
speedup  0.93
cpu  time for SCC    0.00 s
wall time for SCC    0.01 s
speedup  0.98
cpu  time for grad    0.01 s
wall time for grad    0.01 s
 E :    -50.46006909  G :  0.011932    pred/act E change: -0.203D-03 -0.244D-03
Maxdispl :   0.2034   ||displ|| :   0.4006   Lambda : -0.657D-03
Largest |displ|/coords:  0.2034 (  10)  0.1148 (   9)  0.1044 (  16)
................................................................................
.............................. CYCLE   64 ......................................
................................................................................
   1    -50.7524811 -0.507525E+02  0.229E-01    9.38       0.0  T
   2    -50.7524998 -0.187274E-04  0.171E-01    9.38       1.0  T
   3    -50.7525130 -0.131399E-04  0.315E-02    9.38       1.0  T
   4    -50.7525157 -0.270116E-05  0.102E-02    9.38       1.9  T
   5    -50.7525158 -0.140671E-06  0.288E-03    9.38       6.8  T
   6    -50.7525158 -0.825932E-08  0.172E-03    9.38      11.4  T
speedup  0.93
cpu  time for SCC    0.00 s
wall time for SCC    0.01 s
speedup  0.99
cpu  time for grad    0.01 s
wall time for grad    0.01 s
 E :    -50.46033671  G :  0.013459    pred/act E change: -0.204D-03 -0.268D-03
Maxdispl :   0.1517   ||displ|| :   0.3219   Lambda : -0.528D-03
Largest |displ|/coords:  0.1517 (  10)  0.1403 (   9)  0.0875 (  28)
................................................................................
.............................. CYCLE   65 ......................................
................................................................................
   1    -50.7503854 -0.507504E+02  0.206E-01    9.28       0.0  T
   2    -50.7503975 -0.121171E-04  0.154E-01    9.29       1.0  T
[...]
speedup  1.08
cpu  time for SCC    0.00 s
wall time for SCC    0.00 s
speedup  0.98
cpu  time for grad    0.01 s
wall time for grad    0.01 s
 E :    -50.46261571  G :  0.000200    pred/act E change: -0.122D-06 -0.170D-06
Maxdispl :   0.0033   ||displ|| :   0.0069   Lambda : -0.213D-06
Largest |displ|/coords:  0.0033 (  37)  0.0029 (   7)  0.0024 (   6)
................................................................................
.............................. CYCLE  106 ......................................
................................................................................
   1    -50.7569244 -0.507569E+02  0.561E-03    9.47       0.0  T
   2    -50.7569245 -0.729325E-08  0.418E-03    9.47       4.7  T
   3    -50.7569245 -0.151987E-08  0.735E-04    9.47      26.7  T
   4    -50.7569245 -0.149313E-08  0.182E-04    9.47     108.0  T
speedup  1.08
cpu  time for SCC    0.00 s
wall time for SCC    0.00 s
speedup  0.98
cpu  time for grad    0.01 s
wall time for grad    0.01 s
 E :    -50.46261587  G :  0.000213    pred/act E change: -0.116D-06 -0.160D-06
Maxdispl :   0.0036   ||displ|| :   0.0077   Lambda : -0.249D-06
Largest |displ|/coords:  0.0036 (  37)  0.0032 (   2)  0.0029 (   7)
................................................................................
.............................. CYCLE  107 ......................................
................................................................................
   1    -50.7569396 -0.507569E+02  0.629E-03    9.47       0.0  T
   2    -50.7569396 -0.101087E-07  0.469E-03    9.47       4.2  T
   3    -50.7569396 -0.283460E-08  0.867E-04    9.47      22.6  T
   4    -50.7569396 -0.194899E-08  0.233E-04    9.47      84.0  T
speedup  1.08
cpu  time for SCC    0.00 s
wall time for SCC    0.00 s
speedup  0.99
cpu  time for grad    0.01 s
wall time for grad    0.01 s
 E :    -50.46261606  G :  0.000283    pred/act E change: -0.107D-06 -0.192D-06
Maxdispl :   0.0080   ||displ|| :   0.0118   Lambda : -0.329D-06
Largest |displ|/coords:  0.0080 (   2)  0.0049 (  37)  0.0035 (   6)
................................................................................
.............................. CYCLE  108 ......................................
................................................................................
   1    -50.7569610 -0.507570E+02  0.947E-03    9.47       0.0  T
   2    -50.7569611 -0.193429E-07  0.706E-03    9.47       2.8  T
   3    -50.7569611 -0.900866E-08  0.124E-03    9.47      15.9  T
   4    -50.7569611 -0.333961E-08  0.386E-04    9.47      50.7  T
   5    -50.7569611 -0.964562E-10  0.652E-05    9.47     300.9  T
speedup  0.89
cpu  time for SCC    0.00 s
wall time for SCC    0.00 s
speedup  1.01
cpu  time for grad    0.01 s
wall time for grad    0.01 s
 E :    -50.46261632  G :  0.000361    pred/act E change: -0.125D-06 -0.260D-06
Maxdispl :   0.0164   ||displ|| :   0.0206   Lambda : -0.479D-06
Largest |displ|/coords:  0.0164 (   2)  0.0067 (  37)  0.0044 (   6)
................................................................................
.............................. CYCLE  109 ......................................
................................................................................
   1    -50.7569923 -0.507570E+02  0.156E-02    9.47       0.0  T
   2    -50.7569923 -0.422903E-07  0.116E-02    9.47       1.7  T
   3    -50.7569923 -0.303960E-07  0.185E-03    9.47      10.6  T
   4    -50.7569923 -0.592024E-08  0.614E-04    9.47      31.9  T
   5    -50.7569923 -0.298179E-09  0.118E-04    9.47     165.9  T
speedup  0.89
cpu  time for SCC    0.00 s
wall time for SCC    0.00 s
speedup  1.01
cpu  time for grad    0.01 s
wall time for grad    0.01 s
 E :    -50.46261667  G :  0.000447    pred/act E change: -0.165D-06 -0.350D-06
Maxdispl :   0.0157   ||displ|| :   0.0197   Lambda : -0.456D-06
Largest |displ|/coords:  0.0157 (   2)  0.0063 (  37)  0.0040 (  13)
................................................................................
.............................. CYCLE  110 ......................................
................................................................................
   1    -50.7570017 -0.507570E+02  0.157E-02    9.47       0.0  T
   2    -50.7570017 -0.374513E-07  0.117E-02    9.47       1.7  T
   3    -50.7570018 -0.330253E-07  0.185E-03    9.47      10.6  T
   4    -50.7570018 -0.400589E-08  0.588E-04    9.47      33.4  T
   5    -50.7570018 -0.345295E-09  0.117E-04    9.47     167.4  T
speedup  1.11
cpu  time for SCC    0.00 s
wall time for SCC    0.00 s
speedup  1.01
cpu  time for grad    0.01 s
wall time for grad    0.01 s
 E :    -50.46261702  G :  0.000449    pred/act E change: -0.240D-06 -0.351D-06
Maxdispl :   0.0144   ||displ|| :   0.0197   Lambda : -0.535D-06
Largest |displ|/coords:  0.0144 (   2)  0.0070 (  37)  0.0043 (  13)
................................................................................
.............................. CYCLE  111 ......................................
................................................................................
   1    -50.7569933 -0.507570E+02  0.173E-02    9.47       0.0  T
   2    -50.7569933 -0.416315E-07  0.128E-02    9.47       1.5  T
   3    -50.7569934 -0.393662E-07  0.208E-03    9.47       9.4  T
   4    -50.7569934 -0.363728E-08  0.589E-04    9.47      33.3  T
   5    -50.7569934 -0.420620E-09  0.120E-04    9.47     163.3  T
speedup  1.11
cpu  time for SCC    0.00 s
wall time for SCC    0.00 s
speedup  1.01
cpu  time for grad    0.01 s
wall time for grad    0.01 s
 E :    -50.46261739  G :  0.000356    pred/act E change: -0.228D-06 -0.375D-06
Maxdispl :   0.0042   ||displ|| :   0.0084   Lambda : -0.303D-06
Largest |displ|/coords:  0.0042 (  37)  0.0030 (   3)  0.0026 (   2)
................................................................................
.............................. CYCLE  112 ......................................
................................................................................
   1    -50.7569808 -0.507570E+02  0.888E-03    9.47       0.0  T
   2    -50.7569808 -0.104197E-07  0.656E-03    9.47       3.0  T
   3    -50.7569808 -0.910359E-08  0.111E-03    9.47      17.6  T
   4    -50.7569808 -0.857689E-09  0.278E-04    9.47      70.6  T
   5    -50.7569808 -0.105302E-09  0.482E-05    9.47     407.2  T
speedup  0.89
cpu  time for SCC    0.00 s
wall time for SCC    0.00 s
speedup  1.01
cpu  time for grad    0.01 s
wall time for grad    0.01 s
 E :    -50.46261761  G :  0.000221    pred/act E change: -0.268D-06 -0.212D-06
Maxdispl :   0.0029   ||displ|| :   0.0058   Lambda : -0.163D-06
Largest |displ|/coords:  0.0029 (  37)  0.0025 (   3)  0.0017 (   2)

generating ANC from model Hessian ...
 Shifting diagonal of input Hessian by   5.076158563817304E-003
 Lowest  eigenvalues of input Hessian
    0.005000   -0.000000    0.000000    0.000000    0.000000    0.000000
    0.000000    0.005319    0.005464    0.005795    0.005981    0.006282
    0.006981    0.007467    0.007864    0.008639    0.009116    0.009150
 Highest eigenvalues
    1.404621    1.411958    1.428965    2.591837    3.448918    3.630250
 
cpu  time for ANC gen    0.02 s
wall time for ANC gen    0.02 s
................................................................................
.............................. CYCLE  113 ......................................
................................................................................
   1    -50.7569717 -0.507570E+02  0.553E-03    9.47       0.0  T
   2    -50.7569717 -0.387011E-08  0.410E-03    9.47       4.8  T
   3    -50.7569717 -0.312171E-08  0.637E-04    9.47      30.8  T
   4    -50.7569717 -0.407944E-09  0.173E-04    9.47     113.2  T
speedup  1.11
cpu  time for SCC    0.00 s
wall time for SCC    0.00 s
speedup  1.00
cpu  time for grad    0.01 s
wall time for grad    0.01 s
 E :    -50.46261771  G :  0.000124    pred/act E change:  0.000D+00 -0.108D-06
Maxdispl :   0.0006   ||displ|| :   0.0014   Lambda : -0.421D-07
Largest |displ|/coords:  0.0006 (   4)  0.0005 (  17)  0.0005 (  11)
................................................................................
.............................. CYCLE  114 ......................................
................................................................................
   1    -50.7569794 -0.507570E+02  0.146E-03    9.47       0.0  T
   2    -50.7569794 -0.345523E-09  0.110E-03    9.47      17.8  T
   3    -50.7569794 -0.402338E-09  0.115E-04    9.47     170.6  T
   4    -50.7569794 -0.256577E-10  0.406E-05    9.47     482.5  T
speedup  0.81
cpu  time for SCC    0.00 s
wall time for SCC    0.00 s
speedup  0.99
cpu  time for grad    0.01 s
wall time for grad    0.01 s
 E :    -50.46261775  G :  0.000073    pred/act E change:  0.000D+00 -0.326D-07
Maxdispl :   0.0014   ||displ|| :   0.0029   Lambda : -0.544D-07
Largest |displ|/coords:  0.0014 (   4)  0.0010 (  11)  0.0008 (  17)

   *** GEOMETRY OPTIMIZATION CONVERGED AFTER 114 ITERATIONS ***

------------------------------------------------------------------------
 total energy gain (kcal):     -0.0000
------------------------------------------------------------------------
================
 final structure:
================
$coord
        0.70484532896860       -3.26985575254086        2.61724767133878      S 
       -1.55204080960549       -3.13894560395506        1.03398570479291      O 
        2.98301727770962       -3.46748741039668        1.13308357560396      O 
        0.74077115340056       -1.22604484764315        4.46000461117533      O 
        0.48292597660357       -5.81678425274304        4.18883568834846      O 
       -1.08350988492969       -5.67124717497392        5.06557210635664      H 
       -0.93176470724999        1.03747788786823        3.27368943589964      H 
       -1.76165455868542        2.55784411150507        2.56508784225248      O 
       -2.45173745738925        3.45372644255266        3.98011096958704      H 
        5.22545746057784        0.82475745719917        2.42011040029018      O 
        4.81447962471415       -0.88210758650099        1.84643162604610      H 
        4.32374540667060        0.96457700892952        3.99389125466032      H 
       -3.60154295871401        3.49104154556566       -2.27934868523650      O 
       -2.23396834622543        4.64188658118346       -2.59764536856995      H 
       -3.32029503229492        2.84674259367814       -0.58381729461882      H 
        2.12825113922243        3.13045679983592       -0.79052289159713      O 
        3.57605487786638        2.52998193047358        0.21855308110579      H 
        0.77837794893224        3.32093540525691        0.44291176391465      H 
       -3.32094987027802        0.00496155748306       -5.94915831355038      O 
       -4.72074923116047       -1.13674899013054       -5.81412806055891      H 
       -3.67797582142814        1.39942735420459       -4.77365802563925      H 
        0.59477915874180       -1.12880960446066       -2.93852815858702      N 
       -0.68138704501890       -0.84880068379560       -4.42343126084076      H 
        2.07521337926890       -2.25552852900997       -3.41040296388260      H 
        1.28415388493785        0.63967263205204       -2.26263370167724      H 
       -0.37449685684456       -2.00112896613444       -1.41624102551245      H 
$end
 
 Bond Distances (Angstroems)
 ---------------------------
S1-O2=1.4605         S1-O3=1.4426         S1-O4=1.4564         S1-O5=1.5881         O2-S1=1.4605         O3-S1=1.4426         
O4-S1=1.4564         O5-S1=1.5881         O5-H6=0.9530         H6-O5=0.9530         H7-O8=0.9903         O8-H7=0.9903         
O8-H9=0.9585         H9-O8=0.9585         O10-H11=0.9774       O10-H12=0.9627       H11-O10=0.9774       H12-O10=0.9627       
O13-H14=0.9607       O13-H15=0.9713       H14-O13=0.9607       H15-O13=0.9713       O16-H17=0.9864       O16-H18=0.9729       
H17-O16=0.9864       H18-O16=0.9729       O19-H20=0.9586       O19-H21=0.9834       H20-O19=0.9586       H21-O19=0.9834       
N22-H23=1.0466       N22-H24=1.0157       N22-H25=1.0662       N22-H26=1.0607       H23-N22=1.0466       H24-N22=1.0157       
H25-N22=1.0662       H26-N22=1.0607       
 N  H  Rav=1.0473 sigma=0.0196  Rmin=1.0157  Rmax=1.0662     4
 O  H  Rav=0.9705 sigma=0.0121  Rmin=0.9530  Rmax=0.9903    11
 S  O  Rav=1.4869 sigma=0.0588  Rmin=1.4426  Rmax=1.5881     4
 
 selected bond angles (degree)
 --------------------
O3-S1-O2=111.99                O4-S1-O2=111.07                O4-S1-O3=114.05                O5-S1-O2=106.27                
O5-S1-O3=106.58                O5-S1-O4=106.29                H6-O5-S1=104.52                H9-O8-H7=105.96                
H12-O10-H11=103.26             
 
 selected dihedral angles (degree)
 ---------------------------------
H6-O5-S1-O2=302.99            H6-O5-S1-O3=183.39            H6-O5-S1-O4= 61.39            
 
 CMA Distance (Angstroems)
 ---------------------------
R(CMA):  3.2797

========================================================================
 FINAL SINGLEPOINT CALCULATION ON OPTIMIZED GEOMETRY
========================================================================

 Ncao       : 65
 Nao        : 64
 Nshell     : 38
 Nel        : 80
 T(el)      :   300.0
 intcut     :    25.0
 scfconv/Eh :  0.100E-05
   qconv/e  :  0.100E-03
 intneglect :  0.100E-07
 broydamp   :      0.250
 iter      E             dE          RMSdq      gap      omega  full diag
   1    -50.7569794 -0.507570E+02  0.146E-05    9.47       0.0  T
   2    -50.7569794 -0.206057E-12  0.938E-06    9.47    2091.4  T
   3    -50.7569794 -0.781597E-13  0.179E-06    9.47   10962.4  T
speedup  1.11
cpu  time for SCC    0.00 s
wall time for SCC    0.00 s

   *** convergence criteria satisfied after 3 iterations ***

          eigenvalues
 #    :          28         29         30         31         32         33         34         35
 occ. :        2.000      2.000      2.000      2.000      2.000      2.000      2.000      2.000
 eps  :       -13.682    -13.257    -12.529    -12.398    -12.338    -12.295    -12.262    -12.200
 #    :          36         37         38         39         40         41         42         43
 occ. :        2.000      2.000      2.000      2.000      2.000      0.000      0.000      0.000
 eps  :       -12.086    -11.995    -11.922    -11.725    -11.701     -2.233     -0.838     -0.431
 #    :          44         45         46         47         48         49         50         51
 occ. :        0.000      0.000      0.000      0.000      0.000      0.000      0.000      0.000
 eps  :         0.718      1.273      1.356      1.919      3.049      3.808      3.897      4.592


   #   Z            q   n(s)   n(p)   n(d)      C6AA      α(0)
   1  16 S      1.653  1.587  1.801  0.959    89.833    15.952
   2   8 O     -0.741  1.770  4.971  0.000    29.843     7.324
   3   8 O     -0.720  1.762  4.958  0.000    29.256     7.252
   4   8 O     -0.750  1.773  4.977  0.000    30.113     7.357
   5   8 O     -0.584  1.751  4.834  0.000    24.781     6.720
   6   1 H      0.342  0.658  0.000  0.000     0.601     1.215
   7   1 H      0.330  0.670  0.000  0.000     0.637     1.254
   8   8 O     -0.632  1.742  4.890  0.000    25.972     6.878
   9   1 H      0.290  0.710  0.000  0.000     0.752     1.362
  10   8 O     -0.610  1.744  4.866  0.000    25.428     6.806
  11   1 H      0.317  0.683  0.000  0.000     0.672     1.288
  12   1 H      0.297  0.703  0.000  0.000     0.730     1.342
  13   8 O     -0.605  1.746  4.859  0.000    25.303     6.789
  14   1 H      0.300  0.700  0.000  0.000     0.721     1.334
  15   1 H      0.327  0.673  0.000  0.000     0.645     1.262
  16   8 O     -0.630  1.759  4.871  0.000    25.921     6.871
  17   1 H      0.329  0.671  0.000  0.000     0.640     1.257
  18   1 H      0.318  0.682  0.000  0.000     0.669     1.285
  19   8 O     -0.602  1.746  4.856  0.000    25.227     6.779
  20   1 H      0.288  0.712  0.000  0.000     0.759     1.368
  21   1 H      0.336  0.664  0.000  0.000     0.623     1.240
  22   7 N     -0.356  1.277  4.079  0.000    29.156     8.020
  23   1 H      0.286  0.714  0.000  0.000     0.757     1.363
  24   1 H      0.238  0.762  0.000  0.000     0.930     1.511
  25   1 H      0.293  0.707  0.000  0.000     0.733     1.342
  26   1 H      0.285  0.715  0.000  0.000     0.758     1.364

 Mol. C6AA /au·bohr⁶  :       5441.134005
 Mol. C8AA /au·bohr⁸  :     117796.114730
 Mol. α(0) /au        :        106.533999

 
 Wiberg/Mayer (AO) data. WBOs > 0.1 written file <wbo>
 largest (>0.05) Wiberg bond orders for each atom
           total WBO             WBO to atom ...
     1  S   4.877    O    3 1.372    O    4 1.296    O    2 1.285    O    5 0.894
     2  O   1.739    S    1 1.285    O    3 0.111    H   26 0.109    O    4 0.109    O    5 0.073
     3  O   1.743    S    1 1.372    O    4 0.112    O    2 0.111    O    5 0.063    H   11 0.050
     4  O   1.717    S    1 1.296    O    3 0.112    O    2 0.109    H    7 0.079    O    5 0.075
     5  O   1.976    S    1 0.894    H    6 0.867    O    4 0.075    O    2 0.073    O    3 0.063
     6  H   0.883    O    5 0.867
     7  H   0.891    O    8 0.804    O    4 0.079
     8  O   1.852    H    9 0.908    H    7 0.804
     9  H   0.916    O    8 0.908
    10  O   1.879    H   12 0.901    H   11 0.845    H   17 0.068
    11  H   0.899    O   10 0.845    O    3 0.050
    12  H   0.912    O   10 0.901
    13  O   1.873    H   14 0.906    H   15 0.857    H   21 0.060
    14  H   0.910    O   13 0.906
    15  H   0.893    O   13 0.857
    16  O   1.920    H   18 0.853    H   17 0.821    H   25 0.123    N   22 0.060
    17  H   0.892    O   16 0.821    O   10 0.068
    18  H   0.899    O   16 0.853
    19  O   1.900    H   20 0.914    H   21 0.826    H   23 0.085
    20  H   0.917    O   19 0.914
    21  H   0.887    O   19 0.826    O   13 0.060
    22  N   3.521    H   24 0.938    H   23 0.829    H   26 0.801    H   25 0.786    O   16 0.060
    23  H   0.918    N   22 0.829    O   19 0.085
    24  H   0.943    N   22 0.938
    25  H   0.914    N   22 0.786    O   16 0.123
    26  H   0.919    N   22 0.801    O    2 0.109
 MOs/occ written to file <molden.input>
 
molecular dipole:
                 x           y           z       tot (Debye)
 q only:       -1.052       0.533      -1.082
   full:       -1.314       0.017       0.045       3.343
molecular quadrupole (traceless):
                xx          xy          yy          xz          yz          zz
 q only:       -5.315       3.541      -1.468      -6.960       6.934       6.784
  q+dip:       -7.955       3.455       0.208      -8.030       6.975       7.747
   full:       -8.141       3.567       0.287      -8.444       6.764       7.853

SCC energy    :     -50.7569794
rep           :       0.2940547
ES            :       0.2649688
AES           :      -0.0712860
AXC           :      -0.0083511
disp          :      -0.0190605
XB            :       0.0000000
fix           :       0.0000000
total E       :     -50.4626177
atomizationE  :       4.9929219     3133.11
(atE without considering molecular charge,
 total energy contains solvation terms)
H-L gap (eV)  :          9.4679
optimized geometry written to: xtbopt.xyz


------------------------------------------------------------------------
 * finished run on 2019/09/16 at 12:22:22.784     
------------------------------------------------------------------------
 total:
 * wall-time:     0 d,  0 h,  0 min,  2.535 sec
 *  cpu-time:     0 d,  0 h,  0 min,  2.512 sec
 * ratio c/w:     0.991 speedup
 SCF:
 * wall-time:     0 d,  0 h,  0 min,  0.140 sec
 *  cpu-time:     0 d,  0 h,  0 min,  0.136 sec
 * ratio c/w:     0.971 speedup
 ANC optimizer:
 * wall-time:     0 d,  0 h,  0 min,  2.371 sec
 *  cpu-time:     0 d,  0 h,  0 min,  2.354 sec
 * ratio c/w:     0.993 speedup

