      -----------------------------------------------------------      
     |                   =====================                   |     
     |                           x T B                           |     
     |                   =====================                   |     
     |                         S. Grimme                         |     
     |          Mulliken Center for Theoretical Chemistry        |     
     |                    University of Bonn                     |     
     |                 Version 6.0.1 (SAW181210)                 |     
      -----------------------------------------------------------      

   This program is distributed in the hope that it will be useful,
   but WITHOUT ANY WARRANTY; without even the implied warranty of
   MERCHANTABILITY or FITNESS FOR A PARTICULAR PURPOSE.
   
   FOR NON-COMMERCIAL, ACADEMIA USE ONLY.
   
   Cite this work as:
   S. Grimme, C. Bannwarth, P. Shushkov, J. Comput. Theory Chem., 2017,
   13, 1989-2009.
   C. Bannwarth, S. Ehlert and S. Grimme., ChemRxiv, 2018, preprint.
   http://doi.org/10.26434/chemrxiv.7246238.v1
   
   for sTDA-xTB:
   S. Grimme and C. Bannwarth, J. Chem. Phys., 2016, 145, 054103.
   
   in the mass-spec context:
   V. Asgeirsson, C. Bauer and S. Grimme, Chem. Sci., 2017, 8, 4879.
   
   if GBSA is used:
   P. Shushkov, F. März and S. Grimme, unpublished.
   
   for ANC optimizer:
   S. Grimme, unpublished.
   Rational Function algorithm used in ANCopt:
   F. Eckert, P. Pulay, H.-J. Werner, J. Comput. Chem., 1997, 18, 1473.
   
   with help from (in alphabetical order)
   C. Bannwarth, F. Bohle, G. Brandenburg, E. Caldeweyher, M. Checinski,
   S. Dohm, S. Ehlert, S. Ehrlich, F. März, H. Neugebauer, J. Pisarek,
   P. Pracht, P. Shushkov, and S. Spicher.
   
 * started run on 2019/09/16 at 11:16:40.221     
========================================================================
 # omp threads = 1
========================================================================
number of atoms            : 26
number of electrons        : 80
charge                     : 0
spin                       : .0
first test random number   : .8553

########################################################################
# WARNING! Please study the warnings concerning your input carefully
#  - XTBPATH is not set, using XTBHOME instead
#  - the use of '-opt' is discouraged, please use '--opt' next time
#  - the use of '-chrg' is discouraged, please use '--chrg' next time
#  - the use of '-uhf' is discouraged, please use '--uhf' next time
########################################################################

           ------------------------------------------------- 
          |                 G F N 2 - x T B                 |
          | Geometry, Frequencies, Noncovalent interactions |
          |            JCTC 2018 parametrisation            |
           ------------------------------------------------- 
      method parameters     
 k(s)        :  1.8500
 k(p)        :  2.2300
 k(d)        :  2.2300
 k(f)        :  2.0000
 kEN (H0ij)  : -2.0000
 D4 a1       :  0.5200
 D4 a2       :  5.0000
 D4 s6       :  1.0000
 D4 s8       :  2.7000
 D4 s9       :  5.0000
 alphaj      :  2.0000


            Z     q(EN)     CN     RAES       Cart. coordinates
     1  S   6.0    0.67    4.13    3.92    -0.65701    -1.56864    -1.40466
     2  O   6.0   -0.30    1.19    1.80    -1.94782    -3.84072    -0.35606
     3  O   6.0   -0.34    1.23    1.80    -1.60088     0.73656    -0.09193
     4  O   6.0   -0.33    1.23    1.80     2.12118    -1.80196    -1.01053
     5  O   6.0   -0.30    1.23    1.80    -1.20052    -1.36843    -4.16014
     6  O   6.0   -0.29    2.03    1.83    -3.01705    -0.77254     4.55092
     7  H   1.0    0.15    0.97    1.43    -4.48379    -1.70964     4.01693
     8  H   1.0    0.17    1.05    1.44    -2.45885     0.13156     3.07253
     9  O   6.0   -0.29    2.04    1.83     4.65436     1.84079    -3.52592
    10  H   1.0    0.15    0.97    1.43     6.45458     1.74470    -3.27179
    11  H   1.0    0.17    1.05    1.44     3.95702     0.46817    -2.55419
    12  O   6.0   -0.30    2.06    1.83     0.70577    -3.24428     6.77333
    13  H   1.0    0.15    0.97    1.43     0.88866    -2.80628     8.53098
    14  H   1.0    0.16    1.05    1.44    -0.66061    -2.20976     6.15901
    15  O   6.0   -0.22    2.91    2.57     0.32537     3.02696    -5.50868
    16  H   1.0    0.15    1.08    1.44    -0.49269     1.34752    -5.51823
    17  H   1.0    0.12    1.07    1.44    -0.60975     4.25553    -4.45692
    18  H   1.0    0.14    1.05    1.44     2.12784     2.92403    -5.02703
    19  O   6.0   -0.22    2.92    2.58     1.69075    -5.43184     2.51108
    20  H   1.0    0.14    1.00    1.43     2.87512    -4.37138     1.52999
    21  H   1.0    0.14    1.06    1.44     1.51107    -4.83549     4.27235
    22  H   1.0    0.15    1.04    1.43     0.03649    -5.60400     1.65943
    23  N   5.0   -0.22    3.05    1.93    -2.27319     5.75883    -2.03591
    24  H   1.0    0.10    0.99    1.43    -1.59689     7.08602    -0.81433
    25  H   1.0    0.13    1.03    1.43    -2.20445     4.08655    -1.08208
    26  H   1.0    0.11    0.99    1.43    -4.14470     6.15775    -2.25815

  Z AO/shell   Hii/eV     exponent
  1     Wed Apr 25 08:07:45 CEST 2018   EN: 2.200 GM2: 0.406  GM3: 0.0800  RAES: 1.40
     1s    -10.707211    1.230000
  7     Wed Apr 25 08:07:45 CEST 2018   EN: 3.040 GM2: 0.461  GM3:-0.0640  RAES: 1.90
     2s    -16.686243    2.339881
     2p    -12.523956    2.014332
  8     Wed Apr 25 08:07:45 CEST 2018   EN: 3.440 GM2: 0.452  GM3:-0.0517  RAES: 1.80
     2s    -20.229985    2.439742
     2p    -15.503117    2.137023
 16     Tue Apr 24 11:44:34 CEST 2018   EN: 2.580 GM2: 0.340  GM3:-0.0502  RAES: 3.10
     3s    -20.029654    1.981333
     3p    -11.377694    2.025643
     3d     -0.420282    1.702555
 no old-style atom pair restraining (fixing) potential

molecular fragmentation (1/2 indicates fragments):
11111222222222222222222222
# atoms in fragment 1/2:     5    21
 fragment masses (1/2) :       96.06      109.12
CMA distance (Bohr)    :   2.734
constraining FC (au)   :  0.0500
           ------------------------------------------------- 
          |        Self-Consistent Charge Iterations        |
           ------------------------------------------------- 

 Ncao       : 65
 Nao        : 64
 Nshell     : 38
 Nel        : 80
 T(el)      :   300.0
 intcut     :    25.0
 scfconv/Eh :  0.100E-05
   qconv/e  :  0.100E-03
 intneglect :  0.100E-07
 broydamp   :      0.250
 iter      E             dE          RMSdq      gap      omega  full diag
   1    -50.5967258 -0.505967E+02  0.697E+00   10.22       0.0  T
   2    -50.6348992 -0.381734E-01  0.500E+00    9.98       1.0  T
   3    -50.6663390 -0.314398E-01  0.108E+00    8.18       1.0  T
   4    -50.6706774 -0.433844E-02  0.487E-01    8.09       1.0  T
   5    -50.6712696 -0.592128E-03  0.240E-01    7.97       1.0  T
   6    -50.6715254 -0.255835E-03  0.121E-01    8.02       1.0  T
   7    -50.6716086 -0.832380E-04  0.460E-02    8.07       1.0  T
   8    -50.6716187 -0.100740E-04  0.258E-02    8.07       1.0  T
   9    -50.6716227 -0.398003E-05  0.106E-02    8.07       1.9  T
  10    -50.6716233 -0.553070E-06  0.201E-03    8.06       9.8  T
  11    -50.6716233 -0.137318E-07  0.904E-04    8.06      21.7  T
  12    -50.6716233 -0.395783E-08  0.329E-04    8.06      59.5  T
speedup  0.93
cpu  time for SCC    0.01 s
wall time for SCC    0.01 s

   *** convergence criteria satisfied after 12 iterations ***

          eigenvalues
 #    :          28         29         30         31         32         33         34         35
 occ. :        2.000      2.000      2.000      2.000      2.000      2.000      2.000      2.000
 eps  :       -12.066    -12.060    -12.043    -11.537    -11.176    -10.677    -10.528     -9.925
 #    :          36         37         38         39         40         41         42         43
 occ. :        2.000      2.000      2.000      2.000      2.000      0.000      0.000      0.000
 eps  :        -9.823     -9.772     -9.621     -9.469     -9.441     -1.379     -0.725      0.619
 #    :          44         45         46         47         48         49         50         51
 occ. :        0.000      0.000      0.000      0.000      0.000      0.000      0.000      0.000
 eps  :         1.711      2.136      2.581      2.675      3.037      3.813      4.060      5.255


   #   Z            q   n(s)   n(p)   n(d)      C6AA      α(0)
   1  16 S      1.493  1.607  1.905  0.995    93.623    16.285
   2   8 O     -0.785  1.778  5.007  0.000    31.132     7.481
   3   8 O     -0.802  1.782  5.020  0.000    31.660     7.544
   4   8 O     -0.816  1.780  5.037  0.000    32.089     7.595
   5   8 O     -0.779  1.780  4.999  0.000    30.955     7.460
   6   8 O     -0.618  1.736  4.883  0.000    25.627     6.832
   7   1 H      0.291  0.709  0.000  0.000     0.748     1.359
   8   1 H      0.331  0.669  0.000  0.000     0.635     1.252
   9   8 O     -0.621  1.728  4.893  0.000    25.695     6.841
  10   1 H      0.285  0.715  0.000  0.000     0.768     1.376
  11   1 H      0.337  0.663  0.000  0.000     0.619     1.235
  12   8 O     -0.627  1.727  4.899  0.000    25.831     6.860
  13   1 H      0.291  0.709  0.000  0.000     0.747     1.358
  14   1 H      0.343  0.657  0.000  0.000     0.604     1.221
  15   8 O     -0.422  1.638  4.784  0.000    21.219     6.221
  16   1 H      0.412  0.588  0.000  0.000     0.464     1.070
  17   1 H      0.391  0.609  0.000  0.000     0.502     1.113
  18   1 H      0.410  0.590  0.000  0.000     0.467     1.074
  19   8 O     -0.399  1.632  4.767  0.000    20.774     6.156
  20   1 H      0.406  0.594  0.000  0.000     0.473     1.081
  21   1 H      0.417  0.583  0.000  0.000     0.455     1.059
  22   1 H      0.417  0.583  0.000  0.000     0.454     1.059
  23   7 N     -0.465  1.383  4.083  0.000    32.276     8.437
  24   1 H      0.148  0.852  0.000  0.000     1.413     1.862
  25   1 H      0.212  0.788  0.000  0.000     1.045     1.601
  26   1 H      0.149  0.851  0.000  0.000     1.407     1.858

 Mol. C6AA /au·bohr⁶  :       5520.114569
 Mol. C8AA /au·bohr⁸  :     119919.401763
 Mol. α(0) /au        :        107.290145

 
 Wiberg/Mayer (AO) data. WBOs > 0.1 written file <wbo>
 largest (>0.05) Wiberg bond orders for each atom
           total WBO             WBO to atom ...
     1  S   5.000    O    2 1.265    O    5 1.251    O    3 1.235    O    4 1.214
     2  O   1.671    S    1 1.265    O    4 0.096    O    3 0.094    O    5 0.085    H   22 0.085
     3  O   1.654    S    1 1.235    O    5 0.098    O    2 0.094    O    4 0.094    H    8 0.055
     4  O   1.646    S    1 1.214    O    2 0.096    O    3 0.094    O    5 0.093    H   11 0.060
     5  O   1.688    S    1 1.251    H   16 0.112    O    3 0.098    O    4 0.093    O    2 0.085
     6  O   1.863    H    7 0.910    H    8 0.831    H   14 0.065
     7  H   0.915    O    6 0.910
     8  H   0.891    O    6 0.831    O    3 0.055
     9  O   1.850    H   10 0.905    H   11 0.822    H   18 0.069
    10  H   0.919    O    9 0.905
    11  H   0.886    O    9 0.822    O    4 0.060
    12  O   1.853    H   13 0.901    H   14 0.815    H   21 0.079
    13  H   0.915    O   12 0.901
    14  H   0.882    O   12 0.815    O    6 0.065
    15  O   2.325    H   18 0.755    H   17 0.743    H   16 0.710
    16  H   0.830    O   15 0.710    O    5 0.112
    17  H   0.847    O   15 0.743    N   23 0.098
    18  H   0.832    O   15 0.755    O    9 0.069
    19  O   2.346    H   20 0.785    H   21 0.739    H   22 0.734
    20  H   0.835    O   19 0.785
    21  H   0.826    O   19 0.739    O   12 0.079
    22  H   0.826    O   19 0.734    O    2 0.085
    23  N   3.026    H   26 0.974    H   24 0.973    H   25 0.914    H   17 0.098
    24  H   0.978    N   23 0.973
    25  H   0.955    N   23 0.914
    26  H   0.978    N   23 0.974
 MOs/occ written to file <molden.input>
 
molecular dipole:
                 x           y           z       tot (Debye)
 q only:        1.824       0.944       1.048
   full:        1.476       1.050       1.525       6.018
molecular quadrupole (traceless):
                xx          xy          yy          xz          yz          zz
 q only:       -7.674      -9.261       4.577      -1.187     -25.303       3.097
  q+dip:       -0.960      -9.572       1.762      -2.216     -18.307      -0.802
   full:       -0.648      -9.388       1.607      -1.956     -18.454      -0.959

SCC energy    :     -50.6716233
rep           :       0.2897506
ES            :       0.3457625
AES           :      -0.0825570
AXC           :      -0.0090139
disp          :      -0.0178235
XB            :       0.0000000
fix           :       0.0000000
total E       :     -50.3816782
atomizationE  :       4.9119823     3082.32
(atE without considering molecular charge,
 total energy contains solvation terms)
H-L gap (eV)  :          8.0618
           ------------------------------------------------- 
          |                 ===============                 |
          |                   A N C O P T                   |
          |                 ===============                 |
          |          Approximate Normal Coordinate          |
          |           Rational Function Optimizer           |
           ------------------------------------------------- 
dumping coords to <xtbopt.coord> and <xtbopt.log>
 optlevel               2
 Maxcycle             520
 Maxmicro              25
 Econv         1.000000000000000E-007
 Gconv         2.000000000000000E-004
 Maxdispl       1.00000000000000     
 Hlow          5.000000000000000E-003
 S6             20.0000000000000     
 Nvar               72

generating ANC from model Hessian ...
 Shifting diagonal of input Hessian by   5.101914813883240E-003
 Lowest  eigenvalues of input Hessian
    0.005000   -0.000000   -0.000000   -0.000000    0.000000    0.000000
    0.000000    0.005209    0.005253    0.005505    0.005709    0.005872
    0.006279    0.006441    0.006599    0.006696    0.007147    0.007692
 Highest eigenvalues
    1.554702    1.558717    1.561606    3.077700    3.081442    3.086508
 
cpu  time for ANC gen    0.01 s
wall time for ANC gen    0.01 s
................................................................................
.............................. CYCLE    1 ......................................
................................................................................
   1    -50.6716233 -0.506716E+02  0.535E-05    8.06       0.0  T
   2    -50.6716233 -0.783729E-11  0.397E-05    8.06     494.2  T
   3    -50.6716233 -0.403588E-11  0.220E-05    8.06     890.1  T
speedup  1.07
cpu  time for SCC    0.00 s
wall time for SCC    0.00 s
speedup  1.01
cpu  time for grad    0.01 s
wall time for grad    0.01 s
 E :    -50.38167815  G :  0.123382    pred/act E change:  0.000D+00  0.174D-07
Maxdispl :   0.2909   ||displ|| :   0.5517   Lambda : -0.341D-01
Largest |displ|/coords:  0.2909 (  26)  0.2156 (  23)  0.1560 (  22)
................................................................................
.............................. CYCLE    2 ......................................
................................................................................
   1    -50.6808153 -0.506808E+02  0.397E-01    8.42       0.0  T
   2    -50.6810569 -0.241599E-03  0.300E-01    8.52       1.0  T
   3    -50.6811799 -0.122987E-03  0.776E-02    8.71       1.0  T
   4    -50.6812041 -0.242805E-04  0.313E-02    8.70       1.0  T
   5    -50.6812064 -0.221102E-05  0.859E-03    8.69       2.3  T
   6    -50.6812065 -0.171648E-06  0.467E-03    8.69       4.2  T
   7    -50.6812066 -0.878964E-07  0.203E-03    8.69       9.7  T
speedup  0.95
cpu  time for SCC    0.01 s
wall time for SCC    0.01 s
speedup  0.99
cpu  time for grad    0.01 s
wall time for grad    0.01 s
 E :    -50.41188621  G :  0.079086    pred/act E change:  0.000D+00 -0.302D-01
Maxdispl :   0.3306   ||displ|| :   0.6043   Lambda : -0.258D-01
Largest |displ|/coords:  0.3306 (  26)  0.2081 (  22)  0.2042 (  23)
................................................................................
.............................. CYCLE    3 ......................................
................................................................................
   1    -50.6882656 -0.506883E+02  0.379E-01    8.90       0.0  T
   2    -50.6888376 -0.571949E-03  0.278E-01    8.97       1.0  T
   3    -50.6891073 -0.269715E-03  0.107E-01    9.07       1.0  T
   4    -50.6891299 -0.225999E-04  0.371E-02    9.09       1.0  T
   5    -50.6891322 -0.225945E-05  0.113E-02    9.09       1.7  T
   6    -50.6891325 -0.314268E-06  0.580E-03    9.08       3.4  T
   7    -50.6891326 -0.147204E-06  0.266E-03    9.08       7.4  T
speedup  0.95
cpu  time for SCC    0.01 s
wall time for SCC    0.01 s
speedup  0.99
cpu  time for grad    0.01 s
wall time for grad    0.01 s
 E :    -50.43274559  G :  0.048390    pred/act E change: -0.223D-01 -0.209D-01
Maxdispl :   0.3149   ||displ|| :   0.6108   Lambda : -0.160D-01
Largest |displ|/coords:  0.3149 (  26)  0.2369 (  22)  0.1565 (  15)
................................................................................
.............................. CYCLE    4 ......................................
................................................................................
   1    -50.6894467 -0.506894E+02  0.453E-01    9.22       0.0  T
   2    -50.6905618 -0.111505E-02  0.324E-01    9.25       1.0  T
   3    -50.6910557 -0.493948E-03  0.137E-01    9.27       1.0  T
   4    -50.6910834 -0.276420E-04  0.472E-02    9.27       1.0  T
   5    -50.6910866 -0.317400E-05  0.144E-02    9.27       1.4  T
   6    -50.6910870 -0.426750E-06  0.710E-03    9.27       2.8  T
   7    -50.6910872 -0.209045E-06  0.312E-03    9.27       6.3  T
   8    -50.6910873 -0.625368E-07  0.934E-04    9.27      21.0  T
speedup  0.99
cpu  time for SCC    0.01 s
wall time for SCC    0.01 s
speedup  1.01
cpu  time for grad    0.01 s
wall time for grad    0.01 s
 E :    -50.44166925  G :  0.036921    pred/act E change: -0.176D-01 -0.892D-02
Maxdispl :   0.1614   ||displ|| :   0.3869   Lambda : -0.312D-02
Largest |displ|/coords:  0.1614 (   9)  0.1507 (   8)  0.1258 (  13)
................................................................................
.............................. CYCLE    5 ......................................
................................................................................
   1    -50.6930994 -0.506931E+02  0.280E-01    9.34       0.0  T
   2    -50.6931474 -0.480423E-04  0.208E-01    9.34       1.0  T
   3    -50.6931708 -0.233963E-04  0.457E-02    9.35       1.0  T
   4    -50.6931769 -0.611535E-05  0.104E-02    9.35       1.9  T
   5    -50.6931773 -0.336296E-06  0.374E-03    9.35       5.2  T
   6    -50.6931773 -0.119091E-07  0.195E-03    9.35      10.1  T
speedup  1.07
cpu  time for SCC    0.01 s
wall time for SCC    0.01 s
speedup  0.97
cpu  time for grad    0.01 s
wall time for grad    0.01 s
 E :    -50.44360616  G :  0.036661    pred/act E change: -0.110D-01 -0.194D-02
Maxdispl :   0.1928   ||displ|| :   0.5451   Lambda : -0.395D-02
Largest |displ|/coords:  0.1928 (  12)  0.1844 (  15)  0.1708 (  11)
................................................................................
.............................. CYCLE    6 ......................................
................................................................................
   1    -50.7045607 -0.507046E+02  0.516E-01    9.53       0.0  T
   2    -50.7046813 -0.120558E-03  0.390E-01    9.52       1.0  T
   3    -50.7047623 -0.809830E-04  0.656E-02    9.52       1.0  T
   4    -50.7047788 -0.165825E-04  0.190E-02    9.53       1.0  T
   5    -50.7047796 -0.731352E-06  0.603E-03    9.53       3.3  T
   6    -50.7047796 -0.163524E-07  0.321E-03    9.53       6.1  T
   7    -50.7047796 -0.147699E-07  0.727E-04    9.53      27.0  T
speedup  1.13
cpu  time for SCC    0.01 s
wall time for SCC    0.01 s
speedup  0.98
cpu  time for grad    0.01 s
wall time for grad    0.01 s
 E :    -50.44310976  G :  0.043203    pred/act E change: -0.180D-02  0.496D-03
Maxdispl :   0.1917   ||displ|| :   0.3592   Lambda : -0.452D-02
Largest |displ|/coords:  0.1917 (  10)  0.1182 (   8)  0.1011 (   9)
................................................................................
.............................. CYCLE    7 ......................................
................................................................................
   1    -50.7107041 -0.507107E+02  0.492E-01    9.57       0.0  T
   2    -50.7107793 -0.752059E-04  0.374E-01    9.58       1.0  T
   3    -50.7108278 -0.484796E-04  0.521E-02    9.58       1.0  T
   4    -50.7108402 -0.124367E-04  0.152E-02    9.58       1.3  T
   5    -50.7108407 -0.511984E-06  0.478E-03    9.58       4.1  T
   6    -50.7108407 -0.557998E-08  0.266E-03    9.58       7.4  T
speedup  0.94
cpu  time for SCC    0.00 s
wall time for SCC    0.01 s
speedup  0.92
cpu  time for grad    0.01 s
wall time for grad    0.01 s
 E :    -50.44511809  G :  0.026296    pred/act E change: -0.256D-02 -0.201D-02
Maxdispl :   0.2154   ||displ|| :   0.4153   Lambda : -0.365D-02
Largest |displ|/coords:  0.2154 (   8)  0.1549 (   7)  0.0977 (  10)
................................................................................
.............................. CYCLE    8 ......................................
................................................................................
   1    -50.6984407 -0.506984E+02  0.402E-01    9.55       0.0  T
   2    -50.6986489 -0.208234E-03  0.301E-01    9.55       1.0  T
   3    -50.6987512 -0.102339E-03  0.822E-02    9.55       1.0  T
   4    -50.6987773 -0.261060E-04  0.238E-02    9.54       1.0  T
   5    -50.6987784 -0.110578E-05  0.827E-03    9.54       2.4  T
   6    -50.6987785 -0.730237E-07  0.470E-03    9.54       4.2  T
   7    -50.6987785 -0.319059E-07  0.979E-04    9.54      20.0  T
speedup  0.78
cpu  time for SCC    0.00 s
wall time for SCC    0.01 s
speedup  0.90
cpu  time for grad    0.01 s
wall time for grad    0.01 s
 E :    -50.44492841  G :  0.056944    pred/act E change: -0.255D-02  0.190D-03
Maxdispl :   0.1972   ||displ|| :   0.4387   Lambda : -0.882D-02
Largest |displ|/coords:  0.1972 (   7)  0.1741 (  11)  0.1627 (   8)
................................................................................
.............................. CYCLE    9 ......................................
................................................................................
   1    -50.7134861 -0.507135E+02  0.522E-01    9.61       0.0  T
   2    -50.7136822 -0.196087E-03  0.391E-01    9.60       1.0  T
   3    -50.7138129 -0.130715E-03  0.796E-02    9.59       1.0  T
   4    -50.7138375 -0.245851E-04  0.158E-02    9.60       1.2  T
   5    -50.7138378 -0.278610E-06  0.869E-03    9.60       2.3  T
   6    -50.7138378 -0.521890E-07  0.323E-03    9.60       6.1  T
   7    -50.7138379 -0.233059E-07  0.865E-04    9.60      22.7  T
speedup  0.98
cpu  time for SCC    0.01 s
wall time for SCC    0.01 s
speedup  1.01
cpu  time for grad    0.01 s
wall time for grad    0.01 s
 E :    -50.44618663  G :  0.045845    pred/act E change: -0.214D-02 -0.126D-02
Maxdispl :   0.1208   ||displ|| :   0.2708   Lambda : -0.245D-02
Largest |displ|/coords:  0.1208 (   1)  0.0947 (  13)  0.0854 (   5)
................................................................................
.............................. CYCLE   10 ......................................
................................................................................
   1    -50.7166820 -0.507167E+02  0.194E-01    9.63       0.0  T
   2    -50.7167799 -0.979103E-04  0.147E-01    9.62       1.0  T
   3    -50.7168230 -0.431230E-04  0.612E-02    9.62       1.0  T
   4    -50.7168302 -0.724737E-05  0.201E-02    9.62       1.0  T
   5    -50.7168310 -0.750895E-06  0.502E-03    9.62       3.9  T
   6    -50.7168310 -0.274375E-07  0.270E-03    9.62       7.3  T
speedup  1.13
cpu  time for SCC    0.01 s
wall time for SCC    0.01 s
speedup  0.94
cpu  time for grad    0.01 s
wall time for grad    0.01 s
 E :    -50.44812572  G :  0.033124    pred/act E change: -0.526D-02 -0.194D-02
Maxdispl :   0.2269   ||displ|| :   0.6070   Lambda : -0.534D-02
Largest |displ|/coords:  0.2269 (  23)  0.2214 (  13)  0.2078 (  24)
................................................................................
.............................. CYCLE   11 ......................................
................................................................................
   1    -50.7116479 -0.507116E+02  0.586E-01    9.58       0.0  T
   2    -50.7121418 -0.493900E-03  0.443E-01    9.57       1.0  T
   3    -50.7123947 -0.252838E-03  0.144E-01    9.55       1.0  T
   4    -50.7124471 -0.523907E-04  0.446E-02    9.55       1.0  T
   5    -50.7124507 -0.358246E-05  0.119E-02    9.55       1.6  T
   6    -50.7124508 -0.115018E-06  0.680E-03    9.55       2.9  T
   7    -50.7124508 -0.779065E-07  0.158E-03    9.55      12.4  T
   8    -50.7124509 -0.737443E-08  0.463E-04    9.55      42.4  T
speedup  0.99
cpu  time for SCC    0.01 s
wall time for SCC    0.01 s
speedup  1.01
cpu  time for grad    0.01 s
wall time for grad    0.01 s
 E :    -50.44899448  G :  0.056598    pred/act E change: -0.131D-02 -0.869D-03
Maxdispl :   0.2802   ||displ|| :   0.5085   Lambda : -0.115D-01
Largest |displ|/coords:  0.2802 (   4)  0.2111 (   5)  0.1272 (   6)
................................................................................
.............................. CYCLE   12 ......................................
................................................................................
   1    -50.7152839 -0.507153E+02  0.780E-01    9.52       0.0  T
   2    -50.7158991 -0.615191E-03  0.586E-01    9.54       1.0  T
   3    -50.7161992 -0.300136E-03  0.150E-01    9.57       1.0  T
   4    -50.7162813 -0.820463E-04  0.422E-02    9.57       1.0  T
   5    -50.7162839 -0.260227E-05  0.121E-02    9.57       1.6  T
   6    -50.7162842 -0.325234E-06  0.806E-03    9.57       2.4  T
   7    -50.7162843 -0.111054E-06  0.180E-03    9.57      10.9  T
   8    -50.7162843 -0.115406E-07  0.578E-04    9.57      33.9  T
speedup  1.00
cpu  time for SCC    0.01 s
wall time for SCC    0.01 s
speedup  1.01
cpu  time for grad    0.01 s
wall time for grad    0.01 s
 E :    -50.44767187  G :  0.047096    pred/act E change: -0.366D-02  0.132D-02
Maxdispl :   0.1197   ||displ|| :   0.2813   Lambda : -0.587D-02
Largest |displ|/coords:  0.1197 (   4)  0.0879 (  36)  0.0717 (  34)
................................................................................
.............................. CYCLE   13 ......................................
................................................................................
   1    -50.7260455 -0.507260E+02  0.274E-01    9.65       0.0  T
   2    -50.7262199 -0.174349E-03  0.202E-01    9.64       1.0  T
   3    -50.7263121 -0.922236E-04  0.744E-02    9.63       1.0  T
   4    -50.7263248 -0.127077E-04  0.192E-02    9.63       1.0  T
   5    -50.7263255 -0.733278E-06  0.824E-03    9.63       2.4  T
   6    -50.7263256 -0.387162E-07  0.392E-03    9.63       5.0  T
   7    -50.7263256 -0.435504E-07  0.925E-04    9.63      21.2  T
speedup  0.97
cpu  time for SCC    0.01 s
wall time for SCC    0.01 s
speedup  1.01
cpu  time for grad    0.01 s
wall time for grad    0.01 s
 E :    -50.45073438  G :  0.025736    pred/act E change: -0.721D-02 -0.306D-02
Maxdispl :   0.2006   ||displ|| :   0.4001   Lambda : -0.293D-02
Largest |displ|/coords:  0.2006 (   6)  0.1606 (  23)  0.1124 (   1)
................................................................................
.............................. CYCLE   14 ......................................
................................................................................
   1    -50.7243319 -0.507243E+02  0.355E-01    9.59       0.0  T
   2    -50.7244182 -0.863404E-04  0.266E-01    9.59       1.0  T
   3    -50.7244622 -0.440179E-04  0.615E-02    9.60       1.0  T
   4    -50.7244743 -0.120303E-04  0.209E-02    9.59       1.0  T
   5    -50.7244749 -0.649562E-06  0.529E-03    9.59       3.7  T
   6    -50.7244749 -0.311720E-07  0.333E-03    9.59       5.9  T
speedup  0.93
cpu  time for SCC    0.00 s
wall time for SCC    0.01 s
speedup  0.96
cpu  time for grad    0.01 s
wall time for grad    0.01 s
 E :    -50.45178677  G :  0.027220    pred/act E change: -0.317D-02 -0.105D-02
Maxdispl :   0.0701   ||displ|| :   0.1974   Lambda : -0.168D-02
Largest |displ|/coords:  0.0701 (   6)  0.0681 (  10)  0.0606 (  12)
................................................................................
.............................. CYCLE   15 ......................................
................................................................................
   1    -50.7221489 -0.507221E+02  0.229E-01    9.55       0.0  T
   2    -50.7221897 -0.407541E-04  0.172E-01    9.56       1.0  T
   3    -50.7222137 -0.239946E-04  0.389E-02    9.58       1.0  T
   4    -50.7222193 -0.558938E-05  0.126E-02    9.57       1.6  T
   5    -50.7222195 -0.193138E-06  0.361E-03    9.57       5.4  T
   6    -50.7222195 -0.197820E-07  0.216E-03    9.57       9.1  T
speedup  0.73
cpu  time for SCC    0.00 s
wall time for SCC    0.01 s
speedup  0.90
cpu  time for grad    0.01 s
wall time for grad    0.01 s
 E :    -50.45190337  G :  0.029413    pred/act E change: -0.170D-02 -0.117D-03
Maxdispl :   0.1283   ||displ|| :   0.2599   Lambda : -0.195D-02
Largest |displ|/coords:  0.1283 (   1)  0.1098 (   6)  0.0646 (  14)
................................................................................
.............................. CYCLE   16 ......................................
................................................................................
   1    -50.7238571 -0.507239E+02  0.260E-01    9.57       0.0  T
   2    -50.7238754 -0.183050E-04  0.196E-01    9.57       1.0  T
   3    -50.7238898 -0.144008E-04  0.249E-02    9.58       1.0  T
   4    -50.7238923 -0.247683E-05  0.800E-03    9.58       2.5  T
   5    -50.7238924 -0.642207E-07  0.311E-03    9.58       6.3  T
   6    -50.7238924 -0.100686E-07  0.169E-03    9.58      11.6  T
speedup  1.11
cpu  time for SCC    0.01 s
wall time for SCC    0.01 s
speedup  1.06
cpu  time for grad    0.01 s
wall time for grad    0.01 s
 E :    -50.45263503  G :  0.019427    pred/act E change: -0.870D-03 -0.732D-03
Maxdispl :   0.1101   ||displ|| :   0.2251   Lambda : -0.135D-02
Largest |displ|/coords:  0.1101 (   2)  0.0631 (   1)  0.0620 (   9)
................................................................................
.............................. CYCLE   17 ......................................
................................................................................
   1    -50.7331628 -0.507332E+02  0.171E-01    9.61       0.0  T
   2    -50.7332175 -0.547315E-04  0.129E-01    9.61       1.0  T
   3    -50.7332497 -0.321406E-04  0.471E-02    9.60       1.0  T
   4    -50.7332549 -0.519661E-05  0.143E-02    9.61       1.4  T
   5    -50.7332552 -0.377139E-06  0.472E-03    9.61       4.2  T
   6    -50.7332553 -0.226813E-07  0.251E-03    9.61       7.8  T
   7    -50.7332553 -0.104579E-07  0.529E-04    9.61      37.1  T
speedup  1.13
cpu  time for SCC    0.01 s
wall time for SCC    0.01 s
speedup  0.99
cpu  time for grad    0.01 s
wall time for grad    0.01 s
 E :    -50.45271582  G :  0.024536    pred/act E change: -0.104D-02 -0.808D-04
Maxdispl :   0.0833   ||displ|| :   0.1592   Lambda : -0.125D-02
Largest |displ|/coords:  0.0833 (   6)  0.0542 (  14)  0.0446 (  16)
................................................................................
.............................. CYCLE   18 ......................................
................................................................................
   1    -50.7294842 -0.507295E+02  0.194E-01    9.57       0.0  T
   2    -50.7294973 -0.130162E-04  0.147E-01    9.58       1.0  T
   3    -50.7295069 -0.962869E-05  0.206E-02    9.59       1.0  T
   4    -50.7295089 -0.197911E-05  0.678E-03    9.59       2.9  T
   5    -50.7295090 -0.804971E-07  0.235E-03    9.58       8.4  T
   6    -50.7295090 -0.412298E-08  0.134E-03    9.58      14.7  T
speedup  0.91
cpu  time for SCC    0.00 s
wall time for SCC    0.01 s
speedup  0.98
cpu  time for grad    0.01 s
wall time for grad    0.01 s
 E :    -50.45333469  G :  0.011794    pred/act E change: -0.709D-03 -0.619D-03
Maxdispl :   0.0680   ||displ|| :   0.1564   Lambda : -0.533D-03
Largest |displ|/coords:  0.0680 (  18)  0.0622 (   8)  0.0556 (   1)
................................................................................
.............................. CYCLE   19 ......................................
................................................................................
   1    -50.7241650 -0.507242E+02  0.127E-01    9.51       0.0  T
   2    -50.7241755 -0.105138E-04  0.934E-02    9.52       1.0  T
   3    -50.7241812 -0.568660E-05  0.177E-02    9.52       1.1  T
   4    -50.7241825 -0.134657E-05  0.618E-03    9.52       3.2  T
   5    -50.7241826 -0.511897E-07  0.204E-03    9.52       9.6  T
   6    -50.7241826 -0.539643E-08  0.109E-03    9.52      18.0  T
speedup  1.09
cpu  time for SCC    0.01 s
wall time for SCC    0.01 s
speedup  1.05
cpu  time for grad    0.01 s
wall time for grad    0.01 s
 E :    -50.45346971  G :  0.014129    pred/act E change: -0.641D-03 -0.135D-03
Maxdispl :   0.0583   ||displ|| :   0.1479   Lambda : -0.540D-03
Largest |displ|/coords:  0.0583 (   2)  0.0460 (   1)  0.0448 (   7)
................................................................................
.............................. CYCLE   20 ......................................
................................................................................
   1    -50.7282815 -0.507283E+02  0.986E-02    9.52       0.0  T
   2    -50.7282870 -0.547623E-05  0.738E-02    9.52       1.0  T
   3    -50.7282909 -0.392781E-05  0.140E-02    9.52       1.4  T
   4    -50.7282916 -0.665000E-06  0.639E-03    9.52       3.1  T
   5    -50.7282916 -0.458940E-07  0.165E-03    9.52      11.9  T
   6    -50.7282916 -0.456686E-08  0.997E-04    9.52      19.7  T
speedup  0.93
cpu  time for SCC    0.00 s
wall time for SCC    0.01 s
speedup  0.98
cpu  time for grad    0.01 s
wall time for grad    0.01 s
 E :    -50.45375225  G :  0.013056    pred/act E change: -0.273D-03 -0.283D-03
Maxdispl :   0.0921   ||displ|| :   0.2392   Lambda : -0.702D-03
Largest |displ|/coords:  0.0921 (   2)  0.0635 (  11)  0.0620 (   4)
................................................................................
.............................. CYCLE   21 ......................................
................................................................................
   1    -50.7312150 -0.507312E+02  0.130E-01    9.53       0.0  T
   2    -50.7312272 -0.121559E-04  0.964E-02    9.53       1.0  T
   3    -50.7312342 -0.696498E-05  0.221E-02    9.53       1.0  T
   4    -50.7312357 -0.155407E-05  0.660E-03    9.53       3.0  T
   5    -50.7312358 -0.679371E-07  0.238E-03    9.53       8.2  T
   6    -50.7312358 -0.732793E-08  0.139E-03    9.53      14.1  T
speedup  0.93
cpu  time for SCC    0.01 s
wall time for SCC    0.01 s
speedup  0.97
cpu  time for grad    0.01 s
wall time for grad    0.01 s
 E :    -50.45400982  G :  0.011333    pred/act E change: -0.276D-03 -0.258D-03
Maxdispl :   0.0534   ||displ|| :   0.1531   Lambda : -0.390D-03
Largest |displ|/coords:  0.0534 (  13)  0.0522 (   4)  0.0475 (  20)
................................................................................
.............................. CYCLE   22 ......................................
................................................................................
   1    -50.7299133 -0.507299E+02  0.125E-01    9.52       0.0  T
   2    -50.7299206 -0.733817E-05  0.935E-02    9.52       1.0  T
   3    -50.7299257 -0.506709E-05  0.159E-02    9.51       1.2  T
   4    -50.7299267 -0.983719E-06  0.566E-03    9.52       3.5  T
   5    -50.7299267 -0.399561E-07  0.189E-03    9.52      10.4  T
   6    -50.7299267 -0.397418E-08  0.108E-03    9.52      18.2  T
speedup  0.93
cpu  time for SCC    0.00 s
wall time for SCC    0.01 s
speedup  0.98
cpu  time for grad    0.01 s
wall time for grad    0.01 s
 E :    -50.45425038  G :  0.011610    pred/act E change: -0.371D-03 -0.241D-03
Maxdispl :   0.0878   ||displ|| :   0.1660   Lambda : -0.319D-03
Largest |displ|/coords:  0.0878 (  13)  0.0616 (   4)  0.0461 (  20)
................................................................................
.............................. CYCLE   23 ......................................
................................................................................
   1    -50.7286447 -0.507286E+02  0.111E-01    9.52       0.0  T
   2    -50.7286509 -0.618391E-05  0.834E-02    9.52       1.0  T
   3    -50.7286548 -0.384648E-05  0.139E-02    9.52       1.4  T
   4    -50.7286557 -0.982640E-06  0.482E-03    9.52       4.1  T
   5    -50.7286558 -0.227390E-07  0.160E-03    9.52      12.3  T
   6    -50.7286558 -0.400641E-08  0.774E-04    9.52      25.3  T
speedup  1.13
cpu  time for SCC    0.01 s
wall time for SCC    0.01 s
speedup  0.98
cpu  time for grad    0.01 s
wall time for grad    0.01 s
 E :    -50.45442744  G :  0.007524    pred/act E change: -0.200D-03 -0.177D-03
Maxdispl :   0.0791   ||displ|| :   0.1738   Lambda : -0.232D-03
Largest |displ|/coords:  0.0791 (   4)  0.0693 (  11)  0.0626 (   5)
................................................................................
.............................. CYCLE   24 ......................................
................................................................................
   1    -50.7274784 -0.507275E+02  0.124E-01    9.54       0.0  T
   2    -50.7274863 -0.784895E-05  0.931E-02    9.54       1.0  T
   3    -50.7274901 -0.379073E-05  0.153E-02    9.54       1.3  T
   4    -50.7274915 -0.143540E-05  0.475E-03    9.54       4.1  T
   5    -50.7274915 -0.396916E-07  0.164E-03    9.54      11.9  T
   6    -50.7274915 -0.267662E-08  0.828E-04    9.54      23.7  T
speedup  0.94
cpu  time for SCC    0.00 s
wall time for SCC    0.01 s
speedup  0.98
cpu  time for grad    0.01 s
wall time for grad    0.01 s
 E :    -50.45458363  G :  0.009967    pred/act E change: -0.164D-03 -0.156D-03
Maxdispl :   0.1399   ||displ|| :   0.3092   Lambda : -0.416D-03
Largest |displ|/coords:  0.1399 (   4)  0.1233 (  13)  0.1073 (   5)
................................................................................
.............................. CYCLE   25 ......................................
................................................................................
   1    -50.7279864 -0.507280E+02  0.177E-01    9.59       0.0  T
   2    -50.7280084 -0.220611E-04  0.133E-01    9.59       1.0  T
   3    -50.7280174 -0.894587E-05  0.238E-02    9.59       1.0  T
   4    -50.7280213 -0.389108E-05  0.812E-03    9.59       2.4  T
   5    -50.7280214 -0.125626E-06  0.232E-03    9.59       8.4  T
   6    -50.7280214 -0.578436E-08  0.120E-03    9.59      16.3  T
speedup  0.93
cpu  time for SCC    0.00 s
wall time for SCC    0.01 s
speedup  0.98
cpu  time for grad    0.01 s
wall time for grad    0.01 s
 E :    -50.45478671  G :  0.011872    pred/act E change: -0.119D-03 -0.203D-03
Maxdispl :   0.1095   ||displ|| :   0.2617   Lambda : -0.340D-03
Largest |displ|/coords:  0.1095 (   4)  0.0973 (  13)  0.0966 (   5)

generating ANC from model Hessian ...
 Shifting diagonal of input Hessian by   5.019197280086055E-003
 Lowest  eigenvalues of input Hessian
    0.005000   -0.000000   -0.000000   -0.000000    0.000000    0.000000
    0.000000    0.005286    0.005464    0.005947    0.006582    0.006751
    0.007125    0.007676    0.008678    0.009012    0.010258    0.012939
 Highest eigenvalues
    1.384201    1.398745    1.404617    2.930543    3.407301    3.463404
 
cpu  time for ANC gen    0.01 s
wall time for ANC gen    0.01 s
................................................................................
.............................. CYCLE   26 ......................................
................................................................................
   1    -50.7267413 -0.507267E+02  0.170E-01    9.60       0.0  T
   2    -50.7267670 -0.257042E-04  0.128E-01    9.59       1.0  T
   3    -50.7267765 -0.948680E-05  0.278E-02    9.59       1.0  T
   4    -50.7267811 -0.457397E-05  0.723E-03    9.59       2.7  T
   5    -50.7267811 -0.862213E-07  0.240E-03    9.59       8.2  T
   6    -50.7267811 -0.505385E-08  0.119E-03    9.59      16.5  T
   7    -50.7267811 -0.252847E-08  0.319E-04    9.59      61.5  T
   8    -50.7267811 -0.209013E-09  0.982E-05    9.59     199.8  T
speedup  0.99
cpu  time for SCC    0.01 s
wall time for SCC    0.01 s
speedup  0.97
cpu  time for grad    0.01 s
wall time for grad    0.02 s
 E :    -50.45496696  G :  0.015964    pred/act E change:  0.000D+00 -0.180D-03
Maxdispl :   0.0525   ||displ|| :   0.1146   Lambda : -0.371D-03
Largest |displ|/coords:  0.0525 (   4)  0.0482 (   7)  0.0323 (   2)
................................................................................
.............................. CYCLE   27 ......................................
................................................................................
   1    -50.7279496 -0.507279E+02  0.856E-02    9.57       0.0  T
   2    -50.7279512 -0.164660E-05  0.647E-02    9.57       1.0  T
   3    -50.7279524 -0.116589E-05  0.647E-03    9.57       3.0  T
   4    -50.7279526 -0.251891E-06  0.262E-03    9.57       7.5  T
   5    -50.7279526 -0.797210E-08  0.773E-04    9.57      25.4  T
speedup  1.11
cpu  time for SCC    0.00 s
wall time for SCC    0.00 s
speedup  1.04
cpu  time for grad    0.01 s
wall time for grad    0.01 s
 E :    -50.45520505  G :  0.009264    pred/act E change:  0.000D+00 -0.238D-03
Maxdispl :   0.0875   ||displ|| :   0.1724   Lambda : -0.299D-03
Largest |displ|/coords:  0.0875 (   4)  0.0683 (   8)  0.0655 (   5)
................................................................................
.............................. CYCLE   28 ......................................
................................................................................
   1    -50.7284686 -0.507285E+02  0.132E-01    9.52       0.0  T
   2    -50.7284732 -0.451331E-05  0.990E-02    9.53       1.0  T
   3    -50.7284758 -0.261975E-05  0.111E-02    9.53       1.8  T
   4    -50.7284766 -0.808240E-06  0.434E-03    9.53       4.5  T
   5    -50.7284766 -0.157316E-07  0.122E-03    9.53      16.0  T
   6    -50.7284766 -0.127967E-08  0.646E-04    9.53      30.3  T
speedup  1.13
cpu  time for SCC    0.01 s
wall time for SCC    0.01 s
speedup  1.06
cpu  time for grad    0.01 s
wall time for grad    0.01 s
 E :    -50.45537913  G :  0.006651    pred/act E change: -0.188D-03 -0.174D-03
Maxdispl :   0.1308   ||displ|| :   0.2236   Lambda : -0.229D-03
Largest |displ|/coords:  0.1308 (   4)  0.0918 (   5)  0.0867 (   1)
................................................................................
.............................. CYCLE   29 ......................................
................................................................................
   1    -50.7265733 -0.507266E+02  0.190E-01    9.48       0.0  T
   2    -50.7265844 -0.110222E-04  0.144E-01    9.48       1.0  T
   3    -50.7265907 -0.631639E-05  0.168E-02    9.49       1.2  T
   4    -50.7265928 -0.208402E-05  0.616E-03    9.49       3.2  T
   5    -50.7265928 -0.535634E-07  0.204E-03    9.49       9.6  T
   6    -50.7265928 -0.333881E-08  0.108E-03    9.49      18.2  T
speedup  0.91
cpu  time for SCC    0.00 s
wall time for SCC    0.01 s
speedup  0.98
cpu  time for grad    0.01 s
wall time for grad    0.01 s
 E :    -50.45551904  G :  0.011012    pred/act E change: -0.154D-03 -0.140D-03
Maxdispl :   0.0979   ||displ|| :   0.2134   Lambda : -0.284D-03
Largest |displ|/coords:  0.0979 (   2)  0.0898 (   1)  0.0732 (   4)
................................................................................
.............................. CYCLE   30 ......................................
................................................................................
   1    -50.7267240 -0.507267E+02  0.132E-01    9.45       0.0  T
   2    -50.7267376 -0.135975E-04  0.986E-02    9.45       1.0  T
   3    -50.7267418 -0.420490E-05  0.186E-02    9.45       1.1  T
   4    -50.7267444 -0.255709E-05  0.487E-03    9.45       4.0  T
   5    -50.7267444 -0.424589E-07  0.165E-03    9.45      11.9  T
   6    -50.7267444 -0.268415E-08  0.837E-04    9.45      23.4  T
speedup  1.11
cpu  time for SCC    0.01 s
wall time for SCC    0.01 s
speedup  1.05
cpu  time for grad    0.01 s
wall time for grad    0.01 s
 E :    -50.45569583  G :  0.009932    pred/act E change: -0.120D-03 -0.177D-03
Maxdispl :   0.1454   ||displ|| :   0.2960   Lambda : -0.352D-03
Largest |displ|/coords:  0.1454 (   1)  0.1158 (   5)  0.1095 (   2)
................................................................................
.............................. CYCLE   31 ......................................
................................................................................
   1    -50.7271429 -0.507271E+02  0.184E-01    9.42       0.0  T
   2    -50.7271856 -0.427426E-04  0.138E-01    9.42       1.0  T
   3    -50.7271987 -0.130915E-04  0.341E-02    9.42       1.0  T
   4    -50.7272055 -0.677787E-05  0.773E-03    9.42       2.5  T
   5    -50.7272057 -0.138499E-06  0.256E-03    9.42       7.7  T
   6    -50.7272057 -0.556665E-08  0.124E-03    9.42      15.8  T
speedup  0.94
cpu  time for SCC    0.00 s
wall time for SCC    0.01 s
speedup  0.99
cpu  time for grad    0.01 s
wall time for grad    0.01 s
 E :    -50.45597606  G :  0.014519    pred/act E change: -0.148D-03 -0.280D-03
Maxdispl :   0.2457   ||displ|| :   0.4979   Lambda : -0.767D-03
Largest |displ|/coords:  0.2457 (   1)  0.1908 (   2)  0.1827 (   5)
................................................................................
.............................. CYCLE   32 ......................................
................................................................................
   1    -50.7303152 -0.507303E+02  0.279E-01    9.42       0.0  T
   2    -50.7305218 -0.206564E-03  0.205E-01    9.42       1.0  T
   3    -50.7305916 -0.698360E-04  0.729E-02    9.42       1.0  T
   4    -50.7306085 -0.168832E-04  0.151E-02    9.42       1.3  T
   5    -50.7306091 -0.562091E-06  0.495E-03    9.42       4.0  T
   6    -50.7306091 -0.275572E-07  0.224E-03    9.42       8.7  T
   7    -50.7306091 -0.891663E-08  0.640E-04    9.42      30.7  T
speedup  0.97
cpu  time for SCC    0.01 s
wall time for SCC    0.01 s
speedup  1.00
cpu  time for grad    0.01 s
wall time for grad    0.01 s
 E :    -50.45659941  G :  0.022484    pred/act E change: -0.191D-03 -0.623D-03
Maxdispl :   0.2918   ||displ|| :   0.5937   Lambda : -0.114D-02
Largest |displ|/coords:  0.2918 (   1)  0.2337 (   2)  0.2067 (   5)
................................................................................
.............................. CYCLE   33 ......................................
................................................................................
   1    -50.7317850 -0.507318E+02  0.369E-01    9.44       0.0  T
   2    -50.7321332 -0.348244E-03  0.270E-01    9.43       1.0  T
   3    -50.7322535 -0.120206E-03  0.959E-02    9.42       1.0  T
   4    -50.7322810 -0.274962E-04  0.199E-02    9.42       1.0  T
   5    -50.7322820 -0.100490E-05  0.642E-03    9.42       3.1  T
   6    -50.7322820 -0.507457E-07  0.289E-03    9.42       6.8  T
   7    -50.7322820 -0.145214E-07  0.833E-04    9.42      23.5  T
speedup  0.98
cpu  time for SCC    0.01 s
wall time for SCC    0.01 s
speedup  1.01
cpu  time for grad    0.01 s
wall time for grad    0.01 s
 E :    -50.45719593  G :  0.033084    pred/act E change: -0.479D-03 -0.597D-03
Maxdispl :   0.1295   ||displ|| :   0.4063   Lambda : -0.299D-02
Largest |displ|/coords:  0.1295 (   4)  0.1229 (  15)  0.1057 (  17)
................................................................................
.............................. CYCLE   34 ......................................
................................................................................
   1    -50.7558014 -0.507558E+02  0.346E-01    9.73       0.0  T
   2    -50.7561211 -0.319741E-03  0.252E-01    9.70       1.0  T
   3    -50.7562659 -0.144729E-03  0.923E-02    9.67       1.0  T
   4    -50.7562851 -0.192159E-04  0.278E-02    9.68       1.0  T
   5    -50.7562865 -0.140662E-05  0.759E-03    9.67       2.6  T
   6    -50.7562866 -0.717828E-07  0.401E-03    9.68       4.9  T
   7    -50.7562866 -0.207310E-07  0.121E-03    9.68      16.2  T
speedup  0.95
cpu  time for SCC    0.01 s
wall time for SCC    0.01 s
speedup  0.99
cpu  time for grad    0.01 s
wall time for grad    0.01 s
 E :    -50.45471533  G :  0.086464    pred/act E change: -0.771D-03  0.248D-02
Maxdispl :   0.1464   ||displ|| :   0.4648   Lambda : -0.170D-01
Largest |displ|/coords:  0.1464 (   4)  0.1371 (  10)  0.1247 (  34)
................................................................................
.............................. CYCLE   35 ......................................
................................................................................
   1    -50.7134527 -0.507135E+02  0.542E-01    9.23       0.0  T
   2    -50.7145794 -0.112673E-02  0.382E-01    9.32       1.0  T
   3    -50.7150294 -0.450023E-03  0.157E-01    9.35       1.0  T
   4    -50.7150795 -0.500542E-04  0.409E-02    9.35       1.0  T
   5    -50.7150834 -0.395881E-05  0.124E-02    9.35       1.6  T
   6    -50.7150837 -0.275057E-06  0.796E-03    9.35       2.5  T
   7    -50.7150838 -0.111711E-06  0.188E-03    9.34      10.4  T
   8    -50.7150838 -0.771801E-08  0.674E-04    9.34      29.1  T
speedup  1.14
cpu  time for SCC    0.01 s
wall time for SCC    0.01 s
speedup  1.01
cpu  time for grad    0.01 s
wall time for grad    0.01 s
 E :    -50.45401886  G :  0.072295    pred/act E change: -0.174D-02  0.696D-03
Maxdispl :   0.0969   ||displ|| :   0.3458   Lambda : -0.127D-01
Largest |displ|/coords:  0.0969 (   4)  0.0969 (  10)  0.0958 (  34)
................................................................................
.............................. CYCLE   36 ......................................
................................................................................
   1    -50.7442631 -0.507443E+02  0.454E-01    9.59       0.0  T
   2    -50.7448050 -0.541903E-03  0.328E-01    9.57       1.0  T
   3    -50.7450568 -0.251798E-03  0.116E-01    9.54       1.0  T
   4    -50.7450925 -0.357459E-04  0.307E-02    9.55       1.0  T
   5    -50.7450948 -0.229073E-05  0.102E-02    9.55       1.9  T
   6    -50.7450949 -0.100564E-06  0.501E-03    9.55       3.9  T
   7    -50.7450950 -0.453469E-07  0.136E-03    9.55      14.5  T
speedup  0.92
cpu  time for SCC    0.01 s
wall time for SCC    0.01 s
speedup  0.99
cpu  time for grad    0.01 s
wall time for grad    0.01 s
 E :    -50.45782735  G :  0.045604    pred/act E change: -0.103D-01 -0.381D-02
Maxdispl :   0.0474   ||displ|| :   0.1129   Lambda : -0.200D-02
Largest |displ|/coords:  0.0474 (  10)  0.0402 (  13)  0.0295 (  26)
................................................................................
.............................. CYCLE   37 ......................................
................................................................................
   1    -50.7387045 -0.507387E+02  0.150E-01    9.49       0.0  T
   2    -50.7387310 -0.265132E-04  0.110E-01    9.49       1.0  T
   3    -50.7387452 -0.142544E-04  0.284E-02    9.50       1.0  T
   4    -50.7387480 -0.271621E-05  0.632E-03    9.50       3.1  T
   5    -50.7387481 -0.101546E-06  0.228E-03    9.50       8.6  T
   6    -50.7387481 -0.593073E-08  0.135E-03    9.50      14.5  T
speedup  0.91
cpu  time for SCC    0.01 s
wall time for SCC    0.01 s
speedup  0.96
cpu  time for grad    0.01 s
wall time for grad    0.01 s
 E :    -50.45894296  G :  0.012516    pred/act E change: -0.713D-02 -0.112D-02
Maxdispl :   0.0862   ||displ|| :   0.1714   Lambda : -0.418D-03
Largest |displ|/coords:  0.0862 (   2)  0.0555 (   9)  0.0527 (   1)
................................................................................
.............................. CYCLE   38 ......................................
................................................................................
   1    -50.7387536 -0.507388E+02  0.111E-01    9.49       0.0  T
   2    -50.7387771 -0.234398E-04  0.820E-02    9.49       1.0  T
   3    -50.7387858 -0.870943E-05  0.259E-02    9.49       1.0  T
   4    -50.7387883 -0.249739E-05  0.554E-03    9.49       3.5  T
   5    -50.7387884 -0.811024E-07  0.176E-03    9.49      11.2  T
   6    -50.7387884 -0.308690E-08  0.896E-04    9.49      21.9  T
speedup  0.93
cpu  time for SCC    0.00 s
wall time for SCC    0.01 s
speedup  0.98
cpu  time for grad    0.01 s
wall time for grad    0.01 s
 E :    -50.45920943  G :  0.011731    pred/act E change: -0.101D-02 -0.266D-03
Maxdispl :   0.0714   ||displ|| :   0.1695   Lambda : -0.343D-03
Largest |displ|/coords:  0.0714 (   3)  0.0688 (   2)  0.0518 (   4)
................................................................................
.............................. CYCLE   39 ......................................
................................................................................
   1    -50.7389052 -0.507389E+02  0.795E-02    9.47       0.0  T
   2    -50.7389143 -0.915573E-05  0.585E-02    9.47       1.0  T
   3    -50.7389178 -0.345209E-05  0.174E-02    9.47       1.1  T
   4    -50.7389188 -0.103968E-05  0.392E-03    9.47       5.0  T
   5    -50.7389188 -0.325387E-07  0.136E-03    9.47      14.4  T
   6    -50.7389188 -0.259053E-08  0.688E-04    9.47      28.5  T
speedup  1.13
cpu  time for SCC    0.01 s
wall time for SCC    0.01 s
speedup  0.99
cpu  time for grad    0.01 s
wall time for grad    0.01 s
 E :    -50.45943636  G :  0.011742    pred/act E change: -0.215D-03 -0.227D-03
Maxdispl :   0.1117   ||displ|| :   0.1941   Lambda : -0.388D-03
Largest |displ|/coords:  0.1117 (   2)  0.0748 (   9)  0.0508 (  33)
................................................................................
.............................. CYCLE   40 ......................................
................................................................................
   1    -50.7372901 -0.507373E+02  0.811E-02    9.43       0.0  T
   2    -50.7372947 -0.464209E-05  0.597E-02    9.43       1.0  T
   3    -50.7372977 -0.293583E-05  0.153E-02    9.43       1.3  T
   4    -50.7372982 -0.547687E-06  0.440E-03    9.43       4.5  T
   5    -50.7372983 -0.383451E-07  0.142E-03    9.43      13.8  T
   6    -50.7372983 -0.271852E-08  0.727E-04    9.43      27.0  T
speedup  0.93
cpu  time for SCC    0.00 s
wall time for SCC    0.01 s
speedup  0.97
cpu  time for grad    0.01 s
wall time for grad    0.01 s
 E :    -50.45954720  G :  0.007677    pred/act E change: -0.177D-03 -0.111D-03
Maxdispl :   0.0544   ||displ|| :   0.0892   Lambda : -0.185D-03
Largest |displ|/coords:  0.0544 (   3)  0.0361 (   6)  0.0306 (   7)
................................................................................
.............................. CYCLE   41 ......................................
................................................................................
   1    -50.7404563 -0.507405E+02  0.704E-02    9.46       0.0  T
   2    -50.7404581 -0.181202E-05  0.528E-02    9.46       1.0  T
   3    -50.7404595 -0.138818E-05  0.747E-03    9.46       2.6  T
   4    -50.7404597 -0.248035E-06  0.181E-03    9.46      10.8  T
   5    -50.7404597 -0.353023E-08  0.931E-04    9.46      21.1  T
speedup  1.06
cpu  time for SCC    0.00 s
wall time for SCC    0.00 s
speedup  0.96
cpu  time for grad    0.01 s
wall time for grad    0.01 s
 E :    -50.45963116  G :  0.004181    pred/act E change: -0.202D-03 -0.840D-04
Maxdispl :   0.0273   ||displ|| :   0.0455   Lambda : -0.471D-04
Largest |displ|/coords:  0.0273 (   3)  0.0148 (  16)  0.0136 (   7)
................................................................................
.............................. CYCLE   42 ......................................
................................................................................
   1    -50.7395596 -0.507396E+02  0.215E-02    9.45       0.0  T
   2    -50.7395599 -0.310244E-06  0.161E-02    9.45       1.2  T
   3    -50.7395600 -0.120174E-06  0.307E-03    9.45       6.4  T
   4    -50.7395600 -0.547858E-07  0.103E-03    9.45      19.1  T
   5    -50.7395600 -0.189528E-08  0.262E-04    9.45      74.7  T
speedup  0.89
cpu  time for SCC    0.00 s
wall time for SCC    0.00 s
speedup  0.97
cpu  time for grad    0.01 s
wall time for grad    0.01 s
 E :    -50.45966396  G :  0.003678    pred/act E change: -0.933D-04 -0.328D-04
Maxdispl :   0.0634   ||displ|| :   0.1091   Lambda : -0.814D-04
Largest |displ|/coords:  0.0634 (   3)  0.0390 (   6)  0.0323 (  13)
................................................................................
.............................. CYCLE   43 ......................................
................................................................................
   1    -50.7387622 -0.507388E+02  0.547E-02    9.45       0.0  T
   2    -50.7387636 -0.140575E-05  0.412E-02    9.45       1.0  T
   3    -50.7387642 -0.581575E-06  0.666E-03    9.45       2.9  T
   4    -50.7387645 -0.280211E-06  0.200E-03    9.45       9.8  T
   5    -50.7387645 -0.667735E-08  0.562E-04    9.45      34.9  T
   6    -50.7387645 -0.348201E-09  0.303E-04    9.45      64.8  T
speedup  0.93
cpu  time for SCC    0.00 s
wall time for SCC    0.01 s
speedup  1.02
cpu  time for grad    0.01 s
wall time for grad    0.01 s
 E :    -50.45971879  G :  0.003650    pred/act E change: -0.236D-04 -0.548D-04
Maxdispl :   0.1360   ||displ|| :   0.2044   Lambda : -0.839D-04
Largest |displ|/coords:  0.1360 (   3)  0.0820 (   2)  0.0611 (   6)
................................................................................
.............................. CYCLE   44 ......................................
................................................................................
   1    -50.7373722 -0.507374E+02  0.949E-02    9.43       0.0  T
   2    -50.7373741 -0.188410E-05  0.715E-02    9.44       1.0  T
   3    -50.7373757 -0.156069E-05  0.796E-03    9.44       2.5  T
   4    -50.7373759 -0.262584E-06  0.280E-03    9.44       7.0  T
   5    -50.7373760 -0.992922E-08  0.858E-04    9.44      22.9  T
   6    -50.7373760 -0.825551E-09  0.447E-04    9.44      43.9  T
speedup  1.13
cpu  time for SCC    0.01 s
wall time for SCC    0.01 s
speedup  1.03
cpu  time for grad    0.01 s
wall time for grad    0.01 s
 E :    -50.45977369  G :  0.004286    pred/act E change: -0.412D-04 -0.549D-04
Maxdispl :   0.1259   ||displ|| :   0.1953   Lambda : -0.700D-04
Largest |displ|/coords:  0.1259 (   3)  0.0674 (   6)  0.0652 (   2)
................................................................................
.............................. CYCLE   45 ......................................
................................................................................
   1    -50.7373070 -0.507373E+02  0.898E-02    9.43       0.0  T
   2    -50.7373083 -0.130946E-05  0.674E-02    9.43       1.0  T
   3    -50.7373096 -0.129928E-05  0.721E-03    9.43       2.7  T
   4    -50.7373097 -0.138637E-06  0.236E-03    9.43       8.3  T
   5    -50.7373098 -0.639990E-08  0.723E-04    9.43      27.1  T
speedup  0.87
cpu  time for SCC    0.00 s
wall time for SCC    0.00 s
speedup  0.97
cpu  time for grad    0.01 s
wall time for grad    0.01 s
 E :    -50.45982732  G :  0.004788    pred/act E change: -0.437D-04 -0.536D-04
Maxdispl :   0.1871   ||displ|| :   0.2906   Lambda : -0.112D-03
Largest |displ|/coords:  0.1871 (   3)  0.1074 (   6)  0.1027 (   2)
................................................................................
.............................. CYCLE   46 ......................................
................................................................................
   1    -50.7371017 -0.507371E+02  0.141E-01    9.43       0.0  T
   2    -50.7371050 -0.332291E-05  0.106E-01    9.43       1.0  T
   3    -50.7371083 -0.335162E-05  0.114E-02    9.43       1.7  T
   4    -50.7371087 -0.358555E-06  0.366E-03    9.43       5.4  T
   5    -50.7371087 -0.153455E-07  0.131E-03    9.43      15.0  T
   6    -50.7371087 -0.228144E-08  0.574E-04    9.43      34.2  T
speedup  0.93
cpu  time for SCC    0.00 s
wall time for SCC    0.01 s
speedup  0.98
cpu  time for grad    0.01 s
wall time for grad    0.01 s
 E :    -50.45991106  G :  0.006394    pred/act E change: -0.363D-04 -0.837D-04
Maxdispl :   0.1718   ||displ|| :   0.2729   Lambda : -0.136D-03
Largest |displ|/coords:  0.1718 (   3)  0.1070 (   6)  0.0860 (   2)
................................................................................
.............................. CYCLE   47 ......................................
................................................................................
   1    -50.7379771 -0.507380E+02  0.138E-01    9.44       0.0  T
   2    -50.7379810 -0.395093E-05  0.103E-01    9.44       1.0  T
   3    -50.7379842 -0.316633E-05  0.122E-02    9.44       1.6  T
   4    -50.7379848 -0.578498E-06  0.374E-03    9.44       5.2  T
   5    -50.7379848 -0.172651E-07  0.143E-03    9.44      13.7  T
   6    -50.7379848 -0.319294E-08  0.665E-04    9.44      29.5  T
speedup  1.09
cpu  time for SCC    0.01 s
wall time for SCC    0.01 s
speedup  1.04
cpu  time for grad    0.01 s
wall time for grad    0.01 s
 E :    -50.46000607  G :  0.007059    pred/act E change: -0.608D-04 -0.950D-04
Maxdispl :   0.1223   ||displ|| :   0.2082   Lambda : -0.126D-03
Largest |displ|/coords:  0.1223 (   3)  0.0851 (   6)  0.0752 (   2)
................................................................................
.............................. CYCLE   48 ......................................
................................................................................
   1    -50.7387749 -0.507388E+02  0.112E-01    9.45       0.0  T
   2    -50.7387780 -0.314599E-05  0.844E-02    9.45       1.0  T
   3    -50.7387806 -0.254725E-05  0.107E-02    9.45       1.8  T
   4    -50.7387810 -0.450467E-06  0.311E-03    9.45       6.3  T
   5    -50.7387810 -0.164032E-07  0.126E-03    9.45      15.5  T
   6    -50.7387810 -0.212214E-08  0.588E-04    9.45      33.3  T
speedup  0.94
cpu  time for SCC    0.00 s
wall time for SCC    0.01 s
speedup  0.98
cpu  time for grad    0.01 s
wall time for grad    0.01 s
 E :    -50.46009181  G :  0.004896    pred/act E change: -0.732D-04 -0.857D-04
Maxdispl :   0.1735   ||displ|| :   0.2733   Lambda : -0.112D-03
Largest |displ|/coords:  0.1735 (   3)  0.1050 (   6)  0.0942 (   2)
................................................................................
.............................. CYCLE   49 ......................................
................................................................................
   1    -50.7383175 -0.507383E+02  0.135E-01    9.44       0.0  T
   2    -50.7383205 -0.306072E-05  0.102E-01    9.44       1.0  T
   3    -50.7383236 -0.300628E-05  0.108E-02    9.44       1.8  T
   4    -50.7383239 -0.323661E-06  0.322E-03    9.44       6.1  T
   5    -50.7383239 -0.159996E-07  0.133E-03    9.44      14.7  T
   6    -50.7383239 -0.187184E-08  0.659E-04    9.44      29.8  T
speedup  0.94
cpu  time for SCC    0.00 s
wall time for SCC    0.01 s
speedup  0.99
cpu  time for grad    0.01 s
wall time for grad    0.01 s
 E :    -50.46015808  G :  0.006022    pred/act E change: -0.656D-04 -0.663D-04
Maxdispl :   0.0449   ||displ|| :   0.1078   Lambda : -0.108D-03
Largest |displ|/coords:  0.0449 (  14)  0.0348 (   2)  0.0344 (   4)
................................................................................
.............................. CYCLE   50 ......................................
................................................................................
   1    -50.7422613 -0.507423E+02  0.590E-02    9.47       0.0  T
   2    -50.7422634 -0.208144E-05  0.437E-02    9.47       1.0  T
   3    -50.7422646 -0.126902E-05  0.960E-03    9.47       2.0  T
   4    -50.7422649 -0.241357E-06  0.247E-03    9.47       7.9  T
   5    -50.7422649 -0.178479E-07  0.901E-04    9.47      21.8  T
speedup  1.11
cpu  time for SCC    0.01 s
wall time for SCC    0.00 s
speedup  1.06
cpu  time for grad    0.01 s
wall time for grad    0.01 s
 E :    -50.46017269  G :  0.006290    pred/act E change: -0.604D-04 -0.146D-04
Maxdispl :   0.1744   ||displ|| :   0.2819   Lambda : -0.133D-03
Largest |displ|/coords:  0.1744 (   3)  0.1199 (   2)  0.1057 (   6)
................................................................................
.............................. CYCLE   51 ......................................
................................................................................
   1    -50.7385458 -0.507385E+02  0.135E-01    9.42       0.0  T
   2    -50.7385498 -0.398107E-05  0.102E-01    9.42       1.0  T
   3    -50.7385532 -0.335155E-05  0.126E-02    9.43       1.6  T
   4    -50.7385537 -0.506560E-06  0.394E-03    9.43       5.0  T
   5    -50.7385537 -0.240418E-07  0.126E-03    9.43      15.6  T
   6    -50.7385537 -0.116122E-08  0.665E-04    9.43      29.5  T
speedup  0.93
cpu  time for SCC    0.00 s
wall time for SCC    0.01 s
speedup  0.98
cpu  time for grad    0.01 s
wall time for grad    0.01 s
 E :    -50.46023087  G :  0.005721    pred/act E change: -0.547D-04 -0.582D-04
Maxdispl :   0.0241   ||displ|| :   0.0559   Lambda : -0.577D-04
Largest |displ|/coords:  0.0241 (  16)  0.0182 (   4)  0.0180 (   9)
................................................................................
.............................. CYCLE   52 ......................................
................................................................................
   1    -50.7396077 -0.507396E+02  0.409E-02    9.45       0.0  T
   2    -50.7396082 -0.503966E-06  0.308E-02    9.45       1.0  T
   3    -50.7396086 -0.447529E-06  0.402E-03    9.45       4.9  T
   4    -50.7396087 -0.569573E-07  0.124E-03    9.45      15.8  T
   5    -50.7396087 -0.207254E-08  0.459E-04    9.45      42.8  T
speedup  0.89
cpu  time for SCC    0.00 s
wall time for SCC    0.00 s
speedup  0.97
cpu  time for grad    0.01 s
wall time for grad    0.01 s
 E :    -50.46026047  G :  0.003534    pred/act E change: -0.719D-04 -0.296D-04
Maxdispl :   0.0478   ||displ|| :   0.0998   Lambda : -0.399D-04
Largest |displ|/coords:  0.0478 (   3)  0.0414 (   6)  0.0389 (   2)

generating ANC from model Hessian ...
 Shifting diagonal of input Hessian by   5.148074174106130E-003
 Lowest  eigenvalues of input Hessian
    0.005000   -0.000000   -0.000000   -0.000000    0.000000    0.000000
    0.000000    0.005411    0.005896    0.006051    0.006866    0.007086
    0.007407    0.007890    0.008061    0.009586    0.010340    0.011053
 Highest eigenvalues
    1.388186    1.402264    1.436153    2.830898    3.301556    3.591814
 
cpu  time for ANC gen    0.01 s
wall time for ANC gen    0.01 s
................................................................................
.............................. CYCLE   53 ......................................
................................................................................
   1    -50.7402186 -0.507402E+02  0.432E-02    9.46       0.0  T
   2    -50.7402191 -0.471034E-06  0.325E-02    9.46       1.0  T
   3    -50.7402194 -0.321886E-06  0.392E-03    9.46       5.0  T
   4    -50.7402195 -0.759480E-07  0.148E-03    9.46      13.3  T
   5    -50.7402195 -0.376699E-08  0.427E-04    9.46      45.9  T
   6    -50.7402195 -0.206633E-09  0.246E-04    9.46      79.7  T
speedup  0.89
cpu  time for SCC    0.00 s
wall time for SCC    0.01 s
speedup  1.01
cpu  time for grad    0.01 s
wall time for grad    0.01 s
 E :    -50.46028667  G :  0.002729    pred/act E change:  0.000D+00 -0.262D-04
Maxdispl :   0.0299   ||displ|| :   0.0474   Lambda : -0.316D-04
Largest |displ|/coords:  0.0299 (   4)  0.0160 (   8)  0.0146 (  11)
................................................................................
.............................. CYCLE   54 ......................................
................................................................................
   1    -50.7405684 -0.507406E+02  0.330E-02    9.46       0.0  T
   2    -50.7405687 -0.266031E-06  0.249E-02    9.46       1.0  T
   3    -50.7405689 -0.182802E-06  0.286E-03    9.46       6.8  T
   4    -50.7405689 -0.437178E-07  0.849E-04    9.46      23.1  T
   5    -50.7405689 -0.107832E-08  0.336E-04    9.46      58.4  T
speedup  0.87
cpu  time for SCC    0.00 s
wall time for SCC    0.00 s
speedup  0.93
cpu  time for grad    0.01 s
wall time for grad    0.01 s
 E :    -50.46030941  G :  0.001300    pred/act E change:  0.000D+00 -0.227D-04
Maxdispl :   0.0619   ||displ|| :   0.0901   Lambda : -0.319D-04
Largest |displ|/coords:  0.0619 (   4)  0.0333 (   8)  0.0284 (   2)
................................................................................
.............................. CYCLE   55 ......................................
................................................................................
   1    -50.7407883 -0.507408E+02  0.596E-02    9.47       0.0  T
   2    -50.7407889 -0.622943E-06  0.449E-02    9.47       1.0  T
   3    -50.7407894 -0.506021E-06  0.451E-03    9.47       4.3  T
   4    -50.7407895 -0.829278E-07  0.150E-03    9.47      13.1  T
   5    -50.7407895 -0.290405E-08  0.542E-04    9.47      36.2  T
   6    -50.7407895 -0.320284E-09  0.281E-04    9.47      69.8  T
speedup  1.07
cpu  time for SCC    0.01 s
wall time for SCC    0.01 s
speedup  0.92
cpu  time for grad    0.01 s
wall time for grad    0.01 s
 E :    -50.46033216  G :  0.001616    pred/act E change: -0.159D-04 -0.227D-04
Maxdispl :   0.0933   ||displ|| :   0.1306   Lambda : -0.295D-04
Largest |displ|/coords:  0.0933 (   4)  0.0424 (   2)  0.0416 (   8)
................................................................................
.............................. CYCLE   56 ......................................
................................................................................
   1    -50.7406147 -0.507406E+02  0.760E-02    9.46       0.0  T
   2    -50.7406157 -0.963726E-06  0.572E-02    9.46       1.0  T
   3    -50.7406165 -0.811923E-06  0.583E-03    9.47       3.4  T
   4    -50.7406166 -0.117998E-06  0.229E-03    9.46       8.5  T
   5    -50.7406166 -0.686155E-08  0.654E-04    9.46      30.0  T
   6    -50.7406166 -0.445944E-09  0.373E-04    9.46      52.6  T
speedup  0.94
cpu  time for SCC    0.00 s
wall time for SCC    0.01 s
speedup  1.02
cpu  time for grad    0.01 s
wall time for grad    0.01 s
 E :    -50.46035432  G :  0.002495    pred/act E change: -0.161D-04 -0.222D-04
Maxdispl :   0.1568   ||displ|| :   0.2101   Lambda : -0.399D-04
Largest |displ|/coords:  0.1568 (   4)  0.0726 (   2)  0.0594 (   8)
................................................................................
.............................. CYCLE   57 ......................................
................................................................................
   1    -50.7400663 -0.507401E+02  0.103E-01    9.46       0.0  T
   2    -50.7400682 -0.193838E-05  0.772E-02    9.46       1.0  T
   3    -50.7400697 -0.146984E-05  0.854E-03    9.46       2.3  T
   4    -50.7400699 -0.265802E-06  0.345E-03    9.46       5.7  T
   5    -50.7400700 -0.155121E-07  0.908E-04    9.46      21.6  T
   6    -50.7400700 -0.893685E-09  0.538E-04    9.46      36.4  T
speedup  1.13
cpu  time for SCC    0.01 s
wall time for SCC    0.01 s
speedup  1.02
cpu  time for grad    0.01 s
wall time for grad    0.01 s
 E :    -50.46038299  G :  0.003141    pred/act E change: -0.150D-04 -0.287D-04
Maxdispl :   0.1748   ||displ|| :   0.2357   Lambda : -0.468D-04
Largest |displ|/coords:  0.1748 (   4)  0.0886 (   2)  0.0662 (   3)
................................................................................
.............................. CYCLE   58 ......................................
................................................................................
   1    -50.7397094 -0.507397E+02  0.923E-02    9.45       0.0  T
   2    -50.7397115 -0.203396E-05  0.693E-02    9.45       1.0  T
   3    -50.7397128 -0.129618E-05  0.923E-03    9.45       2.1  T
   4    -50.7397131 -0.317735E-06  0.349E-03    9.45       5.6  T
   5    -50.7397131 -0.151132E-07  0.858E-04    9.45      22.9  T
   6    -50.7397131 -0.869555E-09  0.524E-04    9.45      37.5  T
speedup  0.94
cpu  time for SCC    0.00 s
wall time for SCC    0.01 s
speedup  0.96
cpu  time for grad    0.01 s
wall time for grad    0.01 s
 E :    -50.46041805  G :  0.003600    pred/act E change: -0.208D-04 -0.351D-04
Maxdispl :   0.2115   ||displ|| :   0.2819   Lambda : -0.715D-04
Largest |displ|/coords:  0.2115 (   4)  0.1098 (   2)  0.0804 (   3)
................................................................................
.............................. CYCLE   59 ......................................
................................................................................
   1    -50.7399322 -0.507399E+02  0.898E-02    9.44       0.0  T
   2    -50.7399346 -0.238453E-05  0.674E-02    9.44       1.0  T
   3    -50.7399359 -0.126969E-05  0.103E-02    9.44       1.9  T
   4    -50.7399363 -0.403526E-06  0.366E-03    9.44       5.4  T
   5    -50.7399363 -0.170279E-07  0.901E-04    9.44      21.8  T
   6    -50.7399363 -0.102018E-08  0.554E-04    9.44      35.4  T
speedup  0.93
cpu  time for SCC    0.00 s
wall time for SCC    0.01 s
speedup  1.01
cpu  time for grad    0.01 s
wall time for grad    0.01 s
 E :    -50.46047213  G :  0.004708    pred/act E change: -0.247D-04 -0.541D-04
Maxdispl :   0.2764   ||displ|| :   0.3709   Lambda : -0.959D-04
Largest |displ|/coords:  0.2764 (   4)  0.1415 (   2)  0.1091 (   3)
................................................................................
.............................. CYCLE   60 ......................................
................................................................................
   1    -50.7394250 -0.507394E+02  0.118E-01    9.42       0.0  T
   2    -50.7394285 -0.357845E-05  0.881E-02    9.42       1.0  T
   3    -50.7394307 -0.213182E-05  0.124E-02    9.42       1.6  T
   4    -50.7394313 -0.580630E-06  0.456E-03    9.42       4.3  T
   5    -50.7394313 -0.275324E-07  0.118E-03    9.42      16.6  T
   6    -50.7394313 -0.173814E-08  0.716E-04    9.42      27.4  T
speedup  1.13
cpu  time for SCC    0.01 s
wall time for SCC    0.01 s
speedup  1.06
cpu  time for grad    0.01 s
wall time for grad    0.01 s
 E :    -50.46054795  G :  0.006594    pred/act E change: -0.386D-04 -0.758D-04
Maxdispl :   0.2645   ||displ|| :   0.3914   Lambda : -0.218D-03
Largest |displ|/coords:  0.2645 (   4)  0.1366 (   2)  0.1299 (   3)
................................................................................
.............................. CYCLE   61 ......................................
................................................................................
   1    -50.7429168 -0.507429E+02  0.130E-01    9.44       0.0  T
   2    -50.7429209 -0.404415E-05  0.972E-02    9.44       1.0  T
   3    -50.7429235 -0.263310E-05  0.121E-02    9.44       1.6  T
   4    -50.7429241 -0.557666E-06  0.506E-03    9.44       3.9  T
   5    -50.7429241 -0.418262E-07  0.137E-03    9.44      14.3  T
   6    -50.7429241 -0.199586E-08  0.812E-04    9.44      24.2  T
speedup  1.09
cpu  time for SCC    0.01 s
wall time for SCC    0.01 s
speedup  0.98
cpu  time for grad    0.01 s
wall time for grad    0.01 s
 E :    -50.46059862  G :  0.010331    pred/act E change: -0.546D-04 -0.507D-04
Maxdispl :   0.3516   ||displ|| :   0.4597   Lambda : -0.278D-03
Largest |displ|/coords:  0.3516 (   4)  0.1582 (   2)  0.1239 (   3)
................................................................................
.............................. CYCLE   62 ......................................
................................................................................
   1    -50.7382372 -0.507382E+02  0.160E-01    9.39       0.0  T
   2    -50.7382423 -0.514260E-05  0.119E-01    9.39       1.0  T
   3    -50.7382457 -0.334114E-05  0.139E-02    9.40       1.4  T
   4    -50.7382464 -0.751192E-06  0.531E-03    9.39       3.7  T
   5    -50.7382465 -0.431953E-07  0.155E-03    9.39      12.7  T
   6    -50.7382465 -0.296355E-08  0.895E-04    9.39      21.9  T
speedup  0.93
cpu  time for SCC    0.00 s
wall time for SCC    0.01 s
speedup  0.98
cpu  time for grad    0.01 s
wall time for grad    0.01 s
 E :    -50.46070276  G :  0.011578    pred/act E change: -0.126D-03 -0.104D-03
Maxdispl :   0.1926   ||displ|| :   0.2743   Lambda : -0.237D-03
Largest |displ|/coords:  0.1926 (   4)  0.1038 (   2)  0.0751 (   3)
................................................................................
.............................. CYCLE   63 ......................................
................................................................................
   1    -50.7398899 -0.507399E+02  0.789E-02    9.44       0.0  T
   2    -50.7398937 -0.375584E-05  0.589E-02    9.44       1.0  T
   3    -50.7398951 -0.140126E-05  0.137E-02    9.44       1.4  T
   4    -50.7398957 -0.572582E-06  0.406E-03    9.44       4.8  T
   5    -50.7398957 -0.244429E-07  0.101E-03    9.44      19.3  T
   6    -50.7398957 -0.167258E-08  0.582E-04    9.44      33.7  T
speedup  1.09
cpu  time for SCC    0.01 s
wall time for SCC    0.01 s
speedup  1.05
cpu  time for grad    0.01 s
wall time for grad    0.01 s
 E :    -50.46079858  G :  0.006024    pred/act E change: -0.168D-03 -0.958D-04
Maxdispl :   0.1962   ||displ|| :   0.2744   Lambda : -0.140D-03
Largest |displ|/coords:  0.1962 (   4)  0.1036 (   2)  0.0989 (   3)
................................................................................
.............................. CYCLE   64 ......................................
................................................................................
   1    -50.7408621 -0.507409E+02  0.903E-02    9.45       0.0  T
   2    -50.7408642 -0.206013E-05  0.677E-02    9.45       1.0  T
   3    -50.7408656 -0.140057E-05  0.867E-03    9.45       2.3  T
   4    -50.7408659 -0.304753E-06  0.312E-03    9.45       6.3  T
   5    -50.7408659 -0.163325E-07  0.958E-04    9.45      20.5  T
   6    -50.7408659 -0.132619E-08  0.521E-04    9.45      37.7  T
speedup  1.11
cpu  time for SCC    0.01 s
wall time for SCC    0.01 s
speedup  0.88
cpu  time for grad    0.01 s
wall time for grad    0.01 s
 E :    -50.46091598  G :  0.004253    pred/act E change: -0.127D-03 -0.117D-03
Maxdispl :   0.4483   ||displ|| :   0.6308   Lambda : -0.310D-03
Largest |displ|/coords:  0.4483 (   4)  0.2201 (   2)  0.2172 (   3)
................................................................................
.............................. CYCLE   65 ......................................
[...]
................................................................................
.............................. CYCLE  159 ......................................
................................................................................
   1    -50.7541133 -0.507541E+02  0.346E-02    9.35       0.0  T
   2    -50.7541136 -0.326357E-06  0.261E-02    9.35       1.0  T
   3    -50.7541139 -0.249503E-06  0.374E-03    9.35       5.2  T
   4    -50.7541139 -0.496925E-07  0.113E-03    9.35      17.3  T
   5    -50.7541139 -0.176690E-08  0.349E-04    9.35      56.1  T
   6    -50.7541139 -0.157357E-09  0.198E-04    9.35      98.9  T
speedup  0.93
cpu  time for SCC    0.00 s
wall time for SCC    0.01 s
speedup  0.99
cpu  time for grad    0.01 s
wall time for grad    0.01 s
 E :    -50.46952918  G :  0.001343    pred/act E change: -0.140D-04 -0.854D-05
Maxdispl :   0.0128   ||displ|| :   0.0319   Lambda : -0.868D-05
Largest |displ|/coords:  0.0128 (   3)  0.0102 (   5)  0.0089 (  11)
................................................................................
.............................. CYCLE  160 ......................................
................................................................................
   1    -50.7542148 -0.507542E+02  0.136E-02    9.36       0.0  T
   2    -50.7542149 -0.935868E-07  0.102E-02    9.36       1.9  T
   3    -50.7542149 -0.547991E-07  0.201E-03    9.36       9.8  T
   4    -50.7542149 -0.144523E-07  0.572E-04    9.36      34.3  T
   5    -50.7542149 -0.599371E-09  0.162E-04    9.36     121.0  T
speedup  0.89
cpu  time for SCC    0.00 s
wall time for SCC    0.00 s
speedup  0.98
cpu  time for grad    0.01 s
wall time for grad    0.01 s
 E :    -50.46953455  G :  0.000872    pred/act E change: -0.732D-05 -0.537D-05
Maxdispl :   0.0128   ||displ|| :   0.0305   Lambda : -0.479D-05
Largest |displ|/coords:  0.0128 (   4)  0.0121 (  10)  0.0103 (  11)
................................................................................
.............................. CYCLE  161 ......................................
................................................................................
   1    -50.7542364 -0.507542E+02  0.148E-02    9.36       0.0  T
   2    -50.7542364 -0.702862E-07  0.112E-02    9.36       1.8  T
   3    -50.7542365 -0.574515E-07  0.182E-03    9.36      10.8  T
   4    -50.7542365 -0.921891E-08  0.571E-04    9.36      34.3  T
   5    -50.7542365 -0.436948E-09  0.149E-04    9.36     131.7  T
speedup  0.89
cpu  time for SCC    0.00 s
wall time for SCC    0.00 s
speedup  0.98
cpu  time for grad    0.01 s
wall time for grad    0.01 s
 E :    -50.46953784  G :  0.000678    pred/act E change: -0.434D-05 -0.328D-05
Maxdispl :   0.0165   ||displ|| :   0.0332   Lambda : -0.378D-05
Largest |displ|/coords:  0.0165 (   3)  0.0127 (  14)  0.0121 (  10)
................................................................................
.............................. CYCLE  162 ......................................
................................................................................
   1    -50.7543449 -0.507543E+02  0.153E-02    9.36       0.0  T
   2    -50.7543449 -0.582488E-07  0.115E-02    9.36       1.7  T
   3    -50.7543450 -0.596530E-07  0.177E-03    9.36      11.1  T
   4    -50.7543450 -0.546237E-08  0.502E-04    9.36      39.1  T
   5    -50.7543450 -0.454527E-09  0.138E-04    9.36     141.9  T
speedup  0.91
cpu  time for SCC    0.00 s
wall time for SCC    0.00 s
speedup  0.97
cpu  time for grad    0.01 s
wall time for grad    0.01 s
 E :    -50.46954016  G :  0.000574    pred/act E change: -0.240D-05 -0.232D-05
Maxdispl :   0.0056   ||displ|| :   0.0134   Lambda : -0.122D-05
Largest |displ|/coords:  0.0056 (   2)  0.0045 (   9)  0.0040 (  14)
................................................................................
.............................. CYCLE  163 ......................................
................................................................................
   1    -50.7542790 -0.507543E+02  0.669E-03    9.36       0.0  T
   2    -50.7542790 -0.109675E-07  0.498E-03    9.36       3.9  T
   3    -50.7542790 -0.951457E-08  0.767E-04    9.36      25.6  T
   4    -50.7542790 -0.990674E-09  0.164E-04    9.36     119.4  T
speedup  1.11
cpu  time for SCC    0.00 s
wall time for SCC    0.00 s
speedup  0.98
cpu  time for grad    0.01 s
wall time for grad    0.01 s
 E :    -50.46954092  G :  0.000459    pred/act E change: -0.189D-05 -0.763D-06
Maxdispl :   0.0056   ||displ|| :   0.0095   Lambda : -0.566D-06
Largest |displ|/coords:  0.0056 (   1)  0.0036 (   2)  0.0034 (   4)
................................................................................
.............................. CYCLE  164 ......................................
................................................................................
   1    -50.7542986 -0.507543E+02  0.401E-03    9.36       0.0  T
   2    -50.7542986 -0.829377E-08  0.293E-03    9.36       6.7  T
   3    -50.7542986 -0.359830E-08  0.607E-04    9.36      32.3  T
   4    -50.7542986 -0.102609E-08  0.135E-04    9.36     144.8  T
speedup  1.08
cpu  time for SCC    0.00 s
wall time for SCC    0.00 s
speedup  1.05
cpu  time for grad    0.01 s
wall time for grad    0.01 s
 E :    -50.46954126  G :  0.000264    pred/act E change: -0.610D-06 -0.340D-06
Maxdispl :   0.0036   ||displ|| :   0.0063   Lambda : -0.263D-06
Largest |displ|/coords:  0.0036 (   1)  0.0030 (   3)  0.0021 (   7)
................................................................................
.............................. CYCLE  165 ......................................
................................................................................
   1    -50.7542515 -0.507543E+02  0.326E-03    9.36       0.0  T
   2    -50.7542515 -0.307874E-08  0.246E-03    9.36       8.0  T
   3    -50.7542515 -0.236466E-08  0.346E-04    9.36      56.7  T
   4    -50.7542515 -0.425075E-09  0.113E-04    9.36     173.0  T
speedup  0.81
cpu  time for SCC    0.00 s
wall time for SCC    0.00 s
speedup  0.97
cpu  time for grad    0.01 s
wall time for grad    0.01 s
 E :    -50.46954143  G :  0.000204    pred/act E change: -0.283D-06 -0.167D-06
Maxdispl :   0.0044   ||displ|| :   0.0068   Lambda : -0.199D-06
Largest |displ|/coords:  0.0044 (   1)  0.0030 (   3)  0.0016 (   2)
................................................................................
.............................. CYCLE  166 ......................................
................................................................................
   1    -50.7542493 -0.507542E+02  0.300E-03    9.36       0.0  T
   2    -50.7542493 -0.260621E-08  0.226E-03    9.36       8.7  T
   3    -50.7542493 -0.166316E-08  0.323E-04    9.36      60.7  T
   4    -50.7542493 -0.392710E-09  0.132E-04    9.36     148.1  T
speedup  1.08
cpu  time for SCC    0.00 s
wall time for SCC    0.00 s
speedup  1.04
cpu  time for grad    0.01 s
wall time for grad    0.01 s
 E :    -50.46954157  G :  0.000182    pred/act E change: -0.132D-06 -0.145D-06
Maxdispl :   0.0045   ||displ|| :   0.0073   Lambda : -0.164D-06
Largest |displ|/coords:  0.0045 (   1)  0.0028 (   3)  0.0022 (   2)
................................................................................
.............................. CYCLE  167 ......................................
................................................................................
   1    -50.7542555 -0.507543E+02  0.354E-03    9.36       0.0  T
   2    -50.7542555 -0.243030E-08  0.267E-03    9.36       7.4  T
   3    -50.7542555 -0.251842E-08  0.309E-04    9.36      63.6  T
   4    -50.7542555 -0.204921E-09  0.138E-04    9.36     141.9  T
speedup  1.11
cpu  time for SCC    0.00 s
wall time for SCC    0.00 s
speedup  1.06
cpu  time for grad    0.01 s
wall time for grad    0.01 s
 E :    -50.46954169  G :  0.000165    pred/act E change: -0.998D-07 -0.114D-06
Maxdispl :   0.0039   ||displ|| :   0.0061   Lambda : -0.112D-06
Largest |displ|/coords:  0.0039 (   1)  0.0018 (  12)  0.0017 (  10)
................................................................................
.............................. CYCLE  168 ......................................
................................................................................
   1    -50.7542631 -0.507543E+02  0.331E-03    9.37       0.0  T
   2    -50.7542631 -0.169565E-08  0.249E-03    9.37       7.9  T
   3    -50.7542631 -0.204387E-08  0.242E-04    9.37      81.0  T
   4    -50.7542631 -0.100300E-09  0.968E-05    9.37     202.7  T
speedup  0.83
cpu  time for SCC    0.00 s
wall time for SCC    0.00 s
speedup  0.98
cpu  time for grad    0.01 s
wall time for grad    0.01 s
 E :    -50.46954177  G :  0.000145    pred/act E change: -0.819D-07 -0.807D-07
Maxdispl :   0.0034   ||displ|| :   0.0055   Lambda : -0.870D-07
Largest |displ|/coords:  0.0034 (   1)  0.0020 (  12)  0.0017 (   6)

   *** GEOMETRY OPTIMIZATION CONVERGED AFTER 168 ITERATIONS ***

------------------------------------------------------------------------
 total energy gain (kcal):     -0.9214
------------------------------------------------------------------------
================
 final structure:
================
$coord
       -1.80724529420870       -1.52581693559668       -1.85748924370668      S 
       -2.35886357395840       -4.03991977548617       -0.41823305964107      O 
       -2.82766970933496        0.49649056590789       -0.22331192367531      O 
        0.94230626259748       -1.27963543944914       -2.05884080100531      O 
       -3.02990673493434       -1.56146591576045       -4.28169863605431      O 
       -2.89034595084972       -1.15699454283281        4.44113746719963      O 
       -3.42847049918945       -2.88132805542178        4.26999415710666      H 
       -3.07043248488085       -0.42224723409159        2.74217301631574      H 
        3.46559115657938        2.15864641354525        0.57631735998384      O 
        3.17542302045522        1.55864140775172        2.28394187183820      H 
        2.84289731155719        0.77973806164577       -0.49397398516500      H 
        2.03918560915356       -0.57040994623082        4.88247005898448      O 
        2.53329569291327       -0.54896969712860        6.62402073690572      H 
        0.16883335945703       -0.67022650883520        4.85934901938570      H 
       -0.18524819316434        2.10860840693879       -6.09331643473764      O 
       -1.43905746474931        0.79266914308507       -5.68789894325969      H 
       -0.15290063516073        3.88150149190475       -3.56757890993182      H 
        1.39051882997629        1.21005004878394       -6.18157090105588      H 
        2.11152279021786       -4.56778915050922        1.52875154604551      O 
        2.52525121002113       -3.62858806294562        0.00866863418963      H 
        2.31453260442463       -3.35772405511375        2.90330119314027      H 
       -0.75327412423114       -4.50934927991897        0.44973060872903      H 
       -0.34324236002519        4.42090149548755       -1.65234969882692      N 
        1.36186403876164        4.02309941386146       -0.68532358798663      H 
       -1.64010813142431        3.06282242303908       -0.92433627882653      H 
       -0.94445674894248        6.22729574626777       -1.44393324703299      H 
$end
 
 Bond Distances (Angstroems)
 ---------------------------
S1-O2=1.5605         S1-O3=1.4781         S1-O4=1.4647         S1-O5=1.4369         O2-S1=1.5605         O2-H22=0.9973        
O3-S1=1.4781         O4-S1=1.4647         O5-S1=1.4369         O6-H7=0.9602         O6-H8=0.9842         H7-O6=0.9602         
H8-O6=0.9842         O9-H10=0.9700        O9-H11=0.9807        H10-O9=0.9700        H11-O9=0.9807        O12-H13=0.9580       
O12-H14=0.9912       H13-O12=0.9580       H14-O12=0.9912       O15-H16=0.9855       O15-H18=0.9610       H16-O15=0.9855       
H17-N23=1.0577       H18-O15=0.9610       O19-H20=0.9706       O19-H21=0.9750       H20-O19=0.9706       H21-O19=0.9750       
H22-O2=0.9973        N23-H17=1.0577       N23-H24=1.0585       N23-H25=1.0658       N23-H26=1.0135       H24-N23=1.0585       
H25-N23=1.0658       H26-N23=1.0135       
 N  H  Rav=1.0489 sigma=0.0207  Rmin=1.0135  Rmax=1.0658     4
 O  H  Rav=0.9758 sigma=0.0125  Rmin=0.9580  Rmax=0.9973    11
 S  O  Rav=1.4850 sigma=0.0460  Rmin=1.4369  Rmax=1.5605     4
 
 selected bond angles (degree)
 --------------------
O3-S1-O2=105.27                O4-S1-O2=107.29                O4-S1-O3=109.94                O5-S1-O2=109.90                
O5-S1-O3=111.55                O5-S1-O4=112.55                H22-O2-S1=106.13               H8-O6-H7=105.10                
H11-O9-H10=103.96              
 
 selected dihedral angles (degree)
 ---------------------------------
H22-O2-S1-O3=260.75           H22-O2-S1-O4= 17.83           H22-O2-S1-O5=140.50           
 
 CMA Distance (Angstroems)
 ---------------------------
R(CMA):  2.0839

========================================================================
 FINAL SINGLEPOINT CALCULATION ON OPTIMIZED GEOMETRY
========================================================================

 Ncao       : 65
 Nao        : 64
 Nshell     : 38
 Nel        : 80
 T(el)      :   300.0
 intcut     :    25.0
 scfconv/Eh :  0.100E-05
   qconv/e  :  0.100E-03
 intneglect :  0.100E-07
 broydamp   :      0.250
 iter      E             dE          RMSdq      gap      omega  full diag
   1    -50.7542631 -0.507543E+02  0.407E-05    9.37       0.0  T
   2    -50.7542631 -0.618172E-12  0.261E-05    9.37     752.4  T
   3    -50.7542631 -0.440536E-12  0.435E-06    9.37    4504.9  T
speedup  1.11
cpu  time for SCC    0.00 s
wall time for SCC    0.00 s

   *** convergence criteria satisfied after 3 iterations ***

          eigenvalues
 #    :          28         29         30         31         32         33         34         35
 occ. :        2.000      2.000      2.000      2.000      2.000      2.000      2.000      2.000
 eps  :       -13.724    -13.107    -12.529    -12.486    -12.441    -12.319    -12.251    -12.171
 #    :          36         37         38         39         40         41         42         43
 occ. :        2.000      2.000      2.000      2.000      2.000      0.000      0.000      0.000
 eps  :       -12.129    -12.054    -12.038    -11.870    -11.688     -2.322     -0.809     -0.081
 #    :          44         45         46         47         48         49         50         51
 occ. :        0.000      0.000      0.000      0.000      0.000      0.000      0.000      0.000
 eps  :         0.419      0.654      1.203      2.491      2.721      3.365      4.041      5.148


   #   Z            q   n(s)   n(p)   n(d)      C6AA      α(0)
   1  16 S      1.702  1.586  1.773  0.939    88.733    15.854
   2   8 O     -0.630  1.761  4.869  0.000    25.898     6.870
   3   8 O     -0.766  1.776  4.990  0.000    30.567     7.413
   4   8 O     -0.784  1.773  5.011  0.000    31.113     7.479
   5   8 O     -0.716  1.770  4.946  0.000    29.149     7.239
   6   8 O     -0.616  1.746  4.869  0.000    25.566     6.824
   7   1 H      0.295  0.705  0.000  0.000     0.736     1.347
   8   1 H      0.327  0.673  0.000  0.000     0.644     1.261
   9   8 O     -0.624  1.754  4.870  0.000    25.768     6.851
  10   1 H      0.319  0.681  0.000  0.000     0.668     1.284
  11   1 H      0.324  0.676  0.000  0.000     0.653     1.269
  12   8 O     -0.630  1.749  4.880  0.000    25.906     6.869
  13   1 H      0.286  0.714  0.000  0.000     0.766     1.375
  14   1 H      0.336  0.664  0.000  0.000     0.622     1.239
  15   8 O     -0.601  1.739  4.862  0.000    25.215     6.777
  16   1 H      0.327  0.673  0.000  0.000     0.645     1.262
  17   1 H      0.286  0.714  0.000  0.000     0.757     1.363
  18   1 H      0.302  0.698  0.000  0.000     0.715     1.328
  19   8 O     -0.619  1.757  4.862  0.000    25.641     6.834
  20   1 H      0.315  0.685  0.000  0.000     0.678     1.293
  21   1 H      0.327  0.673  0.000  0.000     0.646     1.263
  22   1 H      0.381  0.619  0.000  0.000     0.516     1.127
  23   7 N     -0.355  1.276  4.079  0.000    29.132     8.016
  24   1 H      0.293  0.707  0.000  0.000     0.734     1.342
  25   1 H      0.292  0.708  0.000  0.000     0.738     1.345
  26   1 H      0.230  0.770  0.000  0.000     0.966     1.539

 Mol. C6AA /au·bohr⁶  :       5459.994519
 Mol. C8AA /au·bohr⁸  :     118155.690837
 Mol. α(0) /au        :        106.664561

 
 Wiberg/Mayer (AO) data. WBOs > 0.1 written file <wbo>
 largest (>0.05) Wiberg bond orders for each atom
           total WBO             WBO to atom ...
     1  S   4.823    O    5 1.369    O    4 1.259    O    3 1.196    O    2 0.954
     2  O   1.956    S    1 0.954    H   22 0.728    O    4 0.080    O    5 0.073    O    3 0.071
     3  O   1.734    S    1 1.196    H   25 0.117    O    5 0.105    O    4 0.102    O    2 0.071    H    8 0.067
     4  O   1.676    S    1 1.259    O    5 0.107    O    3 0.102    O    2 0.080    H   11 0.054
     5  O   1.756    S    1 1.369    O    4 0.107    O    3 0.105    O    2 0.073    H   16 0.062
     6  O   1.883    H    7 0.907    H    8 0.822    H   14 0.081
     7  H   0.913    O    6 0.907
     8  H   0.893    O    6 0.822    O    3 0.067
     9  O   1.904    H   10 0.864    H   11 0.836    H   24 0.103    N   23 0.052
    10  H   0.899    O    9 0.864
    11  H   0.895    O    9 0.836    O    4 0.054
    12  O   1.860    H   13 0.912    H   14 0.803
    13  H   0.918    O   12 0.912
    14  H   0.887    O   12 0.803    O    6 0.081
    15  O   1.920    H   18 0.904    H   16 0.825    H   17 0.103    N   23 0.052
    16  H   0.893    O   15 0.825    O    5 0.062
    17  H   0.918    N   23 0.810    O   15 0.103
    18  H   0.909    O   15 0.904
    19  O   1.906    H   20 0.865    H   21 0.847    H   22 0.108
    20  H   0.901    O   19 0.865
    21  H   0.893    O   19 0.847
    22  H   0.855    O    2 0.728    O   19 0.108
    23  N   3.517    H   26 0.943    H   17 0.810    H   24 0.805    H   25 0.789    O   15 0.052    O    9 0.052
    24  H   0.914    N   23 0.805    O    9 0.103
    25  H   0.915    N   23 0.789    O    3 0.117
    26  H   0.947    N   23 0.943
 MOs/occ written to file <molden.input>
 
molecular dipole:
                 x           y           z       tot (Debye)
 q only:        0.838       2.066       0.914
   full:        0.602       1.494       1.119       4.985
molecular quadrupole (traceless):
                xx          xy          yy          xz          yz          zz
 q only:       -9.080      -3.167      10.503      -4.516      -7.092      -1.423
  q+dip:       -8.351      -2.721       8.568      -4.452      -4.516      -0.216
   full:       -8.703      -2.537       8.739      -4.350      -4.857      -0.036

SCC energy    :     -50.7542631
rep           :       0.2843991
ES            :       0.2650714
AES           :      -0.0770626
AXC           :      -0.0092453
disp          :      -0.0204864
XB            :       0.0000000
fix           :       0.0000000
total E       :     -50.4695418
atomizationE  :       4.9998459     3137.45
(atE without considering molecular charge,
 total energy contains solvation terms)
H-L gap (eV)  :          9.3658
optimized geometry written to: xtbopt.xyz


------------------------------------------------------------------------
 * finished run on 2019/09/16 at 11:16:43.790     
------------------------------------------------------------------------
 total:
 * wall-time:     0 d,  0 h,  0 min,  3.567 sec
 *  cpu-time:     0 d,  0 h,  0 min,  3.529 sec
 * ratio c/w:     0.989 speedup
 SCF:
 * wall-time:     0 d,  0 h,  0 min,  0.137 sec
 *  cpu-time:     0 d,  0 h,  0 min,  0.133 sec
 * ratio c/w:     0.973 speedup
 ANC optimizer:
 * wall-time:     0 d,  0 h,  0 min,  3.406 sec
 *  cpu-time:     0 d,  0 h,  0 min,  3.374 sec
 * ratio c/w:     0.991 speedup

