      -----------------------------------------------------------      
     |                   =====================                   |     
     |                           x T B                           |     
     |                   =====================                   |     
     |                         S. Grimme                         |     
     |          Mulliken Center for Theoretical Chemistry        |     
     |                    University of Bonn                     |     
     |                 Version 6.0.1 (SAW181210)                 |     
      -----------------------------------------------------------      

   This program is distributed in the hope that it will be useful,
   but WITHOUT ANY WARRANTY; without even the implied warranty of
   MERCHANTABILITY or FITNESS FOR A PARTICULAR PURPOSE.
   
   FOR NON-COMMERCIAL, ACADEMIA USE ONLY.
   
   Cite this work as:
   S. Grimme, C. Bannwarth, P. Shushkov, J. Comput. Theory Chem., 2017,
   13, 1989-2009.
   C. Bannwarth, S. Ehlert and S. Grimme., ChemRxiv, 2018, preprint.
   http://doi.org/10.26434/chemrxiv.7246238.v1
   
   for sTDA-xTB:
   S. Grimme and C. Bannwarth, J. Chem. Phys., 2016, 145, 054103.
   
   in the mass-spec context:
   V. Asgeirsson, C. Bauer and S. Grimme, Chem. Sci., 2017, 8, 4879.
   
   if GBSA is used:
   P. Shushkov, F. März and S. Grimme, unpublished.
   
   for ANC optimizer:
   S. Grimme, unpublished.
   Rational Function algorithm used in ANCopt:
   F. Eckert, P. Pulay, H.-J. Werner, J. Comput. Chem., 1997, 18, 1473.
   
   with help from (in alphabetical order)
   C. Bannwarth, F. Bohle, G. Brandenburg, E. Caldeweyher, M. Checinski,
   S. Dohm, S. Ehlert, S. Ehrlich, F. März, H. Neugebauer, J. Pisarek,
   P. Pracht, P. Shushkov, and S. Spicher.
   
 * started run on 2019/09/16 at 11:57:25.938     
========================================================================
 # omp threads = 1
========================================================================
number of atoms            : 26
number of electrons        : 80
charge                     : 0
spin                       : .0
first test random number   : .8852

########################################################################
# WARNING! Please study the warnings concerning your input carefully
#  - XTBPATH is not set, using XTBHOME instead
#  - the use of '-opt' is discouraged, please use '--opt' next time
#  - the use of '-chrg' is discouraged, please use '--chrg' next time
#  - the use of '-uhf' is discouraged, please use '--uhf' next time
########################################################################

           ------------------------------------------------- 
          |                 G F N 2 - x T B                 |
          | Geometry, Frequencies, Noncovalent interactions |
          |            JCTC 2018 parametrisation            |
           ------------------------------------------------- 
      method parameters     
 k(s)        :  1.8500
 k(p)        :  2.2300
 k(d)        :  2.2300
 k(f)        :  2.0000
 kEN (H0ij)  : -2.0000
 D4 a1       :  0.5200
 D4 a2       :  5.0000
 D4 s6       :  1.0000
 D4 s8       :  2.7000
 D4 s9       :  5.0000
 alphaj      :  2.0000


            Z     q(EN)     CN     RAES       Cart. coordinates
     1  S   6.0    0.67    4.16    3.97    -0.39770    -1.79148    -0.24207
     2  O   6.0   -0.33    1.24    1.80     2.19315    -0.87120    -0.84929
     3  O   6.0   -0.31    1.21    1.80    -1.92806    -1.91215    -2.60249
     4  O   6.0   -0.31    1.21    1.80    -0.23729    -4.35804     0.90473
     5  O   6.0   -0.33    1.23    1.80    -1.61859    -0.02453     1.57875
     6  O   6.0   -0.29    2.05    1.83     0.28978    -6.16485     5.49343
     7  H   1.0    0.15    0.97    1.43     0.11048    -7.96200     5.72300
     8  H   1.0    0.18    1.05    1.44     0.05331    -5.88126     3.71066
     9  O   6.0   -0.29    2.00    1.83     1.11046     1.69140    -5.20779
    10  H   1.0    0.16    0.98    1.43     0.20754     0.19685    -5.72323
    11  H   1.0    0.17    1.02    1.43     2.08993     1.18635    -3.75860
    12  O   6.0   -0.29    2.05    1.83     5.20498    -0.55429     3.17342
    13  H   1.0    0.17    1.05    1.44     4.38244    -0.63889     1.55142
    14  H   1.0    0.15    0.97    1.43     6.98887    -0.57880     2.81046
    15  O   6.0   -0.22    2.92    2.58    -4.45698     2.23957    -2.04668
    16  H   1.0    0.12    1.07    1.44    -3.73910     3.69733    -2.96833
    17  H   1.0    0.15    1.05    1.44    -4.00799     0.61348    -2.84932
    18  H   1.0    0.14    0.99    1.43    -4.01008     2.27034    -0.23261
    19  O   6.0   -0.22    2.92    2.58     1.02277    -1.31344     5.62079
    20  H   1.0    0.14    1.05    1.44     2.76296    -0.94995     5.04683
    21  H   1.0    0.15    1.07    1.44    -0.25949    -0.59179     4.46968
    22  H   1.0    0.14    1.06    1.44     0.75016    -3.13855     5.91431
    23  N   5.0   -0.23    3.06    1.93    -2.04141     5.99104    -4.56395
    24  H   1.0    0.12    1.03    1.43    -0.67454     4.70668    -5.00343
    25  H   1.0    0.10    0.99    1.43    -1.12867     7.45195    -3.70156
    26  H   1.0    0.10    0.99    1.43    -2.66693     6.68625    -6.24814

  Z AO/shell   Hii/eV     exponent
  1     Wed Apr 25 08:07:45 CEST 2018   EN: 2.200 GM2: 0.406  GM3: 0.0800  RAES: 1.40
     1s    -10.707211    1.230000
  7     Wed Apr 25 08:07:45 CEST 2018   EN: 3.040 GM2: 0.461  GM3:-0.0640  RAES: 1.90
     2s    -16.686243    2.339881
     2p    -12.523956    2.014332
  8     Wed Apr 25 08:07:45 CEST 2018   EN: 3.440 GM2: 0.452  GM3:-0.0517  RAES: 1.80
     2s    -20.229985    2.439742
     2p    -15.503117    2.137023
 16     Tue Apr 24 11:44:34 CEST 2018   EN: 2.580 GM2: 0.340  GM3:-0.0502  RAES: 3.10
     3s    -20.029654    1.981333
     3p    -11.377694    2.025643
     3d     -0.420282    1.702555
 no old-style atom pair restraining (fixing) potential

molecular fragmentation (1/2 indicates fragments):
11111222222222222222222222
# atoms in fragment 1/2:     5    21
 fragment masses (1/2) :       96.06      109.12
CMA distance (Bohr)    :   2.219
constraining FC (au)   :  0.0500
           ------------------------------------------------- 
          |        Self-Consistent Charge Iterations        |
           ------------------------------------------------- 

 Ncao       : 65
 Nao        : 64
 Nshell     : 38
 Nel        : 80
 T(el)      :   300.0
 intcut     :    25.0
 scfconv/Eh :  0.100E-05
   qconv/e  :  0.100E-03
 intneglect :  0.100E-07
 broydamp   :      0.250
 iter      E             dE          RMSdq      gap      omega  full diag
   1    -50.5958433 -0.505958E+02  0.698E+00   10.27       0.0  T
   2    -50.6341527 -0.383094E-01  0.501E+00    9.96       1.0  T
   3    -50.6657190 -0.315663E-01  0.108E+00    8.04       1.0  T
   4    -50.6701486 -0.442961E-02  0.495E-01    7.95       1.0  T
   5    -50.6707901 -0.641504E-03  0.241E-01    7.83       1.0  T
   6    -50.6710498 -0.259679E-03  0.121E-01    7.87       1.0  T
   7    -50.6711364 -0.866241E-04  0.463E-02    7.93       1.0  T
   8    -50.6711460 -0.963486E-05  0.273E-02    7.92       1.0  T
   9    -50.6711506 -0.459009E-05  0.103E-02    7.92       1.9  T
  10    -50.6711511 -0.492879E-06  0.207E-03    7.91       9.5  T
  11    -50.6711511 -0.160306E-07  0.881E-04    7.91      22.3  T
  12    -50.6711511 -0.369324E-08  0.337E-04    7.91      58.2  T
speedup  1.04
cpu  time for SCC    0.01 s
wall time for SCC    0.01 s

   *** convergence criteria satisfied after 12 iterations ***

          eigenvalues
 #    :          28         29         30         31         32         33         34         35
 occ. :        2.000      2.000      2.000      2.000      2.000      2.000      2.000      2.000
 eps  :       -12.110    -11.970    -11.821    -11.774    -11.246    -10.895    -10.679    -10.088
 #    :          36         37         38         39         40         41         42         43
 occ. :        2.000      2.000      2.000      2.000      2.000      0.000      0.000      0.000
 eps  :        -9.959     -9.891     -9.720     -9.490     -9.382     -1.469     -0.882      0.458
 #    :          44         45         46         47         48         49         50         51
 occ. :        0.000      0.000      0.000      0.000      0.000      0.000      0.000      0.000
 eps  :         1.562      2.038      2.603      2.662      2.938      3.543      4.502      4.737


   #   Z            q   n(s)   n(p)   n(d)      C6AA      α(0)
   1  16 S      1.504  1.607  1.896  0.992    93.351    16.262
   2   8 O     -0.799  1.787  5.013  0.000    31.563     7.532
   3   8 O     -0.786  1.777  5.009  0.000    31.178     7.486
   4   8 O     -0.789  1.782  5.008  0.000    31.265     7.497
   5   8 O     -0.822  1.777  5.045  0.000    32.249     7.614
   6   8 O     -0.629  1.727  4.902  0.000    25.886     6.867
   7   1 H      0.289  0.711  0.000  0.000     0.755     1.365
   8   1 H      0.344  0.656  0.000  0.000     0.603     1.219
   9   8 O     -0.619  1.733  4.886  0.000    25.637     6.834
  10   1 H      0.296  0.704  0.000  0.000     0.732     1.343
  11   1 H      0.316  0.684  0.000  0.000     0.674     1.289
  12   8 O     -0.625  1.727  4.898  0.000    25.793     6.855
  13   1 H      0.339  0.661  0.000  0.000     0.614     1.231
  14   1 H      0.289  0.711  0.000  0.000     0.756     1.366
  15   8 O     -0.398  1.630  4.767  0.000    20.746     6.152
  16   1 H      0.394  0.606  0.000  0.000     0.495     1.105
  17   1 H      0.416  0.584  0.000  0.000     0.456     1.061
  18   1 H      0.403  0.597  0.000  0.000     0.479     1.087
  19   8 O     -0.419  1.638  4.781  0.000    21.173     6.215
  20   1 H      0.416  0.584  0.000  0.000     0.457     1.061
  21   1 H      0.407  0.593  0.000  0.000     0.473     1.080
  22   1 H      0.420  0.580  0.000  0.000     0.449     1.052
  23   7 N     -0.467  1.381  4.086  0.000    32.321     8.443
  24   1 H      0.213  0.787  0.000  0.000     1.043     1.600
  25   1 H      0.154  0.846  0.000  0.000     1.377     1.838
  26   1 H      0.152  0.848  0.000  0.000     1.385     1.843

 Mol. C6AA /au·bohr⁶  :       5522.133400
 Mol. C8AA /au·bohr⁸  :     119953.098531
 Mol. α(0) /au        :        107.298883

 
 Wiberg/Mayer (AO) data. WBOs > 0.1 written file <wbo>
 largest (>0.05) Wiberg bond orders for each atom
           total WBO             WBO to atom ...
     1  S   4.989    O    4 1.278    O    3 1.251    O    2 1.233    O    5 1.193
     2  O   1.663    S    1 1.233    O    4 0.099    O    5 0.094    O    3 0.093    H   13 0.064
     3  O   1.676    S    1 1.251    O    2 0.093    H   17 0.092    O    5 0.091    O    4 0.089
     4  O   1.653    S    1 1.278    O    2 0.099    O    5 0.095    O    3 0.089    H    8 0.061
     5  O   1.651    S    1 1.193    O    4 0.095    O    2 0.094    H   21 0.091    O    3 0.091
     6  O   1.842    H    7 0.899    H    8 0.816    H   22 0.071
     7  H   0.916    O    6 0.899
     8  H   0.882    O    6 0.816    O    4 0.061
     9  O   1.844    H   10 0.900    H   11 0.861
    10  H   0.912    O    9 0.900
    11  H   0.900    O    9 0.861
    12  O   1.851    H   14 0.902    H   13 0.817    H   20 0.075
    13  H   0.885    O   12 0.817    O    2 0.064
    14  H   0.917    O   12 0.902
    15  O   2.346    H   18 0.794    H   16 0.729    H   17 0.726
    16  H   0.844    O   15 0.729    N   23 0.109
    17  H   0.827    O   15 0.726    O    3 0.092
    18  H   0.837    O   15 0.794
    19  O   2.328    H   20 0.745    H   22 0.743    H   21 0.737
    20  H   0.827    O   19 0.745    O   12 0.075
    21  H   0.835    O   19 0.737    O    5 0.091
    22  H   0.823    O   19 0.743    O    6 0.071
    23  N   3.038    H   26 0.973    H   25 0.972    H   24 0.913    H   16 0.109
    24  H   0.955    N   23 0.913
    25  H   0.976    N   23 0.972
    26  H   0.977    N   23 0.973
 MOs/occ written to file <molden.input>
 
molecular dipole:
                 x           y           z       tot (Debye)
 q only:       -0.991       2.572       1.469
   full:       -0.450       2.184       0.848       6.064
molecular quadrupole (traceless):
                xx          xy          yy          xz          yz          zz
 q only:        1.648     -11.515      -5.095      11.715     -15.233       3.447
  q+dip:        0.239      -9.234       1.696       8.929     -16.548      -1.935
   full:        0.016      -9.208       1.662       9.336     -16.507      -1.678

SCC energy    :     -50.6711511
rep           :       0.2897907
ES            :       0.3486080
AES           :      -0.0846172
AXC           :      -0.0089030
disp          :      -0.0178350
XB            :       0.0000000
fix           :       0.0000000
total E       :     -50.3812250
atomizationE  :       4.9115292     3082.03
(atE without considering molecular charge,
 total energy contains solvation terms)
H-L gap (eV)  :          7.9125
           ------------------------------------------------- 
          |                 ===============                 |
          |                   A N C O P T                   |
          |                 ===============                 |
          |          Approximate Normal Coordinate          |
          |           Rational Function Optimizer           |
           ------------------------------------------------- 
dumping coords to <xtbopt.coord> and <xtbopt.log>
 optlevel               2
 Maxcycle             520
 Maxmicro              25
 Econv         1.000000000000000E-007
 Gconv         2.000000000000000E-004
 Maxdispl       1.00000000000000     
 Hlow          5.000000000000000E-003
 S6             20.0000000000000     
 Nvar               72

generating ANC from model Hessian ...
 Shifting diagonal of input Hessian by   5.051044678739861E-003
 Lowest  eigenvalues of input Hessian
    0.005000   -0.000000    0.000000    0.000000    0.000000    0.000000
    0.000000    0.005150    0.005213    0.005298    0.005477    0.005864
    0.006207    0.006400    0.006692    0.007037    0.007607    0.007998
 Highest eigenvalues
    1.555823    1.556856    1.560952    3.079942    3.082201    3.088539
 
cpu  time for ANC gen    0.01 s
wall time for ANC gen    0.01 s
................................................................................
.............................. CYCLE    1 ......................................
................................................................................
   1    -50.6711511 -0.506712E+02  0.585E-05    7.91       0.0  T
   2    -50.6711511 -0.118590E-10  0.413E-05    7.91     474.7  T
   3    -50.6711511 -0.561329E-11  0.204E-05    7.91     963.7  T
speedup  1.07
cpu  time for SCC    0.00 s
wall time for SCC    0.00 s
speedup  1.01
cpu  time for grad    0.01 s
wall time for grad    0.01 s
 E :    -50.38122497  G :  0.125170    pred/act E change:  0.000D+00  0.152D-07
Maxdispl :   0.2388   ||displ|| :   0.5592   Lambda : -0.328D-01
Largest |displ|/coords:  0.2388 (  26)  0.1998 (  25)  0.1667 (  22)
................................................................................
.............................. CYCLE    2 ......................................
................................................................................
   1    -50.6796945 -0.506797E+02  0.395E-01    8.23       0.0  T
   2    -50.6798980 -0.203585E-03  0.297E-01    8.32       1.0  T
   3    -50.6800041 -0.106043E-03  0.693E-02    8.51       1.0  T
   4    -50.6800300 -0.258972E-04  0.210E-02    8.49       1.0  T
   5    -50.6800307 -0.755343E-06  0.800E-03    8.49       2.5  T
   6    -50.6800309 -0.158161E-06  0.434E-03    8.48       4.5  T
   7    -50.6800310 -0.840614E-07  0.185E-03    8.48      10.6  T
speedup  0.97
cpu  time for SCC    0.01 s
wall time for SCC    0.01 s
speedup  1.00
cpu  time for grad    0.01 s
wall time for grad    0.01 s
 E :    -50.40969260  G :  0.080744    pred/act E change:  0.000D+00 -0.285D-01
Maxdispl :   0.2627   ||displ|| :   0.5894   Lambda : -0.230D-01
Largest |displ|/coords:  0.2627 (  25)  0.1952 (  26)  0.1885 (  13)
................................................................................
.............................. CYCLE    3 ......................................
................................................................................
   1    -50.6857419 -0.506857E+02  0.370E-01    8.68       0.0  T
   2    -50.6861918 -0.449912E-03  0.269E-01    8.75       1.0  T
   3    -50.6864062 -0.214398E-03  0.956E-02    8.86       1.0  T
   4    -50.6864301 -0.239068E-04  0.281E-02    8.87       1.0  T
   5    -50.6864313 -0.123897E-05  0.102E-02    8.87       1.9  T
   6    -50.6864316 -0.280576E-06  0.561E-03    8.87       3.5  T
   7    -50.6864317 -0.138613E-06  0.231E-03    8.87       8.5  T
speedup  0.97
cpu  time for SCC    0.01 s
wall time for SCC    0.01 s
speedup  1.01
cpu  time for grad    0.01 s
wall time for grad    0.01 s
 E :    -50.42801478  G :  0.053378    pred/act E change: -0.216D-01 -0.183D-01
Maxdispl :   0.2707   ||displ|| :   0.5707   Lambda : -0.116D-01
Largest |displ|/coords:  0.2707 (  25)  0.2707 (  13)  0.2234 (  11)
................................................................................
.............................. CYCLE    4 ......................................
................................................................................
   1    -50.6900854 -0.506901E+02  0.296E-01    9.05       0.0  T
   2    -50.6905059 -0.420503E-03  0.210E-01    9.08       1.0  T
   3    -50.6906942 -0.188361E-03  0.864E-02    9.14       1.0  T
   4    -50.6907067 -0.124336E-04  0.290E-02    9.15       1.0  T
   5    -50.6907080 -0.138656E-05  0.874E-03    9.15       2.2  T
   6    -50.6907082 -0.188358E-06  0.476E-03    9.15       4.1  T
   7    -50.6907083 -0.931822E-07  0.194E-03    9.15      10.1  T
speedup  0.98
cpu  time for SCC    0.01 s
wall time for SCC    0.01 s
speedup  1.01
cpu  time for grad    0.01 s
wall time for grad    0.01 s
 E :    -50.43625047  G :  0.039318    pred/act E change: -0.155D-01 -0.824D-02
Maxdispl :   0.1806   ||displ|| :   0.5169   Lambda : -0.560D-02
Largest |displ|/coords:  0.1806 (  11)  0.1760 (  13)  0.1622 (   6)
................................................................................
.............................. CYCLE    5 ......................................
................................................................................
   1    -50.6919712 -0.506920E+02  0.331E-01    9.29       0.0  T
   2    -50.6922172 -0.245981E-03  0.243E-01    9.32       1.0  T
   3    -50.6923212 -0.103991E-03  0.766E-02    9.38       1.0  T
   4    -50.6923403 -0.191343E-04  0.186E-02    9.38       1.1  T
   5    -50.6923411 -0.842919E-06  0.596E-03    9.38       3.3  T
   6    -50.6923412 -0.727440E-07  0.315E-03    9.37       6.2  T
speedup  1.11
cpu  time for SCC    0.01 s
wall time for SCC    0.01 s
speedup  0.99
cpu  time for grad    0.01 s
wall time for grad    0.01 s
 E :    -50.43996078  G :  0.035648    pred/act E change: -0.768D-02 -0.371D-02
Maxdispl :   0.2577   ||displ|| :   0.5548   Lambda : -0.467D-02
Largest |displ|/coords:  0.2577 (   6)  0.1921 (  11)  0.1904 (   5)
................................................................................
.............................. CYCLE    6 ......................................
................................................................................
   1    -50.6993236 -0.506993E+02  0.435E-01    9.46       0.0  T
   2    -50.6995332 -0.209618E-03  0.326E-01    9.49       1.0  T
   3    -50.6996252 -0.920133E-04  0.752E-02    9.53       1.0  T
   4    -50.6996540 -0.288113E-04  0.211E-02    9.53       1.0  T
   5    -50.6996554 -0.138255E-05  0.652E-03    9.53       3.0  T
   6    -50.6996555 -0.462119E-07  0.320E-03    9.53       6.1  T
   7    -50.6996555 -0.190628E-07  0.890E-04    9.53      22.0  T
speedup  0.95
cpu  time for SCC    0.01 s
wall time for SCC    0.01 s
speedup  0.99
cpu  time for grad    0.01 s
wall time for grad    0.01 s
 E :    -50.44095845  G :  0.040478    pred/act E change: -0.355D-02 -0.998D-03
Maxdispl :   0.1714   ||displ|| :   0.4276   Lambda : -0.508D-02
Largest |displ|/coords:  0.1714 (  10)  0.1405 (   4)  0.1376 (  18)
................................................................................
.............................. CYCLE    7 ......................................
................................................................................
   1    -50.7080437 -0.507080E+02  0.454E-01    9.59       0.0  T
   2    -50.7081494 -0.105648E-03  0.344E-01    9.60       1.0  T
   3    -50.7082206 -0.712202E-04  0.565E-02    9.59       1.0  T
   4    -50.7082359 -0.153049E-04  0.129E-02    9.60       1.5  T
   5    -50.7082364 -0.496933E-06  0.537E-03    9.60       3.7  T
   6    -50.7082364 -0.222617E-07  0.289E-03    9.60       6.8  T
speedup  1.11
cpu  time for SCC    0.01 s
wall time for SCC    0.01 s
speedup  0.99
cpu  time for grad    0.01 s
wall time for grad    0.01 s
 E :    -50.44271586  G :  0.034442    pred/act E change: -0.305D-02 -0.176D-02
Maxdispl :   0.2988   ||displ|| :   0.5072   Lambda : -0.536D-02
Largest |displ|/coords:  0.2988 (   4)  0.1663 (  16)  0.1220 (  18)
................................................................................
.............................. CYCLE    8 ......................................
................................................................................
   1    -50.6902473 -0.506902E+02  0.690E-01    9.38       0.0  T
   2    -50.6904406 -0.193352E-03  0.522E-01    9.39       1.0  T
   3    -50.6905642 -0.123619E-03  0.756E-02    9.37       1.0  T
   4    -50.6905942 -0.299184E-04  0.198E-02    9.36       1.0  T
   5    -50.6905948 -0.689958E-06  0.667E-03    9.36       2.9  T
   6    -50.6905949 -0.519326E-07  0.361E-03    9.36       5.4  T
   7    -50.6905949 -0.206116E-07  0.825E-04    9.37      23.8  T
speedup  0.97
cpu  time for SCC    0.01 s
wall time for SCC    0.01 s
speedup  1.01
cpu  time for grad    0.01 s
wall time for grad    0.01 s
 E :    -50.44109218  G :  0.066486    pred/act E change: -0.300D-02  0.162D-02
Maxdispl :   0.2505   ||displ|| :   0.5433   Lambda : -0.167D-01
Largest |displ|/coords:  0.2505 (   4)  0.2400 (  14)  0.1657 (  15)
................................................................................
.............................. CYCLE    9 ......................................
................................................................................
   1    -50.7183573 -0.507184E+02  0.841E-01    9.50       0.0  T
   2    -50.7187534 -0.396169E-03  0.637E-01    9.50       1.0  T
   3    -50.7190187 -0.265268E-03  0.112E-01    9.51       1.0  T
   4    -50.7190757 -0.569707E-04  0.285E-02    9.52       1.0  T
   5    -50.7190775 -0.184029E-05  0.110E-02    9.52       1.8  T
   6    -50.7190776 -0.546812E-07  0.549E-03    9.52       3.6  T
   7    -50.7190776 -0.521182E-07  0.918E-04    9.52      21.4  T
speedup  0.95
cpu  time for SCC    0.01 s
wall time for SCC    0.01 s
speedup  0.99
cpu  time for grad    0.01 s
wall time for grad    0.01 s
 E :    -50.44207465  G :  0.065704    pred/act E change: -0.337D-02 -0.982D-03
Maxdispl :   0.1266   ||displ|| :   0.3434   Lambda : -0.682D-02
Largest |displ|/coords:  0.1266 (   4)  0.1064 (   3)  0.0884 (  14)
................................................................................
.............................. CYCLE   10 ......................................
................................................................................
   1    -50.7047359 -0.507047E+02  0.433E-01    9.47       0.0  T
   2    -50.7048378 -0.101936E-03  0.328E-01    9.47       1.0  T
   3    -50.7049071 -0.692928E-04  0.573E-02    9.47       1.0  T
   4    -50.7049209 -0.138399E-04  0.143E-02    9.46       1.4  T
   5    -50.7049214 -0.441491E-06  0.502E-03    9.46       3.9  T
   6    -50.7049214 -0.284237E-07  0.287E-03    9.46       6.8  T
speedup  1.13
cpu  time for SCC    0.01 s
wall time for SCC    0.01 s
speedup  1.00
cpu  time for grad    0.01 s
wall time for grad    0.01 s
 E :    -50.44498097  G :  0.026287    pred/act E change: -0.108D-01 -0.291D-02
Maxdispl :   0.1138   ||displ|| :   0.2666   Lambda : -0.239D-02
Largest |displ|/coords:  0.1138 (   6)  0.1115 (  36)  0.0862 (   1)
................................................................................
.............................. CYCLE   11 ......................................
................................................................................
   1    -50.7067830 -0.507068E+02  0.232E-01    9.36       0.0  T
   2    -50.7069370 -0.154080E-03  0.168E-01    9.32       1.0  T
   3    -50.7070068 -0.697361E-04  0.570E-02    9.24       1.0  T
   4    -50.7070164 -0.961256E-05  0.106E-02    9.23       1.9  T
   5    -50.7070166 -0.250275E-06  0.519E-03    9.23       3.8  T
   6    -50.7070167 -0.432012E-07  0.280E-03    9.24       7.0  T
speedup  0.94
cpu  time for SCC    0.00 s
wall time for SCC    0.01 s
speedup  0.99
cpu  time for grad    0.01 s
wall time for grad    0.01 s
 E :    -50.44562199  G :  0.029842    pred/act E change: -0.381D-02 -0.641D-03
Maxdispl :   0.0955   ||displ|| :   0.2433   Lambda : -0.185D-02
Largest |displ|/coords:  0.0955 (   8)  0.0882 (   9)  0.0862 (  22)
................................................................................
.............................. CYCLE   12 ......................................
................................................................................
   1    -50.7138236 -0.507138E+02  0.124E-01    9.26       0.0  T
   2    -50.7138546 -0.309340E-04  0.917E-02    9.25       1.0  T
   3    -50.7138716 -0.169964E-04  0.290E-02    9.23       1.0  T
   4    -50.7138742 -0.264047E-05  0.104E-02    9.23       1.9  T
   5    -50.7138744 -0.231469E-06  0.338E-03    9.23       5.8  T
   6    -50.7138745 -0.128225E-07  0.169E-03    9.23      11.6  T
speedup  1.13
cpu  time for SCC    0.01 s
wall time for SCC    0.01 s
speedup  0.99
cpu  time for grad    0.01 s
wall time for grad    0.01 s
 E :    -50.44663824  G :  0.018572    pred/act E change: -0.128D-02 -0.102D-02
Maxdispl :   0.1774   ||displ|| :   0.3677   Lambda : -0.170D-02
Largest |displ|/coords:  0.1774 (   5)  0.1749 (   6)  0.1303 (   1)
................................................................................
.............................. CYCLE   13 ......................................
................................................................................
   1    -50.7151876 -0.507152E+02  0.239E-01    9.23       0.0  T
   2    -50.7152530 -0.654625E-04  0.179E-01    9.20       1.0  T
   3    -50.7152816 -0.285164E-04  0.461E-02    9.13       1.0  T
   4    -50.7152892 -0.764765E-05  0.136E-02    9.13       1.4  T
   5    -50.7152898 -0.599789E-06  0.412E-03    9.13       4.8  T
   6    -50.7152898 -0.256913E-07  0.249E-03    9.14       7.9  T
   7    -50.7152898 -0.115700E-07  0.663E-04    9.14      29.6  T
speedup  0.98
cpu  time for SCC    0.01 s
wall time for SCC    0.01 s
speedup  1.01
cpu  time for grad    0.01 s
wall time for grad    0.01 s
 E :    -50.44756933  G :  0.024046    pred/act E change: -0.980D-03 -0.931D-03
Maxdispl :   0.1666   ||displ|| :   0.4433   Lambda : -0.229D-02
Largest |displ|/coords:  0.1666 (   1)  0.1590 (   6)  0.1326 (   2)
................................................................................
.............................. CYCLE   14 ......................................
................................................................................
   1    -50.7193365 -0.507193E+02  0.327E-01    9.06       0.0  T
   2    -50.7195493 -0.212775E-03  0.243E-01    9.00       1.0  T
   3    -50.7196517 -0.102429E-03  0.793E-02    8.85       1.0  T
   4    -50.7196689 -0.171977E-04  0.228E-02    8.84       1.0  T
   5    -50.7196706 -0.174312E-05  0.695E-03    8.85       2.8  T
   6    -50.7196707 -0.756067E-07  0.401E-03    8.85       4.9  T
   7    -50.7196707 -0.248034E-07  0.107E-03    8.85      18.3  T
speedup  0.98
cpu  time for SCC    0.01 s
wall time for SCC    0.01 s
speedup  1.01
cpu  time for grad    0.01 s
wall time for grad    0.01 s
 E :    -50.44830669  G :  0.035544    pred/act E change: -0.963D-03 -0.737D-03
Maxdispl :   0.1577   ||displ|| :   0.3813   Lambda : -0.329D-02
Largest |displ|/coords:  0.1577 (   3)  0.1163 (  22)  0.1006 (   6)
................................................................................
.............................. CYCLE   15 ......................................
................................................................................
   1    -50.7318630 -0.507319E+02  0.290E-01    8.74       0.0  T
   2    -50.7320131 -0.150153E-03  0.216E-01    8.69       1.0  T
   3    -50.7320954 -0.822735E-04  0.659E-02    8.56       1.0  T
   4    -50.7321090 -0.136399E-04  0.207E-02    8.56       1.0  T
   5    -50.7321101 -0.111794E-05  0.744E-03    8.56       2.6  T
   6    -50.7321102 -0.639976E-07  0.394E-03    8.56       5.0  T
   7    -50.7321102 -0.249638E-07  0.924E-04    8.56      21.2  T
speedup  0.98
cpu  time for SCC    0.01 s
wall time for SCC    0.01 s
speedup  1.01
cpu  time for grad    0.01 s
wall time for grad    0.01 s
 E :    -50.44916537  G :  0.029486    pred/act E change: -0.137D-02 -0.859D-03
Maxdispl :   0.1554   ||displ|| :   0.3314   Lambda : -0.270D-02
Largest |displ|/coords:  0.1554 (   3)  0.1536 (   5)  0.1009 (  25)
................................................................................
.............................. CYCLE   16 ......................................
................................................................................
   1    -50.7254848 -0.507255E+02  0.318E-01    8.46       0.0  T
   2    -50.7255603 -0.755242E-04  0.237E-01    8.45       1.0  T
   3    -50.7256038 -0.434593E-04  0.476E-02    8.43       1.0  T
   4    -50.7256139 -0.101718E-04  0.127E-02    8.44       1.5  T
   5    -50.7256142 -0.224460E-06  0.511E-03    8.44       3.8  T
   6    -50.7256142 -0.269143E-07  0.258E-03    8.44       7.6  T
speedup  1.13
cpu  time for SCC    0.01 s
wall time for SCC    0.01 s
speedup  1.00
cpu  time for grad    0.01 s
wall time for grad    0.01 s
 E :    -50.44848510  G :  0.051827    pred/act E change: -0.189D-02  0.680D-03
Maxdispl :   0.1422   ||displ|| :   0.3991   Lambda : -0.876D-02
Largest |displ|/coords:  0.1422 (   3)  0.1211 (   5)  0.1201 (  14)
................................................................................
.............................. CYCLE   17 ......................................
................................................................................
   1    -50.7294712 -0.507295E+02  0.540E-01    8.58       0.0  T
   2    -50.7298065 -0.335279E-03  0.403E-01    8.62       1.0  T
   3    -50.7299914 -0.184906E-03  0.102E-01    8.71       1.0  T
   4    -50.7300308 -0.393252E-04  0.286E-02    8.71       1.0  T
   5    -50.7300322 -0.149347E-05  0.103E-02    8.70       1.9  T
   6    -50.7300324 -0.153370E-06  0.607E-03    8.70       3.2  T
   7    -50.7300325 -0.523721E-07  0.162E-03    8.70      12.1  T
   8    -50.7300325 -0.591684E-08  0.433E-04    8.70      45.3  T
speedup  0.99
cpu  time for SCC    0.01 s
wall time for SCC    0.01 s
speedup  1.01
cpu  time for grad    0.01 s
wall time for grad    0.01 s
 E :    -50.44651785  G :  0.072098    pred/act E change: -0.150D-02  0.197D-02
Maxdispl :   0.1363   ||displ|| :   0.3918   Lambda : -0.118D-01
Largest |displ|/coords:  0.1363 (  19)  0.1166 (  16)  0.1058 (   3)
................................................................................
.............................. CYCLE   18 ......................................
................................................................................
   1    -50.7293130 -0.507293E+02  0.543E-01    8.60       0.0  T
   2    -50.7296009 -0.287912E-03  0.406E-01    8.54       1.0  T
   3    -50.7297645 -0.163520E-03  0.979E-02    8.42       1.0  T
   4    -50.7298011 -0.366128E-04  0.255E-02    8.43       1.0  T
   5    -50.7298024 -0.131194E-05  0.962E-03    8.44       2.0  T
   6    -50.7298025 -0.850443E-07  0.524E-03    8.44       3.7  T
   7    -50.7298025 -0.486169E-07  0.147E-03    8.44      13.3  T
speedup  0.97
cpu  time for SCC    0.01 s
wall time for SCC    0.01 s
speedup  1.01
cpu  time for grad    0.01 s
wall time for grad    0.01 s
 E :    -50.44865920  G :  0.045122    pred/act E change: -0.508D-02 -0.214D-02
Maxdispl :   0.0785   ||displ|| :   0.1778   Lambda : -0.355D-02
Largest |displ|/coords:  0.0785 (  19)  0.0590 (  36)  0.0580 (   8)
................................................................................
.............................. CYCLE   19 ......................................
................................................................................
   1    -50.7284049 -0.507284E+02  0.229E-01    8.50       0.0  T
   2    -50.7284723 -0.673969E-04  0.170E-01    8.53       1.0  T
   3    -50.7285079 -0.356450E-04  0.460E-02    8.61       1.0  T
   4    -50.7285153 -0.739722E-05  0.105E-02    8.60       1.9  T
   5    -50.7285156 -0.275052E-06  0.447E-03    8.60       4.4  T
   6    -50.7285156 -0.262226E-07  0.257E-03    8.60       7.6  T
speedup  1.11
cpu  time for SCC    0.01 s
wall time for SCC    0.01 s
speedup  0.99
cpu  time for grad    0.01 s
wall time for grad    0.01 s
 E :    -50.45023868  G :  0.012461    pred/act E change: -0.678D-02 -0.158D-02
Maxdispl :   0.0833   ||displ|| :   0.1811   Lambda : -0.720D-03
Largest |displ|/coords:  0.0833 (   1)  0.0710 (   6)  0.0521 (   2)
................................................................................
.............................. CYCLE   20 ......................................
................................................................................
   1    -50.7340500 -0.507341E+02  0.119E-01    8.57       0.0  T
   2    -50.7340945 -0.444617E-04  0.867E-02    8.54       1.0  T
   3    -50.7341176 -0.231365E-04  0.364E-02    8.48       1.0  T
   4    -50.7341199 -0.233502E-05  0.110E-02    8.47       1.8  T
   5    -50.7341202 -0.255409E-06  0.366E-03    8.47       5.4  T
   6    -50.7341202 -0.174862E-07  0.181E-03    8.47      10.8  T
   7    -50.7341202 -0.514208E-08  0.498E-04    8.47      39.4  T
speedup  0.97
cpu  time for SCC    0.01 s
wall time for SCC    0.01 s
speedup  0.94
cpu  time for grad    0.01 s
wall time for grad    0.01 s
 E :    -50.45036174  G :  0.012756    pred/act E change: -0.183D-02 -0.123D-03
Maxdispl :   0.0258   ||displ|| :   0.0813   Lambda : -0.418D-03
Largest |displ|/coords:  0.0258 (  18)  0.0255 (   9)  0.0217 (   1)
................................................................................
.............................. CYCLE   21 ......................................
................................................................................
   1    -50.7321747 -0.507322E+02  0.724E-02    8.46       0.0  T
   2    -50.7321820 -0.726688E-05  0.535E-02    8.45       1.0  T
   3    -50.7321857 -0.378616E-05  0.156E-02    8.45       1.3  T
   4    -50.7321865 -0.717972E-06  0.442E-03    8.45       4.4  T
   5    -50.7321865 -0.291480E-07  0.143E-03    8.45      13.7  T
   6    -50.7321865 -0.254914E-08  0.772E-04    8.45      25.4  T
speedup  0.94
cpu  time for SCC    0.00 s
wall time for SCC    0.01 s
speedup  1.00
cpu  time for grad    0.01 s
wall time for grad    0.01 s
 E :    -50.45058815  G :  0.006255    pred/act E change: -0.372D-03 -0.226D-03
Maxdispl :   0.0630   ||displ|| :   0.1246   Lambda : -0.203D-03
Largest |displ|/coords:  0.0630 (   9)  0.0379 (   2)  0.0372 (   7)
................................................................................
.............................. CYCLE   22 ......................................
................................................................................
   1    -50.7322476 -0.507322E+02  0.658E-02    8.44       0.0  T
   2    -50.7322517 -0.406421E-05  0.494E-02    8.44       1.0  T
   3    -50.7322540 -0.234170E-05  0.110E-02    8.45       1.8  T
   4    -50.7322545 -0.545947E-06  0.302E-03    8.45       6.5  T
   5    -50.7322546 -0.155594E-07  0.125E-03    8.45      15.6  T
   6    -50.7322546 -0.183403E-08  0.610E-04    8.45      32.1  T
speedup  1.11
cpu  time for SCC    0.01 s
wall time for SCC    0.01 s
speedup  1.05
cpu  time for grad    0.01 s
wall time for grad    0.01 s
 E :    -50.45068143  G :  0.010000    pred/act E change: -0.210D-03 -0.933D-04
Maxdispl :   0.0806   ||displ|| :   0.1667   Lambda : -0.231D-03
Largest |displ|/coords:  0.0806 (   2)  0.0689 (   9)  0.0640 (  18)
................................................................................
.............................. CYCLE   23 ......................................
................................................................................
   1    -50.7332121 -0.507332E+02  0.709E-02    8.43       0.0  T
   2    -50.7332150 -0.290034E-05  0.529E-02    8.42       1.0  T
   3    -50.7332167 -0.164665E-05  0.888E-03    8.40       2.2  T
   4    -50.7332171 -0.436095E-06  0.305E-03    8.40       6.4  T
   5    -50.7332171 -0.161757E-07  0.110E-03    8.40      17.8  T
   6    -50.7332171 -0.162606E-08  0.619E-04    8.40      31.7  T
speedup  0.94
cpu  time for SCC    0.00 s
wall time for SCC    0.01 s
speedup  0.99
cpu  time for grad    0.01 s
wall time for grad    0.01 s
 E :    -50.45087028  G :  0.008274    pred/act E change: -0.103D-03 -0.189D-03
Maxdispl :   0.2284   ||displ|| :   0.4401   Lambda : -0.522D-03
Largest |displ|/coords:  0.2284 (   2)  0.1826 (   9)  0.1379 (  18)
................................................................................
.............................. CYCLE   24 ......................................
................................................................................
   1    -50.7327718 -0.507328E+02  0.210E-01    8.35       0.0  T
   2    -50.7327921 -0.203876E-04  0.158E-01    8.33       1.0  T
   3    -50.7328043 -0.121076E-04  0.255E-02    8.27       1.0  T
   4    -50.7328075 -0.322011E-05  0.888E-03    8.28       2.2  T
   5    -50.7328076 -0.137986E-06  0.305E-03    8.28       6.4  T
   6    -50.7328076 -0.110107E-07  0.184E-03    8.28      10.6  T
   7    -50.7328076 -0.657790E-08  0.446E-04    8.28      44.0  T
speedup  0.98
cpu  time for SCC    0.01 s
wall time for SCC    0.01 s
speedup  1.01
cpu  time for grad    0.01 s
wall time for grad    0.01 s
 E :    -50.45117934  G :  0.010299    pred/act E change: -0.118D-03 -0.309D-03
Maxdispl :   0.1433   ||displ|| :   0.2450   Lambda : -0.221D-03
Largest |displ|/coords:  0.1433 (   2)  0.1081 (   9)  0.0822 (  18)
................................................................................
.............................. CYCLE   25 ......................................
................................................................................
   1    -50.7356282 -0.507356E+02  0.880E-02    8.27       0.0  T
   2    -50.7356311 -0.294982E-05  0.656E-02    8.27       1.0  T
   3    -50.7356330 -0.185940E-05  0.978E-03    8.26       2.0  T
   4    -50.7356334 -0.418467E-06  0.388E-03    8.27       5.1  T
   5    -50.7356334 -0.183563E-07  0.108E-03    8.27      18.2  T
   6    -50.7356334 -0.151490E-08  0.628E-04    8.27      31.2  T
speedup  1.13
cpu  time for SCC    0.01 s
wall time for SCC    0.01 s
speedup  1.07
cpu  time for grad    0.01 s
wall time for grad    0.01 s
 E :    -50.45128284  G :  0.007569    pred/act E change: -0.312D-03 -0.104D-03
Maxdispl :   0.1288   ||displ|| :   0.2381   Lambda : -0.176D-03
Largest |displ|/coords:  0.1288 (   2)  0.1199 (   7)  0.0908 (   8)

generating ANC from model Hessian ...
 Shifting diagonal of input Hessian by   5.095806493774441E-003
 Lowest  eigenvalues of input Hessian
    0.005000   -0.000000   -0.000000   -0.000000    0.000000    0.000000
    0.000000    0.005247    0.005336    0.005831    0.005893    0.006277
    0.006519    0.006708    0.007089    0.007325    0.008121    0.008873
 Highest eigenvalues
    1.402283    1.419955    1.421784    2.796778    3.306576    3.662785
 
cpu  time for ANC gen    0.01 s
wall time for ANC gen    0.01 s
................................................................................
.............................. CYCLE   26 ......................................
................................................................................
   1    -50.7334156 -0.507334E+02  0.107E-01    8.22       0.0  T
   2    -50.7334197 -0.417829E-05  0.796E-02    8.22       1.0  T
   3    -50.7334214 -0.162085E-05  0.116E-02    8.23       1.7  T
   4    -50.7334221 -0.785914E-06  0.395E-03    8.22       5.0  T
   5    -50.7334222 -0.248685E-07  0.104E-03    8.22      18.8  T
   6    -50.7334222 -0.107854E-08  0.618E-04    8.22      31.7  T
   7    -50.7334222 -0.627601E-09  0.156E-04    8.22     125.4  T
speedup  0.98
cpu  time for SCC    0.01 s
wall time for SCC    0.01 s
speedup  0.97
cpu  time for grad    0.01 s
wall time for grad    0.01 s
 E :    -50.45132714  G :  0.009005    pred/act E change:  0.000D+00 -0.443D-04
Maxdispl :   0.0635   ||displ|| :   0.1292   Lambda : -0.310D-03
Largest |displ|/coords:  0.0635 (   7)  0.0535 (   6)  0.0401 (   3)
................................................................................
.............................. CYCLE   27 ......................................
................................................................................
   1    -50.7348584 -0.507349E+02  0.146E-01    8.26       0.0  T
   2    -50.7348612 -0.282764E-05  0.111E-01    8.26       1.0  T
   3    -50.7348640 -0.281811E-05  0.790E-03    8.26       2.5  T
   4    -50.7348643 -0.305956E-06  0.330E-03    8.26       5.9  T
   5    -50.7348643 -0.845942E-08  0.114E-03    8.26      17.3  T
   6    -50.7348643 -0.120322E-08  0.564E-04    8.26      34.8  T
speedup  0.93
cpu  time for SCC    0.00 s
wall time for SCC    0.01 s
speedup  0.98
cpu  time for grad    0.01 s
wall time for grad    0.01 s
 E :    -50.45156714  G :  0.004403    pred/act E change:  0.000D+00 -0.240D-03
Maxdispl :   0.1229   ||displ|| :   0.2686   Lambda : -0.373D-03
Largest |displ|/coords:  0.1229 (   7)  0.0891 (  18)  0.0876 (   4)
................................................................................
.............................. CYCLE   28 ......................................
................................................................................
   1    -50.7339868 -0.507340E+02  0.294E-01    8.31       0.0  T
   2    -50.7339971 -0.103254E-04  0.223E-01    8.32       1.0  T
   3    -50.7340069 -0.977301E-05  0.165E-02    8.33       1.2  T
   4    -50.7340081 -0.115438E-05  0.579E-03    8.33       3.4  T
   5    -50.7340081 -0.253795E-07  0.256E-03    8.33       7.7  T
   6    -50.7340081 -0.721961E-08  0.108E-03    8.33      18.1  T
speedup  1.11
cpu  time for SCC    0.01 s
wall time for SCC    0.01 s
speedup  1.04
cpu  time for grad    0.01 s
wall time for grad    0.01 s
 E :    -50.45170426  G :  0.016212    pred/act E change: -0.158D-03 -0.137D-03
Maxdispl :   0.0435   ||displ|| :   0.0666   Lambda : -0.223D-03
Largest |displ|/coords:  0.0435 (   2)  0.0169 (  33)  0.0163 (   8)
................................................................................
.............................. CYCLE   29 ......................................
................................................................................
   1    -50.7356710 -0.507357E+02  0.690E-02    8.33       0.0  T
   2    -50.7356732 -0.224196E-05  0.521E-02    8.34       1.0  T
   3    -50.7356750 -0.171644E-05  0.850E-03    8.34       2.3  T
   4    -50.7356753 -0.311726E-06  0.219E-03    8.34       9.0  T
   5    -50.7356753 -0.607569E-08  0.997E-04    8.34      19.7  T
speedup  0.89
cpu  time for SCC    0.00 s
wall time for SCC    0.00 s
speedup  0.98
cpu  time for grad    0.01 s
wall time for grad    0.01 s
 E :    -50.45183472  G :  0.006376    pred/act E change: -0.200D-03 -0.130D-03
Maxdispl :   0.0656   ||displ|| :   0.1521   Lambda : -0.150D-03
Largest |displ|/coords:  0.0656 (   3)  0.0547 (   7)  0.0524 (  18)
................................................................................
.............................. CYCLE   30 ......................................
................................................................................
   1    -50.7352348 -0.507352E+02  0.100E-01    8.35       0.0  T
   2    -50.7352360 -0.119072E-05  0.755E-02    8.36       1.0  T
   3    -50.7352373 -0.129019E-05  0.591E-03    8.37       3.3  T
   4    -50.7352374 -0.105339E-06  0.217E-03    8.37       9.0  T
   5    -50.7352374 -0.461625E-08  0.903E-04    8.37      21.7  T
speedup  0.89
cpu  time for SCC    0.00 s
wall time for SCC    0.00 s
speedup  0.98
cpu  time for grad    0.01 s
wall time for grad    0.01 s
 E :    -50.45195742  G :  0.003348    pred/act E change: -0.112D-03 -0.123D-03
Maxdispl :   0.1337   ||displ|| :   0.3478   Lambda : -0.250D-03
Largest |displ|/coords:  0.1337 (   3)  0.1302 (  18)  0.1166 (   7)
................................................................................
.............................. CYCLE   31 ......................................
................................................................................
   1    -50.7319938 -0.507320E+02  0.257E-01    8.38       0.0  T
   2    -50.7320023 -0.846806E-05  0.194E-01    8.39       1.0  T
   3    -50.7320101 -0.783146E-05  0.156E-02    8.43       1.3  T
   4    -50.7320111 -0.983170E-06  0.444E-03    8.42       4.4  T
   5    -50.7320111 -0.151113E-07  0.244E-03    8.42       8.0  T
   6    -50.7320111 -0.648076E-08  0.692E-04    8.42      28.3  T
   7    -50.7320111 -0.180858E-08  0.216E-04    8.42      90.8  T
speedup  0.95
cpu  time for SCC    0.01 s
wall time for SCC    0.01 s
speedup  0.97
cpu  time for grad    0.01 s
wall time for grad    0.01 s
 E :    -50.45208832  G :  0.007792    pred/act E change: -0.769D-04 -0.131D-03
Maxdispl :   0.0423   ||displ|| :   0.0786   Lambda : -0.797D-04
Largest |displ|/coords:  0.0423 (   2)  0.0331 (   5)  0.0273 (   1)
................................................................................
.............................. CYCLE   32 ......................................
................................................................................
   1    -50.7328448 -0.507328E+02  0.416E-02    8.41       0.0  T
   2    -50.7328457 -0.862325E-06  0.310E-02    8.41       1.0  T
   3    -50.7328462 -0.550376E-06  0.541E-03    8.41       3.6  T
   4    -50.7328463 -0.109110E-06  0.163E-03    8.41      12.0  T
   5    -50.7328463 -0.587291E-08  0.549E-04    8.41      35.7  T
speedup  0.89
cpu  time for SCC    0.00 s
wall time for SCC    0.00 s
speedup  0.98
cpu  time for grad    0.01 s
wall time for grad    0.01 s
 E :    -50.45212818  G :  0.005395    pred/act E change: -0.140D-03 -0.399D-04
Maxdispl :   0.0690   ||displ|| :   0.1384   Lambda : -0.822D-04
Largest |displ|/coords:  0.0690 (   2)  0.0558 (   1)  0.0550 (   7)
................................................................................
.............................. CYCLE   33 ......................................
................................................................................
   1    -50.7325927 -0.507326E+02  0.801E-02    8.40       0.0  T
   2    -50.7325947 -0.197116E-05  0.605E-02    8.41       1.0  T
   3    -50.7325963 -0.163375E-05  0.800E-03    8.41       2.5  T
   4    -50.7325965 -0.248715E-06  0.276E-03    8.41       7.1  T
   5    -50.7325966 -0.153276E-07  0.905E-04    8.41      21.7  T
speedup  1.14
cpu  time for SCC    0.01 s
wall time for SCC    0.00 s
speedup  0.98
cpu  time for grad    0.01 s
wall time for grad    0.01 s
 E :    -50.45214946  G :  0.005732    pred/act E change: -0.401D-04 -0.213D-04
Maxdispl :   0.0564   ||displ|| :   0.1349   Lambda : -0.760D-04
Largest |displ|/coords:  0.0564 (   3)  0.0548 (   1)  0.0486 (   5)
................................................................................
.............................. CYCLE   34 ......................................
................................................................................
   1    -50.7315095 -0.507315E+02  0.987E-02    8.40       0.0  T
   2    -50.7315112 -0.175161E-05  0.746E-02    8.41       1.0  T
   3    -50.7315128 -0.159116E-05  0.706E-03    8.41       2.8  T
   4    -50.7315130 -0.212353E-06  0.177E-03    8.41      11.1  T
   5    -50.7315130 -0.230477E-08  0.102E-03    8.41      19.3  T
speedup  0.89
cpu  time for SCC    0.00 s
wall time for SCC    0.00 s
speedup  0.98
cpu  time for grad    0.01 s
wall time for grad    0.01 s
 E :    -50.45219206  G :  0.003582    pred/act E change: -0.419D-04 -0.426D-04
Maxdispl :   0.0283   ||displ|| :   0.0558   Lambda : -0.342D-04
Largest |displ|/coords:  0.0283 (   2)  0.0250 (   1)  0.0192 (   5)
................................................................................
.............................. CYCLE   35 ......................................
................................................................................
   1    -50.7324644 -0.507325E+02  0.336E-02    8.41       0.0  T
   2    -50.7324649 -0.421579E-06  0.253E-02    8.41       1.0  T
   3    -50.7324652 -0.352483E-06  0.387E-03    8.41       5.1  T
   4    -50.7324653 -0.528848E-07  0.858E-04    8.41      22.9  T
   5    -50.7324653 -0.100015E-08  0.409E-04    8.41      47.9  T
speedup  0.85
cpu  time for SCC    0.00 s
wall time for SCC    0.00 s
speedup  0.93
cpu  time for grad    0.01 s
wall time for grad    0.01 s
 E :    -50.45221325  G :  0.003505    pred/act E change: -0.387D-04 -0.212D-04
Maxdispl :   0.0632   ||displ|| :   0.1300   Lambda : -0.409D-04
Largest |displ|/coords:  0.0632 (   1)  0.0592 (   2)  0.0551 (   5)
................................................................................
.............................. CYCLE   36 ......................................
................................................................................
   1    -50.7323400 -0.507323E+02  0.672E-02    8.40       0.0  T
   2    -50.7323406 -0.678697E-06  0.505E-02    8.40       1.0  T
   3    -50.7323412 -0.579665E-06  0.555E-03    8.40       3.5  T
   4    -50.7323413 -0.773035E-07  0.197E-03    8.40      10.0  T
   5    -50.7323413 -0.440679E-08  0.516E-04    8.40      38.0  T
   6    -50.7323413 -0.230386E-09  0.320E-04    8.40      61.2  T
speedup  1.11
cpu  time for SCC    0.01 s
wall time for SCC    0.01 s
speedup  1.02
cpu  time for grad    0.01 s
wall time for grad    0.01 s
 E :    -50.45224023  G :  0.004034    pred/act E change: -0.171D-04 -0.270D-04
Maxdispl :   0.0704   ||displ|| :   0.1258   Lambda : -0.357D-04
Largest |displ|/coords:  0.0704 (   2)  0.0653 (   1)  0.0436 (   5)
................................................................................
.............................. CYCLE   37 ......................................
................................................................................
   1    -50.7328308 -0.507328E+02  0.582E-02    8.40       0.0  T
   2    -50.7328314 -0.579183E-06  0.437E-02    8.40       1.0  T
   3    -50.7328319 -0.491491E-06  0.514E-03    8.39       3.8  T
   4    -50.7328320 -0.684978E-07  0.202E-03    8.39       9.7  T
   5    -50.7328320 -0.351850E-08  0.445E-04    8.39      44.1  T
speedup  1.11
cpu  time for SCC    0.00 s
wall time for SCC    0.00 s
speedup  0.98
cpu  time for grad    0.01 s
wall time for grad    0.01 s
 E :    -50.45226230  G :  0.003364    pred/act E change: -0.208D-04 -0.221D-04
Maxdispl :   0.0813   ||displ|| :   0.1515   Lambda : -0.281D-04
Largest |displ|/coords:  0.0813 (   1)  0.0779 (   2)  0.0510 (   6)
................................................................................
.............................. CYCLE   38 ......................................
................................................................................
   1    -50.7324170 -0.507324E+02  0.727E-02    8.40       0.0  T
   2    -50.7324179 -0.917270E-06  0.548E-02    8.40       1.0  T
   3    -50.7324186 -0.718700E-06  0.552E-03    8.40       3.6  T
   4    -50.7324188 -0.121402E-06  0.211E-03    8.40       9.3  T
   5    -50.7324188 -0.528096E-08  0.575E-04    8.40      34.1  T
   6    -50.7324188 -0.231182E-09  0.332E-04    8.40      59.1  T
speedup  0.94
cpu  time for SCC    0.01 s
wall time for SCC    0.01 s
speedup  1.03
cpu  time for grad    0.01 s
wall time for grad    0.01 s
 E :    -50.45228144  G :  0.002634    pred/act E change: -0.181D-04 -0.191D-04
Maxdispl :   0.0733   ||displ|| :   0.1353   Lambda : -0.323D-04
Largest |displ|/coords:  0.0733 (   1)  0.0699 (   2)  0.0398 (   5)
................................................................................
.............................. CYCLE   39 ......................................
................................................................................
   1    -50.7328289 -0.507328E+02  0.663E-02    8.42       0.0  T
   2    -50.7328298 -0.859278E-06  0.499E-02    8.42       1.0  T
   3    -50.7328303 -0.586374E-06  0.525E-03    8.41       3.7  T
   4    -50.7328305 -0.134139E-06  0.208E-03    8.41       9.4  T
   5    -50.7328305 -0.501934E-08  0.544E-04    8.41      36.0  T
   6    -50.7328305 -0.286100E-09  0.314E-04    8.41      62.4  T
speedup  1.13
cpu  time for SCC    0.01 s
wall time for SCC    0.01 s
speedup  1.03
cpu  time for grad    0.01 s
wall time for grad    0.01 s
 E :    -50.45230418  G :  0.002074    pred/act E change: -0.144D-04 -0.227D-04
Maxdispl :   0.0925   ||displ|| :   0.1806   Lambda : -0.302D-04
Largest |displ|/coords:  0.0925 (   1)  0.0870 (   2)  0.0722 (   3)
................................................................................
.............................. CYCLE   40 ......................................
................................................................................
   1    -50.7324607 -0.507325E+02  0.869E-02    8.42       0.0  T
   2    -50.7324619 -0.117249E-05  0.654E-02    8.42       1.0  T
   3    -50.7324629 -0.988418E-06  0.628E-03    8.41       3.1  T
   4    -50.7324631 -0.153177E-06  0.237E-03    8.41       8.3  T
   5    -50.7324631 -0.565147E-08  0.713E-04    8.41      27.5  T
   6    -50.7324631 -0.459245E-09  0.375E-04    8.41      52.3  T
speedup  1.09
cpu  time for SCC    0.01 s
wall time for SCC    0.01 s
speedup  0.99
cpu  time for grad    0.01 s
wall time for grad    0.01 s
 E :    -50.45232398  G :  0.002328    pred/act E change: -0.165D-04 -0.198D-04
Maxdispl :   0.0644   ||displ|| :   0.1199   Lambda : -0.341D-04
Largest |displ|/coords:  0.0644 (   3)  0.0556 (   1)  0.0440 (   2)
................................................................................
.............................. CYCLE   41 ......................................
................................................................................
   1    -50.7338961 -0.507339E+02  0.762E-02    8.43       0.0  T
   2    -50.7338972 -0.113943E-05  0.575E-02    8.42       1.0  T
   3    -50.7338980 -0.821454E-06  0.633E-03    8.41       3.1  T
   4    -50.7338982 -0.174556E-06  0.192E-03    8.41      10.2  T
   5    -50.7338982 -0.618222E-08  0.708E-04    8.41      27.7  T
   6    -50.7338982 -0.379941E-09  0.386E-04    8.41      50.8  T
speedup  0.93
cpu  time for SCC    0.01 s
wall time for SCC    0.01 s
speedup  0.96
cpu  time for grad    0.01 s
wall time for grad    0.01 s
 E :    -50.45233750  G :  0.003340    pred/act E change: -0.156D-04 -0.135D-04
Maxdispl :   0.0766   ||displ|| :   0.1612   Lambda : -0.295D-04
Largest |displ|/coords:  0.0766 (   1)  0.0743 (   3)  0.0672 (   2)
................................................................................
.............................. CYCLE   42 ......................................
................................................................................
   1    -50.7329797 -0.507330E+02  0.764E-02    8.39       0.0  T
   2    -50.7329804 -0.767914E-06  0.574E-02    8.40       1.0  T
   3    -50.7329812 -0.705187E-06  0.540E-03    8.40       3.6  T
   4    -50.7329812 -0.886141E-07  0.185E-03    8.40      10.6  T
   5    -50.7329812 -0.346150E-08  0.649E-04    8.40      30.2  T
   6    -50.7329812 -0.497565E-09  0.312E-04    8.40      62.9  T
speedup  0.89
cpu  time for SCC    0.00 s
wall time for SCC    0.01 s
speedup  0.94
cpu  time for grad    0.01 s
wall time for grad    0.01 s
 E :    -50.45235449  G :  0.002538    pred/act E change: -0.173D-04 -0.170D-04
Maxdispl :   0.0415   ||displ|| :   0.0636   Lambda : -0.207D-04
Largest |displ|/coords:  0.0415 (   3)  0.0299 (   5)  0.0224 (   2)
................................................................................
.............................. CYCLE   43 ......................................
................................................................................
   1    -50.7329552 -0.507330E+02  0.322E-02    8.38       0.0  T
   2    -50.7329555 -0.286968E-06  0.241E-02    8.38       1.0  T
   3    -50.7329556 -0.176371E-06  0.309E-03    8.39       6.3  T
   4    -50.7329557 -0.454940E-07  0.110E-03    8.39      17.8  T
   5    -50.7329557 -0.173957E-08  0.380E-04    8.38      51.6  T
   6    -50.7329557 -0.196898E-09  0.222E-04    8.38      88.2  T
speedup  0.93
cpu  time for SCC    0.00 s
wall time for SCC    0.01 s
speedup  1.02
cpu  time for grad    0.01 s
wall time for grad    0.01 s
 E :    -50.45236776  G :  0.002010    pred/act E change: -0.151D-04 -0.133D-04
Maxdispl :   0.0585   ||displ|| :   0.1044   Lambda : -0.204D-04
Largest |displ|/coords:  0.0585 (   3)  0.0499 (   2)  0.0348 (   1)
................................................................................
.............................. CYCLE   44 ......................................
................................................................................
   1    -50.7332980 -0.507333E+02  0.646E-02    8.38       0.0  T
   2    -50.7332985 -0.498913E-06  0.485E-02    8.38       1.0  T
   3    -50.7332989 -0.391381E-06  0.422E-03    8.38       4.7  T
   4    -50.7332990 -0.679798E-07  0.120E-03    8.38      16.4  T
   5    -50.7332990 -0.121751E-08  0.559E-04    8.38      35.1  T
   6    -50.7332990 -0.382514E-09  0.260E-04    8.38      75.5  T
speedup  1.11
cpu  time for SCC    0.01 s
wall time for SCC    0.01 s
speedup  1.02
cpu  time for grad    0.01 s
wall time for grad    0.01 s
 E :    -50.45237471  G :  0.002534    pred/act E change: -0.104D-04 -0.695D-05
Maxdispl :   0.0237   ||displ|| :   0.0453   Lambda : -0.122D-04
Largest |displ|/coords:  0.0237 (   2)  0.0233 (   3)  0.0141 (   7)
................................................................................
.............................. CYCLE   45 ......................................
................................................................................
   1    -50.7337285 -0.507337E+02  0.192E-02    8.39       0.0  T
   2    -50.7337285 -0.724998E-07  0.144E-02    8.39       1.4  T
   3    -50.7337286 -0.543249E-07  0.153E-03    8.39      12.8  T
   4    -50.7337286 -0.114986E-07  0.470E-04    8.39      41.7  T
   5    -50.7337286 -0.270433E-09  0.175E-04    8.39     111.8  T
speedup  0.89
cpu  time for SCC    0.00 s
wall time for SCC    0.00 s
speedup  1.01
cpu  time for grad    0.01 s
wall time for grad    0.01 s
 E :    -50.45238164  G :  0.001391    pred/act E change: -0.103D-04 -0.693D-05
Maxdispl :   0.0602   ||displ|| :   0.0915   Lambda : -0.837D-05
Largest |displ|/coords:  0.0602 (   2)  0.0340 (   5)  0.0329 (   3)
................................................................................
.............................. CYCLE   46 ......................................
................................................................................
   1    -50.7333746 -0.507334E+02  0.351E-02    8.39       0.0  T
   2    -50.7333748 -0.159668E-06  0.265E-02    8.39       1.0  T
   3    -50.7333749 -0.133122E-06  0.234E-03    8.39       8.4  T
   4    -50.7333749 -0.212181E-07  0.810E-04    8.39      24.2  T
   5    -50.7333749 -0.687329E-09  0.277E-04    8.39      70.7  T
speedup  1.06
cpu  time for SCC    0.00 s
wall time for SCC    0.00 s
speedup  1.00
cpu  time for grad    0.01 s
wall time for grad    0.01 s
 E :    -50.45238729  G :  0.001137    pred/act E change: -0.613D-05 -0.565D-05
Maxdispl :   0.0932   ||displ|| :   0.1230   Lambda : -0.127D-04
Largest |displ|/coords:  0.0932 (   2)  0.0418 (   3)  0.0329 (   5)
................................................................................
.............................. CYCLE   47 ......................................
................................................................................
   1    -50.7336117 -0.507336E+02  0.425E-02    8.40       0.0  T
   2    -50.7336118 -0.154869E-06  0.319E-02    8.40       1.0  T
   3    -50.7336120 -0.175311E-06  0.238E-03    8.40       8.2  T
   4    -50.7336120 -0.110154E-07  0.739E-04    8.40      26.6  T
   5    -50.7336120 -0.531308E-09  0.373E-04    8.40      52.6  T
speedup  1.11
cpu  time for SCC    0.00 s
wall time for SCC    0.00 s
speedup  1.02
cpu  time for grad    0.01 s
wall time for grad    0.01 s
 E :    -50.45239509  G :  0.001239    pred/act E change: -0.422D-05 -0.780D-05
Maxdispl :   0.1307   ||displ|| :   0.1820   Lambda : -0.102D-04
Largest |displ|/coords:  0.1307 (   2)  0.0693 (   3)  0.0610 (   5)
................................................................................
.............................. CYCLE   48 ......................................
................................................................................
   1    -50.7332579 -0.507333E+02  0.842E-02    8.40       0.0  T
   2    -50.7332584 -0.488136E-06  0.634E-02    8.40       1.0  T
   3    -50.7332590 -0.588041E-06  0.403E-03    8.40       4.9  T
   4    -50.7332590 -0.225969E-07  0.154E-03    8.40      12.7  T
   5    -50.7332590 -0.185843E-08  0.553E-04    8.40      35.4  T
   6    -50.7332590 -0.318053E-09  0.264E-04    8.40      74.3  T
speedup  0.91
cpu  time for SCC    0.00 s
wall time for SCC    0.01 s
speedup  1.01
cpu  time for grad    0.01 s
wall time for grad    0.01 s
 E :    -50.45239846  G :  0.002656    pred/act E change: -0.644D-05 -0.337D-05
Maxdispl :   0.0304   ||displ|| :   0.0475   Lambda : -0.102D-04
Largest |displ|/coords:  0.0304 (   1)  0.0241 (   3)  0.0103 (  11)
................................................................................
.............................. CYCLE   49 ......................................
................................................................................
   1    -50.7339578 -0.507340E+02  0.242E-02    8.40       0.0  T
   2    -50.7339579 -0.161566E-06  0.182E-02    8.40       1.1  T
   3    -50.7339581 -0.120830E-06  0.257E-03    8.40       7.6  T
   4    -50.7339581 -0.224210E-07  0.728E-04    8.40      26.9  T
   5    -50.7339581 -0.990049E-09  0.270E-04    8.40      72.5  T
speedup  1.09
cpu  time for SCC    0.00 s
wall time for SCC    0.00 s
speedup  1.01
cpu  time for grad    0.01 s
wall time for grad    0.01 s
 E :    -50.45240435  G :  0.001829    pred/act E change: -0.527D-05 -0.589D-05
Maxdispl :   0.0585   ||displ|| :   0.0726   Lambda : -0.708D-05
Largest |displ|/coords:  0.0585 (   2)  0.0214 (   5)  0.0144 (   4)
................................................................................
.............................. CYCLE   50 ......................................
................................................................................
   1    -50.7338434 -0.507338E+02  0.279E-02    8.40       0.0  T
   2    -50.7338435 -0.982618E-07  0.210E-02    8.40       1.0  T
   3    -50.7338435 -0.874951E-07  0.187E-03    8.40      10.5  T
   4    -50.7338436 -0.108389E-07  0.756E-04    8.40      25.9  T
   5    -50.7338436 -0.574566E-09  0.220E-04    8.40      89.1  T
speedup  0.89
cpu  time for SCC    0.00 s
wall time for SCC    0.00 s
speedup  0.94
cpu  time for grad    0.01 s
wall time for grad    0.01 s
 E :    -50.45240932  G :  0.001364    pred/act E change: -0.513D-05 -0.497D-05
Maxdispl :   0.1238   ||displ|| :   0.1497   Lambda : -0.900D-05
Largest |displ|/coords:  0.1238 (   2)  0.0468 (   5)  0.0390 (   3)
................................................................................
.............................. CYCLE   51 ......................................
................................................................................
   1    -50.7337680 -0.507338E+02  0.616E-02    8.39       0.0  T
   2    -50.7337683 -0.293477E-06  0.463E-02    8.39       1.0  T
   3    -50.7337687 -0.313198E-06  0.308E-03    8.39       6.4  T
   4    -50.7337687 -0.227187E-07  0.138E-03    8.39      14.3  T
   5    -50.7337687 -0.135784E-08  0.393E-04    8.39      49.9  T
   6    -50.7337687 -0.233506E-09  0.192E-04    8.39     102.0  T
speedup  1.11
cpu  time for SCC    0.01 s
wall time for SCC    0.01 s
speedup  1.01
cpu  time for grad    0.01 s
wall time for grad    0.01 s
 E :    -50.45241538  G :  0.001240    pred/act E change: -0.356D-05 -0.606D-05
Maxdispl :   0.0924   ||displ|| :   0.1065   Lambda : -0.536D-05
Largest |displ|/coords:  0.0924 (   2)  0.0270 (   5)  0.0254 (   3)
................................................................................
.............................. CYCLE   52 ......................................
................................................................................
   1    -50.7335899 -0.507336E+02  0.405E-02    8.39       0.0  T
   2    -50.7335900 -0.171632E-06  0.304E-02    8.39       1.0  T
   3    -50.7335902 -0.168323E-06  0.226E-03    8.39       8.7  T
   4    -50.7335902 -0.163270E-07  0.112E-03    8.39      17.6  T
   5    -50.7335902 -0.816762E-09  0.261E-04    8.39      75.2  T
   6    -50.7335902 -0.111868E-09  0.144E-04    8.39     136.4  T
speedup  0.93
cpu  time for SCC    0.00 s
wall time for SCC    0.01 s
speedup  1.02
cpu  time for grad    0.01 s
wall time for grad    0.01 s
 E :    -50.45241922  G :  0.001286    pred/act E change: -0.460D-05 -0.384D-05
Maxdispl :   0.0984   ||displ|| :   0.1114   Lambda : -0.696D-05
Largest |displ|/coords:  0.0984 (   2)  0.0241 (   5)  0.0237 (   3)

generating ANC from model Hessian ...
 Shifting diagonal of input Hessian by   5.093810557417990E-003
 Lowest  eigenvalues of input Hessian
    0.005000   -0.000000   -0.000000   -0.000000   -0.000000    0.000000
    0.000000    0.005236    0.005463    0.005878    0.005935    0.006550
    0.006763    0.006918    0.007122    0.007463    0.008287    0.009052
 Highest eigenvalues
    1.403858    1.405377    1.407712    2.827864    3.319935    3.673981
 
cpu  time for ANC gen    0.01 s
wall time for ANC gen    0.01 s
................................................................................
.............................. CYCLE   53 ......................................
................................................................................
   1    -50.7337157 -0.507337E+02  0.368E-02    8.39       0.0  T
   2    -50.7337159 -0.185962E-06  0.275E-02    8.39       1.0  T
   3    -50.7337160 -0.145034E-06  0.252E-03    8.39       7.8  T
   4    -50.7337160 -0.236346E-07  0.121E-03    8.39      16.1  T
   5    -50.7337160 -0.110114E-08  0.283E-04    8.39      69.4  T
   6    -50.7337160 -0.109466E-09  0.176E-04    8.39     111.5  T
speedup  0.93
cpu  time for SCC    0.00 s
wall time for SCC    0.01 s
speedup  1.02
cpu  time for grad    0.01 s
wall time for grad    0.01 s
 E :    -50.45242369  G :  0.001442    pred/act E change:  0.000D+00 -0.447D-05
Maxdispl :   0.0122   ||displ|| :   0.0280   Lambda : -0.102D-04
Largest |displ|/coords:  0.0122 (   2)  0.0111 (   8)  0.0081 (   3)
................................................................................
.............................. CYCLE   54 ......................................
................................................................................
   1    -50.7338113 -0.507338E+02  0.298E-02    8.40       0.0  T
   2    -50.7338114 -0.768867E-07  0.226E-02    8.40       1.0  T
   3    -50.7338115 -0.911140E-07  0.140E-03    8.40      14.0  T
   4    -50.7338115 -0.501678E-08  0.615E-04    8.40      31.9  T
   5    -50.7338115 -0.267349E-09  0.204E-04    8.40      96.2  T
speedup  1.06
cpu  time for SCC    0.01 s
wall time for SCC    0.00 s
speedup  1.00
cpu  time for grad    0.01 s
wall time for grad    0.01 s
 E :    -50.45243125  G :  0.000830    pred/act E change:  0.000D+00 -0.755D-05
Maxdispl :   0.0296   ||displ|| :   0.0557   Lambda : -0.121D-04
Largest |displ|/coords:  0.0296 (   3)  0.0235 (   2)  0.0168 (   6)
................................................................................
.............................. CYCLE   55 ......................................
................................................................................
   1    -50.7338685 -0.507339E+02  0.536E-02    8.40       0.0  T
   2    -50.7338686 -0.159932E-06  0.404E-02    8.40       1.0  T
   3    -50.7338688 -0.205778E-06  0.210E-03    8.40       9.3  T
   4    -50.7338688 -0.613398E-08  0.774E-04    8.40      25.3  T
   5    -50.7338688 -0.452417E-09  0.320E-04    8.40      61.3  T
speedup  0.89
cpu  time for SCC    0.00 s
wall time for SCC    0.00 s
speedup  1.01
cpu  time for grad    0.01 s
wall time for grad    0.01 s
 E :    -50.45243861  G :  0.001247    pred/act E change: -0.513D-05 -0.737D-05
Maxdispl :   0.0261   ||displ|| :   0.0399   Lambda : -0.473D-05
Largest |displ|/coords:  0.0261 (   3)  0.0187 (   2)  0.0105 (   6)
................................................................................
.............................. CYCLE   56 ......................................
................................................................................
   1    -50.7339078 -0.507339E+02  0.283E-02    8.40       0.0  T
   2    -50.7339079 -0.407095E-07  0.213E-02    8.40       1.0  T
   3    -50.7339079 -0.492533E-07  0.117E-03    8.40      16.7  T
   4    -50.7339079 -0.226264E-08  0.452E-04    8.40      43.4  T
   5    -50.7339079 -0.178133E-09  0.188E-04    8.40     104.2  T
speedup  1.14
cpu  time for SCC    0.01 s
wall time for SCC    0.00 s
speedup  1.02
cpu  time for grad    0.01 s
wall time for grad    0.01 s
 E :    -50.45244256  G :  0.001142    pred/act E change: -0.608D-05 -0.394D-05
Maxdispl :   0.0849   ||displ|| :   0.1236   Lambda : -0.129D-04
Largest |displ|/coords:  0.0849 (   3)  0.0613 (   2)  0.0331 (   6)
................................................................................
.............................. CYCLE   57 ......................................
................................................................................
   1    -50.7339170 -0.507339E+02  0.738E-02    8.41       0.0  T
   2    -50.7339174 -0.356589E-06  0.554E-02    8.40       1.0  T
   3    -50.7339178 -0.421591E-06  0.343E-03    8.40       5.7  T
   4    -50.7339178 -0.238144E-07  0.146E-03    8.40      13.5  T
   5    -50.7339178 -0.214892E-08  0.537E-04    8.40      36.5  T
   6    -50.7339178 -0.317137E-09  0.226E-04    8.40      86.8  T
speedup  0.94
cpu  time for SCC    0.00 s
wall time for SCC    0.01 s
speedup  1.03
cpu  time for grad    0.01 s
wall time for grad    0.01 s
 E :    -50.45245161  G :  0.001109    pred/act E change: -0.237D-05 -0.906D-05
Maxdispl :   0.0911   ||displ|| :   0.1310   Lambda : -0.103D-04
Largest |displ|/coords:  0.0911 (   3)  0.0693 (   2)  0.0267 (   1)
................................................................................
.............................. CYCLE   58 ......................................
................................................................................
   1    -50.7338980 -0.507339E+02  0.648E-02    8.40       0.0  T
   2    -50.7338983 -0.352396E-06  0.488E-02    8.40       1.0  T
   3    -50.7338987 -0.385806E-06  0.336E-03    8.40       5.8  T
   4    -50.7338987 -0.313364E-07  0.154E-03    8.40      12.8  T
   5    -50.7338987 -0.255189E-08  0.477E-04    8.40      41.1  T
   6    -50.7338987 -0.238757E-09  0.223E-04    8.40      87.8  T
speedup  1.13
cpu  time for SCC    0.01 s
wall time for SCC    0.01 s
speedup  1.03
cpu  time for grad    0.01 s
wall time for grad    0.01 s
 E :    -50.45245957  G :  0.001271    pred/act E change: -0.652D-05 -0.796D-05
Maxdispl :   0.1348   ||displ|| :   0.2003   Lambda : -0.149D-04
Largest |displ|/coords:  0.1348 (   3)  0.1141 (   2)  0.0491 (   1)
................................................................................
.............................. CYCLE   59 ......................................
................................................................................
   1    -50.7338331 -0.507338E+02  0.875E-02    8.40       0.0  T
   2    -50.7338338 -0.737472E-06  0.659E-02    8.40       1.0  T
   3    -50.7338346 -0.800668E-06  0.473E-03    8.39       4.1  T
   4    -50.7338347 -0.692140E-07  0.226E-03    8.39       8.7  T
   5    -50.7338347 -0.561047E-08  0.676E-04    8.39      29.0  T
   6    -50.7338347 -0.518739E-09  0.335E-04    8.39      58.6  T
speedup  0.91
cpu  time for SCC    0.00 s
wall time for SCC    0.01 s
speedup  0.95
cpu  time for grad    0.01 s
wall time for grad    0.01 s
 E :    -50.45247039  G :  0.001391    pred/act E change: -0.526D-05 -0.108D-04
Maxdispl :   0.1109   ||displ|| :   0.1804   Lambda : -0.157D-04
Largest |displ|/coords:  0.1109 (   3)  0.1108 (   2)  0.0524 (   1)
................................................................................
.............................. CYCLE   60 ......................................
................................................................................
   1    -50.7341513 -0.507342E+02  0.594E-02    8.39       0.0  T
   2    -50.7341519 -0.565941E-06  0.448E-02    8.39       1.0  T
   3    -50.7341524 -0.539187E-06  0.430E-03    8.38       4.6  T
   4    -50.7341525 -0.706701E-07  0.201E-03    8.38       9.8  T
   5    -50.7341525 -0.506274E-08  0.568E-04    8.38      34.5  T
   6    -50.7341525 -0.429168E-09  0.319E-04    8.38      61.4  T
speedup  0.93
cpu  time for SCC    0.00 s
wall time for SCC    0.01 s
speedup  1.01
cpu  time for grad    0.01 s
wall time for grad    0.01 s
 E :    -50.45248002  G :  0.001722    pred/act E change: -0.774D-05 -0.963D-05
Maxdispl :   0.2047   ||displ|| :   0.3221   Lambda : -0.196D-04
Largest |displ|/coords:  0.2047 (   2)  0.1976 (   3)  0.0901 (   1)
................................................................................
.............................. CYCLE   61 ......................................
................................................................................
   1    -50.7331314 -0.507331E+02  0.139E-01    8.38       0.0  T
   2    -50.7331334 -0.198698E-05  0.105E-01    8.38       1.0  T
   3    -50.7331354 -0.201123E-05  0.770E-03    8.37       2.5  T
   4    -50.7331356 -0.204934E-06  0.336E-03    8.37       5.8  T
   5    -50.7331357 -0.140477E-07  0.120E-03    8.37      16.3  T
   6    -50.7331357 -0.149636E-08  0.602E-04    8.37      32.6  T
   7    -50.7331357 -0.979881E-09  0.119E-04    8.37     164.6  T
speedup  0.97
cpu  time for SCC    0.01 s
wall time for SCC    0.01 s
speedup  0.97
cpu  time for grad    0.01 s
wall time for grad    0.01 s
 E :    -50.45247478  G :  0.004854    pred/act E change: -0.808D-05  0.524D-05
Maxdispl :   0.1039   ||displ|| :   0.1404   Lambda : -0.430D-04
Largest |displ|/coords:  0.1039 (   3)  0.0668 (   2)  0.0282 (   6)
................................................................................
.............................. CYCLE   62 ......................................
................................................................................
   1    -50.7342967 -0.507343E+02  0.745E-02    8.38       0.0  T
   2    -50.7342973 -0.612493E-06  0.561E-02    8.38       1.0  T
   3    -50.7342978 -0.549757E-06  0.429E-03    8.38       4.6  T
   4    -50.7342979 -0.709314E-07  0.163E-03    8.38      12.1  T
   5    -50.7342979 -0.335230E-08  0.635E-04    8.38      30.9  T
speedup  0.89
cpu  time for SCC    0.00 s
wall time for SCC    0.00 s
speedup  0.98
cpu  time for grad    0.01 s
wall time for grad    0.01 s
 E :    -50.45249493  G :  0.001241    pred/act E change: -0.108D-04 -0.202D-04
Maxdispl :   0.0684   ||displ|| :   0.0938   Lambda : -0.964D-05
Largest |displ|/coords:  0.0684 (   2)  0.0339 (   1)  0.0316 (   3)
................................................................................
.............................. CYCLE   63 ......................................
................................................................................
   1    -50.7342319 -0.507342E+02  0.316E-02    8.38       0.0  T
   2    -50.7342320 -0.121809E-06  0.238E-02    8.38       1.0  T
   3    -50.7342322 -0.153558E-06  0.207E-03    8.38       9.5  T
   4    -50.7342322 -0.907529E-08  0.933E-04    8.38      21.0  T
   5    -50.7342322 -0.117981E-08  0.259E-04    8.38      75.7  T
speedup  1.11
cpu  time for SCC    0.00 s
wall time for SCC    0.00 s
speedup  1.02
cpu  time for grad    0.01 s
wall time for grad    0.01 s
 E :    -50.45250392  G :  0.001247    pred/act E change: -0.219D-04 -0.899D-05
Maxdispl :   0.4764   ||displ|| :   0.6337   Lambda : -0.671D-04
Largest |displ|/coords:  0.4764 (   2)  0.2301 (   1)  0.2027 (   4)
................................................................................
.............................. CYCLE   64 ......................................
................................................................................
   1    -50.7323130 -0.507323E+02  0.214E-01    8.37       0.0  T
   2    -50.7323182 -0.515360E-05  0.161E-01    8.37       1.0  T
   3    -50.7323247 -0.646448E-05  0.135E-02    8.36       1.5  T
   4    -50.7323250 -0.382748E-06  0.601E-03    8.36       3.3  T
   5    -50.7323251 -0.505396E-07  0.198E-03    8.36       9.9  T
   6    -50.7323251 -0.567829E-08  0.909E-04    8.36      21.6  T
   7    -50.7323251 -0.177236E-08  0.194E-04    8.36     101.0  T
speedup  0.95
cpu  time for SCC    0.01 s
wall time for SCC    0.01 s
speedup  1.03
cpu  time for grad    0.01 s
wall time for grad    0.01 s
 E :    -50.45254958  G :  0.004235    pred/act E change: -0.486D-05 -0.457D-04
Maxdispl :   0.1697   ||displ|| :   0.2257   Lambda : -0.419D-04
Largest |displ|/coords:  0.1697 (   2)  0.0816 (   1)  0.0679 (   4)
................................................................................
.............................. CYCLE   65 ......................................
................................................................................
   1    -50.7325354 -0.507325E+02  0.743E-02    8.37       0.0  T
   2    -50.7325361 -0.645725E-06  0.558E-02    8.37       1.0  T
   3    -50.7325368 -0.737383E-06  0.534E-03    8.37       3.7  T
   4    -50.7325369 -0.587587E-07  0.201E-03    8.37       9.8  T
   5    -50.7325369 -0.573735E-08  0.681E-04    8.37      28.8  T
speedup  1.11
cpu  time for SCC    0.00 s
wall time for SCC    0.00 s
speedup  0.97
cpu  time for grad    0.01 s
wall time for grad    0.01 s
 E :    -50.45258042  G :  0.003785    pred/act E change: -0.470D-04 -0.308D-04
Maxdispl :   0.3082   ||displ|| :   0.3966   Lambda : -0.606D-04
Largest |displ|/coords:  0.3082 (   2)  0.1459 (   1)  0.1152 (   4)
................................................................................
.............................. CYCLE   66 ......................................
[...]
................................................................................
   1    -50.7369720 -0.507370E+02  0.180E-02    8.29       0.0  T
   2    -50.7369721 -0.119287E-06  0.137E-02    8.29       1.4  T
   3    -50.7369722 -0.894669E-07  0.180E-03    8.28      10.9  T
   4    -50.7369722 -0.191219E-07  0.530E-04    8.28      37.0  T
   5    -50.7369722 -0.429722E-09  0.229E-04    8.28      85.8  T
speedup  0.89
cpu  time for SCC    0.00 s
wall time for SCC    0.00 s
speedup  0.99
cpu  time for grad    0.01 s
wall time for grad    0.01 s
 E :    -50.45439209  G :  0.001477    pred/act E change: -0.160D-04 -0.725D-05
Maxdispl :   0.0387   ||displ|| :   0.0630   Lambda : -0.871D-05
Largest |displ|/coords:  0.0387 (   2)  0.0284 (   1)  0.0254 (   4)
................................................................................
.............................. CYCLE   94 ......................................
................................................................................
   1    -50.7368946 -0.507369E+02  0.269E-02    8.28       0.0  T
   2    -50.7368947 -0.139102E-06  0.203E-02    8.28       1.0  T
   3    -50.7368948 -0.104059E-06  0.207E-03    8.28       9.5  T
   4    -50.7368949 -0.214631E-07  0.770E-04    8.28      25.5  T
   5    -50.7368949 -0.870997E-09  0.227E-04    8.28      86.3  T
speedup  0.87
cpu  time for SCC    0.00 s
wall time for SCC    0.00 s
speedup  0.98
cpu  time for grad    0.01 s
wall time for grad    0.01 s
 E :    -50.45439841  G :  0.000765    pred/act E change: -0.611D-05 -0.631D-05
Maxdispl :   0.0602   ||displ|| :   0.0991   Lambda : -0.693D-05
Largest |displ|/coords:  0.0602 (   2)  0.0486 (   1)  0.0344 (   4)
................................................................................
.............................. CYCLE   95 ......................................
................................................................................
   1    -50.7366300 -0.507366E+02  0.414E-02    8.28       0.0  T
   2    -50.7366304 -0.355194E-06  0.313E-02    8.28       1.0  T
   3    -50.7366306 -0.248842E-06  0.351E-03    8.29       5.6  T
   4    -50.7366307 -0.581847E-07  0.118E-03    8.29      16.6  T
   5    -50.7366307 -0.204074E-08  0.356E-04    8.29      55.1  T
   6    -50.7366307 -0.118170E-09  0.198E-04    8.29      99.2  T
speedup  0.93
cpu  time for SCC    0.00 s
wall time for SCC    0.01 s
speedup  1.00
cpu  time for grad    0.01 s
wall time for grad    0.01 s
 E :    -50.45440229  G :  0.000714    pred/act E change: -0.437D-05 -0.389D-05
Maxdispl :   0.0116   ||displ|| :   0.0246   Lambda : -0.206D-05
Largest |displ|/coords:  0.0116 (   2)  0.0086 (   4)  0.0086 (   9)
................................................................................
.............................. CYCLE   96 ......................................
................................................................................
   1    -50.7367585 -0.507368E+02  0.858E-03    8.29       0.0  T
   2    -50.7367585 -0.276537E-07  0.638E-03    8.29       3.1  T
   3    -50.7367585 -0.148865E-07  0.112E-03    8.29      17.4  T
   4    -50.7367585 -0.391270E-08  0.264E-04    8.29      74.3  T
   5    -50.7367585 -0.192081E-09  0.906E-05    8.29     216.5  T
speedup  1.11
cpu  time for SCC    0.00 s
wall time for SCC    0.00 s
speedup  0.99
cpu  time for grad    0.01 s
wall time for grad    0.01 s
 E :    -50.45440354  G :  0.000449    pred/act E change: -0.350D-05 -0.125D-05
Maxdispl :   0.0070   ||displ|| :   0.0153   Lambda : -0.100D-05
Largest |displ|/coords:  0.0070 (   2)  0.0055 (   1)  0.0055 (   9)
................................................................................
.............................. CYCLE   97 ......................................
................................................................................
   1    -50.7367270 -0.507367E+02  0.580E-03    8.29       0.0  T
   2    -50.7367270 -0.132771E-07  0.435E-03    8.29       4.5  T
   3    -50.7367270 -0.842719E-08  0.760E-04    8.29      25.8  T
   4    -50.7367270 -0.187519E-08  0.184E-04    8.29     106.4  T
speedup  1.11
cpu  time for SCC    0.00 s
wall time for SCC    0.00 s
speedup  1.06
cpu  time for grad    0.01 s
wall time for grad    0.01 s
 E :    -50.45440420  G :  0.000323    pred/act E change: -0.103D-05 -0.663D-06
Maxdispl :   0.0036   ||displ|| :   0.0066   Lambda : -0.408D-06
Largest |displ|/coords:  0.0036 (   9)  0.0019 (  13)  0.0018 (  14)
................................................................................
.............................. CYCLE   98 ......................................
................................................................................
   1    -50.7366821 -0.507367E+02  0.480E-03    8.29       0.0  T
   2    -50.7366821 -0.390661E-08  0.362E-03    8.29       5.4  T
   3    -50.7366822 -0.372142E-08  0.362E-04    8.29      54.2  T
   4    -50.7366822 -0.419831E-09  0.153E-04    8.29     128.1  T
speedup  1.11
cpu  time for SCC    0.00 s
wall time for SCC    0.00 s
speedup  1.06
cpu  time for grad    0.01 s
wall time for grad    0.01 s
 E :    -50.45440448  G :  0.000308    pred/act E change: -0.501D-06 -0.280D-06
Maxdispl :   0.0046   ||displ|| :   0.0083   Lambda : -0.390D-06
Largest |displ|/coords:  0.0046 (   9)  0.0027 (  16)  0.0025 (  14)
................................................................................
.............................. CYCLE   99 ......................................
................................................................................
   1    -50.7366142 -0.507366E+02  0.548E-03    8.29       0.0  T
   2    -50.7366142 -0.606848E-08  0.413E-03    8.29       4.8  T
   3    -50.7366142 -0.451764E-08  0.433E-04    8.29      45.3  T
   4    -50.7366142 -0.867594E-09  0.206E-04    8.29      95.0  T
speedup  0.79
cpu  time for SCC    0.00 s
wall time for SCC    0.00 s
speedup  0.97
cpu  time for grad    0.01 s
wall time for grad    0.01 s
 E :    -50.45440476  G :  0.000312    pred/act E change: -0.204D-06 -0.278D-06
Maxdispl :   0.0040   ||displ|| :   0.0094   Lambda : -0.370D-06
Largest |displ|/coords:  0.0040 (   9)  0.0030 (  16)  0.0028 (  11)
................................................................................
.............................. CYCLE  100 ......................................
................................................................................
   1    -50.7365710 -0.507366E+02  0.613E-03    8.29       0.0  T
   2    -50.7365710 -0.990595E-08  0.463E-03    8.29       4.2  T
   3    -50.7365710 -0.708825E-08  0.510E-04    8.30      38.4  T
   4    -50.7365710 -0.150632E-08  0.231E-04    8.30      84.7  T
speedup  1.08
cpu  time for SCC    0.00 s
wall time for SCC    0.00 s
speedup  0.98
cpu  time for grad    0.01 s
wall time for grad    0.01 s
 E :    -50.45440501  G :  0.000235    pred/act E change: -0.195D-06 -0.250D-06
Maxdispl :   0.0024   ||displ|| :   0.0054   Lambda : -0.199D-06
Largest |displ|/coords:  0.0024 (   3)  0.0021 (  16)  0.0017 (   7)
................................................................................
.............................. CYCLE  101 ......................................
................................................................................
   1    -50.7365443 -0.507365E+02  0.361E-03    8.30       0.0  T
   2    -50.7365444 -0.546724E-08  0.273E-03    8.30       7.2  T
   3    -50.7365444 -0.290192E-08  0.386E-04    8.30      50.8  T
   4    -50.7365444 -0.952369E-09  0.143E-04    8.30     137.1  T
speedup  1.05
cpu  time for SCC    0.00 s
wall time for SCC    0.00 s
speedup  1.05
cpu  time for grad    0.01 s
wall time for grad    0.01 s
 E :    -50.45440514  G :  0.000184    pred/act E change: -0.185D-06 -0.131D-06
Maxdispl :   0.0022   ||displ|| :   0.0032   Lambda : -0.810D-07
Largest |displ|/coords:  0.0022 (   3)  0.0010 (  11)  0.0009 (   2)
................................................................................
.............................. CYCLE  102 ......................................
................................................................................
   1    -50.7365740 -0.507366E+02  0.174E-03    8.30       0.0  T
   2    -50.7365740 -0.103013E-08  0.130E-03    8.30      15.0  T
   3    -50.7365740 -0.598988E-09  0.180E-04    8.30     108.7  T
   4    -50.7365740 -0.166239E-09  0.668E-05    8.30     293.5  T
speedup  1.08
cpu  time for SCC    0.00 s
wall time for SCC    0.00 s
speedup  1.07
cpu  time for grad    0.01 s
wall time for grad    0.01 s
 E :    -50.45440519  G :  0.000120    pred/act E change: -0.993D-07 -0.509D-07
Maxdispl :   0.0011   ||displ|| :   0.0023   Lambda : -0.392D-07
Largest |displ|/coords:  0.0011 (   3)  0.0009 (   4)  0.0008 (   9)

   *** GEOMETRY OPTIMIZATION CONVERGED AFTER 102 ITERATIONS ***

------------------------------------------------------------------------
 total energy gain (kcal):     -0.3976
------------------------------------------------------------------------
================
 final structure:
================
$coord
       -1.37848220355437       -2.52346968267143       -0.36445599286309      S 
        1.14273433168177       -1.56194907996783       -0.84396775061222      O 
       -3.03653233010143       -2.04230038288376       -2.64729940670684      O 
       -1.42032181876282       -5.13142331605315        0.34234025780085      O 
       -2.61149989200375       -0.86759979307390        1.68851302009537      O 
        1.92574099752753       -5.14395318804529        4.11490611308582      O 
        1.52929953246697       -6.53912653689334        5.20339526869294      H 
        0.85218433273319       -5.33670076466443        2.62271565142339      H 
        1.33290702667659        0.52677656981158       -5.52072645040575      O 
       -0.12423502828635       -0.16702560941467       -6.34604586354013      H 
        1.49434773780537       -0.39713753689044       -3.94130313663090      H 
        3.44636436502515        2.01832754046640        1.73390062030247      O 
        2.70383256011853        0.71162890672531        0.64459207800606      H 
        5.23718133060852        1.74409493981964        1.68842264985991      H 
       -4.30927436879798        2.41171959825539       -2.01105654059542      O 
       -2.64026040734858        3.41577117918309       -2.12372404679877      H 
       -3.65585264829122       -0.11517990649666       -2.52231933944990      H 
       -4.72775263982524        2.31885070076445       -0.24412712306137      H 
        0.54529247299776       -0.42648227165853        5.15490663075833      O 
        1.74690698320196        0.69782434497976        4.30641429632791      H 
       -1.39885041118353       -0.65079663449368        3.25103421362919      H 
        1.27787476380538       -2.13565248203453        5.07612226245423      H 
        0.02979128067586        4.66564436782337       -2.23898199450811      N 
        0.82973154683624        3.63189161492548       -3.65792771475474      H 
        1.07606956500608        4.38054669458475       -0.65737049214948      H 
        0.13280290210949        6.51572070895260       -2.70795721035227      H 
$end
 
 Bond Distances (Angstroems)
 ---------------------------
S1-O2=1.4503         S1-O3=1.5146         S1-O4=1.4300         S1-O5=1.5407         O2-S1=1.4503         O3-S1=1.5146         
O3-H17=1.0732        O4-S1=1.4300         O5-S1=1.5407         O5-H21=1.0529        O6-H7=0.9596         O6-H8=0.9781         
H7-O6=0.9596         H8-O6=0.9781         O9-H10=0.9592        O9-H11=0.9721        H10-O9=0.9592        H11-O9=0.9721        
O12-H13=0.9822       O12-H14=0.9590       H13-O12=0.9822       H14-O12=0.9590       O15-H16=1.0324       O15-H18=0.9621       
H16-O15=1.0324       H17-O3=1.0732        H18-O15=0.9621       O19-H20=0.9797       O19-H22=0.9849       H20-O19=0.9797       
H21-O5=1.0529        H22-O19=0.9849       N23-H24=1.0209       N23-H25=1.0148       N23-H26=1.0115       H24-N23=1.0209       
H25-N23=1.0148       H26-N23=1.0115       
 N  H  Rav=1.0157 sigma=0.0039  Rmin=1.0115  Rmax=1.0209     3
 O  H  Rav=0.9913 sigma=0.0376  Rmin=0.9590  Rmax=1.0732    12
 S  O  Rav=1.4839 sigma=0.0453  Rmin=1.4300  Rmax=1.5407     4
 
 selected bond angles (degree)
 --------------------
O3-S1-O2=109.54                O4-S1-O2=113.49                O4-S1-O3=111.22                O5-S1-O2=108.27                
O5-S1-O3=102.79                O5-S1-O4=110.97                H17-O3-S1=106.71               H21-O5-S1=110.95               
H8-O6-H7=106.10                H11-O9-H10=105.64              
 
 selected dihedral angles (degree)
 ---------------------------------
H17-O3-S1-O2=278.78           H17-O3-S1-O4=152.52           H17-O3-S1-O5= 33.72           H21-O5-S1-O2=310.30           
H21-O5-S1-O3=194.45           H21-O5-S1-O4= 75.47           
 
 CMA Distance (Angstroems)
 ---------------------------
R(CMA):  1.9224

========================================================================
 FINAL SINGLEPOINT CALCULATION ON OPTIMIZED GEOMETRY
========================================================================

 Ncao       : 65
 Nao        : 64
 Nshell     : 38
 Nel        : 80
 T(el)      :   300.0
 intcut     :    25.0
 scfconv/Eh :  0.100E-05
   qconv/e  :  0.100E-03
 intneglect :  0.100E-07
 broydamp   :      0.250
 iter      E             dE          RMSdq      gap      omega  full diag
   1    -50.7365740 -0.507366E+02  0.259E-05    8.30       0.0  T
   2    -50.7365740 -0.504485E-12  0.158E-05    8.30    1238.4  T
   3    -50.7365740 -0.355271E-12  0.309E-06    8.30    6343.2  T
speedup  0.74
cpu  time for SCC    0.00 s
wall time for SCC    0.00 s

   *** convergence criteria satisfied after 3 iterations ***

          eigenvalues
 #    :          28         29         30         31         32         33         34         35
 occ. :        2.000      2.000      2.000      2.000      2.000      2.000      2.000      2.000
 eps  :       -13.898    -13.588    -13.111    -12.974    -12.772    -12.637    -12.525    -12.456
 #    :          36         37         38         39         40         41         42         43
 occ. :        2.000      2.000      2.000      2.000      2.000      0.000      0.000      0.000
 eps  :       -12.401    -12.343    -12.285    -11.815    -11.247     -2.951     -1.020     -0.266
 #    :          44         45         46         47         48         49         50         51
 occ. :        0.000      0.000      0.000      0.000      0.000      0.000      0.000      0.000
 eps  :         0.131      0.839      1.000      2.061      2.739      3.199      4.062      5.093


   #   Z            q   n(s)   n(p)   n(d)      C6AA      α(0)
   1  16 S      1.741  1.576  1.754  0.929    87.846    15.775
   2   8 O     -0.747  1.767  4.980  0.000    30.023     7.346
   3   8 O     -0.635  1.761  4.874  0.000    26.029     6.886
   4   8 O     -0.694  1.761  4.933  0.000    28.541     7.163
   5   8 O     -0.661  1.765  4.896  0.000    26.679     6.972
   6   8 O     -0.611  1.741  4.870  0.000    25.441     6.808
   7   1 H      0.295  0.705  0.000  0.000     0.735     1.346
   8   1 H      0.320  0.680  0.000  0.000     0.664     1.280
   9   8 O     -0.606  1.741  4.865  0.000    25.321     6.791
  10   1 H      0.286  0.714  0.000  0.000     0.763     1.372
  11   1 H      0.310  0.690  0.000  0.000     0.692     1.307
  12   8 O     -0.621  1.748  4.873  0.000    25.695     6.841
  13   1 H      0.333  0.667  0.000  0.000     0.630     1.247
  14   1 H      0.291  0.709  0.000  0.000     0.749     1.360
  15   8 O     -0.599  1.758  4.840  0.000    25.109     6.765
  16   1 H      0.336  0.664  0.000  0.000     0.616     1.230
  17   1 H      0.399  0.601  0.000  0.000     0.480     1.084
  18   1 H      0.309  0.691  0.000  0.000     0.695     1.310
  19   8 O     -0.607  1.761  4.846  0.000    25.322     6.793
  20   1 H      0.336  0.664  0.000  0.000     0.621     1.238
  21   1 H      0.394  0.606  0.000  0.000     0.491     1.098
  22   1 H      0.337  0.663  0.000  0.000     0.619     1.236
  23   7 N     -0.456  1.364  4.092  0.000    31.978     8.399
  24   1 H      0.204  0.796  0.000  0.000     1.086     1.633
  25   1 H      0.185  0.815  0.000  0.000     1.185     1.705
  26   1 H      0.159  0.841  0.000  0.000     1.340     1.813

 Mol. C6AA /au·bohr⁶  :       5457.920644
 Mol. C8AA /au·bohr⁸  :     117793.141893
 Mol. α(0) /au        :        106.799253

 
 Wiberg/Mayer (AO) data. WBOs > 0.1 written file <wbo>
 largest (>0.05) Wiberg bond orders for each atom
           total WBO             WBO to atom ...
     1  S   4.801    O    4 1.398    O    2 1.291    O    3 1.065    O    5 0.997
     2  O   1.721    S    1 1.291    O    4 0.115    O    5 0.089    O    3 0.088    H   13 0.059
     3  O   1.954    S    1 1.065    H   17 0.580    O    2 0.088    O    4 0.080    O   15 0.065    O    5 0.058
     4  O   1.774    S    1 1.398    O    2 0.115    O    5 0.092    O    3 0.080    H    8 0.053
     5  O   1.926    S    1 0.997    H   21 0.615    O    4 0.092    O    2 0.089    O   19 0.063    O    3 0.058
     6  O   1.872    H    7 0.909    H    8 0.841    H   22 0.065
     7  H   0.913    O    6 0.909
     8  H   0.898    O    6 0.841    O    4 0.053
     9  O   1.847    H   10 0.914    H   11 0.860
    10  H   0.918    O    9 0.914
    11  H   0.904    O    9 0.860
    12  O   1.863    H   14 0.911    H   13 0.825    H   20 0.052
    13  H   0.889    O   12 0.825    O    2 0.059
    14  H   0.915    O   12 0.911
    15  O   2.010    H   18 0.897    H   16 0.720    H   17 0.243    N   23 0.067    O    3 0.065
    16  H   0.887    O   15 0.720    N   23 0.165
    17  H   0.841    O    3 0.580    O   15 0.243
    18  H   0.905    O   15 0.897
    19  O   1.995    H   20 0.833    H   22 0.819    H   21 0.211    O    5 0.063
    20  H   0.887    O   19 0.833    O   12 0.052
    21  H   0.845    O    5 0.615    O   19 0.211
    22  H   0.886    O   19 0.819    O    6 0.065
    23  N   3.114    H   26 0.971    H   25 0.952    H   24 0.927    H   16 0.165    O   15 0.067
    24  H   0.958    N   23 0.927
    25  H   0.966    N   23 0.952
    26  H   0.975    N   23 0.971
 MOs/occ written to file <molden.input>
 
molecular dipole:
                 x           y           z       tot (Debye)
 q only:        0.127       1.060       0.566
   full:        0.378       0.719       0.566       2.517
molecular quadrupole (traceless):
                xx          xy          yy          xz          yz          zz
 q only:        0.241      -2.352       1.639       2.163      -5.821      -1.880
  q+dip:        0.355       0.086       5.017       1.259      -6.433      -5.372
   full:        0.096       0.105       4.916       1.694      -6.486      -5.012

SCC energy    :     -50.7365740
rep           :       0.2818692
ES            :       0.2326044
AES           :      -0.0584270
AXC           :      -0.0079545
disp          :      -0.0197325
XB            :       0.0000000
fix           :       0.0000000
total E       :     -50.4544052
atomizationE  :       4.9847094     3127.95
(atE without considering molecular charge,
 total energy contains solvation terms)
H-L gap (eV)  :          8.2955
optimized geometry written to: xtbopt.xyz


------------------------------------------------------------------------
 * finished run on 2019/09/16 at 11:57:28.210     
------------------------------------------------------------------------
 total:
 * wall-time:     0 d,  0 h,  0 min,  2.270 sec
 *  cpu-time:     0 d,  0 h,  0 min,  2.248 sec
 * ratio c/w:     0.990 speedup
 SCF:
 * wall-time:     0 d,  0 h,  0 min,  0.134 sec
 *  cpu-time:     0 d,  0 h,  0 min,  0.130 sec
 * ratio c/w:     0.973 speedup
 ANC optimizer:
 * wall-time:     0 d,  0 h,  0 min,  2.114 sec
 *  cpu-time:     0 d,  0 h,  0 min,  2.098 sec
 * ratio c/w:     0.992 speedup

